Title t= 117.00000 step= 58500
19942
    1ASP      N    1   1.752   2.529   3.092
    1ASP    HT1    2   1.775   2.494   3.187
    1ASP    HT2    3   1.761   2.633   3.096
    1ASP    HT3    4   1.824   2.487   3.030
    1ASP     CA    5   1.624   2.489   3.034
    1ASP     HA    6   1.550   2.484   3.113
    1ASP     CB    7   1.579   2.607   2.946
    1ASP    HB1    8   1.641   2.631   2.856
    1ASP    HB2    9   1.588   2.695   3.014
    1ASP     CG   10   1.430   2.602   2.899
    1ASP    OD1   11   1.409   2.661   2.791
    1ASP    OD2   12   1.346   2.575   2.987
    1ASP      C   13   1.629   2.350   2.974
    1ASP      O   14   1.734   2.300   2.927
    2ALA      N   15   1.512   2.273   2.978
    2ALA     HN   16   1.421   2.304   3.005
    2ALA     CA   17   1.517   2.145   2.912
    2ALA     HA   18   1.587   2.144   2.830
    2ALA     CB   19   1.577   2.040   3.013
    2ALA    HB1   20   1.582   1.943   2.959
    2ALA    HB2   21   1.537   2.038   3.116
    2ALA    HB3   22   1.684   2.070   3.021
    2ALA      C   23   1.379   2.093   2.852
    2ALA      O   24   1.267   2.137   2.885
    3ASP      N   25   1.382   1.992   2.759
    3ASP     HN   26   1.473   1.954   2.745
    3ASP     CA   27   1.267   1.931   2.697
    3ASP     HA   28   1.181   1.995   2.698
    3ASP     CB   29   1.292   1.893   2.548
    3ASP    HB1   30   1.208   1.829   2.514
    3ASP    HB2   31   1.387   1.835   2.545
    3ASP     CG   32   1.322   2.016   2.462
    3ASP    OD1   33   1.390   1.999   2.359
    3ASP    OD2   34   1.266   2.131   2.487
    3ASP      C   35   1.228   1.817   2.787
    3ASP      O   36   1.306   1.752   2.860
    4GLY      N   37   1.105   1.789   2.782
    4GLY     HN   38   1.053   1.841   2.714
    4GLY     CA   39   1.035   1.673   2.839
    4GLY    HA1   40   0.931   1.686   2.811
    4GLY    HA2   41   1.044   1.667   2.946
    4GLY      C   42   1.053   1.540   2.770
    4GLY      O   43   1.019   1.536   2.653
    5PRO      N   44   1.107   1.433   2.835
    5PRO     CD   45   1.209   1.442   2.944
    5PRO    HD1   46   1.160   1.493   3.030
    5PRO    HD2   47   1.295   1.501   2.907
    5PRO     CA   48   1.078   1.295   2.801
    5PRO     HA   49   1.127   1.280   2.706
    5PRO     CB   50   1.150   1.209   2.914
    5PRO    HB1   51   1.190   1.111   2.879
    5PRO    HB2   52   1.076   1.193   2.996
    5PRO     CG   53   1.256   1.297   2.978
    5PRO    HG1   54   1.271   1.265   3.083
    5PRO    HG2   55   1.357   1.285   2.934
    5PRO      C   56   0.932   1.261   2.778
    5PRO      O   57   0.846   1.319   2.842
    6GLY      N   58   0.906   1.161   2.688
    6GLY     HN   59   0.982   1.115   2.644
    6GLY     CA   60   0.783   1.095   2.669
    6GLY    HA1   61   0.756   1.072   2.567
    6GLY    HA2   62   0.708   1.156   2.719
    6GLY      C   63   0.784   0.953   2.733
    6GLY      O   64   0.855   0.920   2.827
    7ASP      N   65   0.690   0.866   2.681
    7ASP     HN   66   0.630   0.907   2.613
    7ASP     CA   67   0.675   0.721   2.699
    7ASP     HA   68   0.641   0.707   2.801
    7ASP     CB   69   0.568   0.663   2.600
    7ASP    HB1   70   0.598   0.697   2.498
    7ASP    HB2   71   0.470   0.709   2.625
    7ASP     CG   72   0.548   0.513   2.596
    7ASP    OD1   73   0.480   0.461   2.504
    7ASP    OD2   74   0.600   0.446   2.689
    7ASP      C   75   0.816   0.657   2.697
    7ASP      O   76   0.898   0.681   2.604
    8PRO      N   77   0.865   0.579   2.794
    8PRO     CD   78   0.813   0.590   2.930
    8PRO    HD1   79   0.755   0.497   2.951
    8PRO    HD2   80   0.751   0.679   2.957
    8PRO     CA   81   0.995   0.515   2.797
    8PRO     HA   82   1.077   0.576   2.763
    8PRO     CB   83   1.011   0.473   2.940
    8PRO    HB1   84   1.120   0.464   2.960
    8PRO    HB2   85   0.980   0.369   2.966
    8PRO     CG   86   0.933   0.570   3.011
    8PRO    HG1   87   0.909   0.547   3.117
    8PRO    HG2   88   0.993   0.664   3.005
    8PRO      C   89   0.998   0.390   2.709
    8PRO      O   90   1.089   0.315   2.729
    9ASP      N   91   0.901   0.371   2.617
    9ASP     HN   92   0.813   0.418   2.622
    9ASP     CA   93   0.908   0.267   2.518
    9ASP     HA   94   0.966   0.184   2.556
    9ASP     CB   95   0.766   0.208   2.485
    9ASP    HB1   96   0.783   0.120   2.419
    9ASP    HB2   97   0.698   0.275   2.428
    9ASP     CG   98   0.694   0.152   2.602
    9ASP    OD1   99   0.567   0.151   2.593
    9ASP    OD2  100   0.751   0.072   2.683
    9ASP      C  101   0.966   0.317   2.394
    9ASP      O  102   0.991   0.248   2.294
   10ALA      N  103   1.001   0.449   2.395
   10ALA     HN  104   0.957   0.503   2.466
   10ALA     CA  105   1.106   0.509   2.321
   10ALA     HA  106   1.065   0.534   2.225
   10ALA     CB  107   1.142   0.651   2.371
   10ALA    HB1  108   1.237   0.680   2.322
   10ALA    HB2  109   1.160   0.658   2.480
   10ALA    HB3  110   1.057   0.718   2.348
   10ALA      C  111   1.230   0.419   2.307
   10ALA      O  112   1.279   0.358   2.403
   11GLY      N  113   1.288   0.409   2.182
   11GLY     HN  114   1.248   0.433   2.094
   11GLY     CA  115   1.422   0.361   2.173
   11GLY    HA1  116   1.414   0.256   2.148
   11GLY    HA2  117   1.481   0.367   2.263
   11GLY      C  118   1.493   0.422   2.056
   11GLY    OT1  119   1.569   0.347   1.983
   11GLY    OT2  120   1.473   0.544   2.027
   12LIT    LIT  121   4.001   4.659   3.511
   13LIT    LIT  122   0.728   2.193   2.136
   14LIT    LIT  123   5.965   5.321   1.570
   15LIT    LIT  124   0.263   1.466   3.912
   16LIT    LIT  125   4.429   5.805   3.372
   17LIT    LIT  126   2.753   5.747   5.012
   18LIT    LIT  127   0.757   5.386   2.823
   19LIT    LIT  128   0.445   0.274   2.518
   20LIT    LIT  129   3.245   2.873   3.587
   21LIT    LIT  130   2.314   4.886   2.459
   22LIT    LIT  131   4.843   2.857   0.797
   23LIT    LIT  132   2.403   2.251   1.701
   24LIT    LIT  133   4.671   3.486   3.030
   25LIT    LIT  134   0.772   4.758   0.635
   26LIT    LIT  135   3.090   0.716   3.797
   27LIT    LIT  136   0.992   1.011   3.229
   28LIT    LIT  137   2.309   1.744   3.648
   29LIT    LIT  138   1.632   4.035   0.891
   30LIT    LIT  139   1.718   2.658   2.427
   31LIT    LIT  140   0.146   3.878   4.877
   32LIT    LIT  141   0.148   0.144   1.311
   33LIT    LIT  142   3.074   0.884   1.293
   34CLA    CLA  143   3.517   1.760   2.314
   35CLA    CLA  144   1.076   2.645   4.891
   36CLA    CLA  145   5.044   4.064   1.498
   37CLA    CLA  146   0.671   4.546   2.348
   38CLA    CLA  147   3.764   5.718   0.943
   39CLA    CLA  148   4.533   4.169   3.410
   40CLA    CLA  149   0.657   1.790   3.690
   41CLA    CLA  150   4.133   1.560   4.511
   42CLA    CLA  151   3.943   3.269   1.020
   43CLA    CLA  152   0.956   3.058   0.960
   44CLA    CLA  153   5.992   1.872   3.867
   45CLA    CLA  154   3.318   0.995   4.322
   46CLA    CLA  155   4.993   5.740   3.918
   47CLA    CLA  156   3.211   0.763   3.617
   48CLA    CLA  157   2.905   4.682   4.664
   49CLA    CLA  158   2.587   3.066   4.625
   50CLA    CLA  159   4.147   4.551   5.017
   51CLA    CLA  160   3.795   0.742   0.777
   52TIP3   OH2  161   3.739   5.978   2.158
   52TIP3    H1  162   3.689   5.921   2.100
   52TIP3    H2  163   3.762   6.053   2.103
   53TIP3   OH2  164   6.155   4.258   4.154
   53TIP3    H1  165   6.135   4.323   4.221
   53TIP3    H2  166   6.233   4.293   4.109
   54TIP3   OH2  167   6.298   1.877   3.777
   54TIP3    H1  168   6.325   1.793   3.816
   54TIP3    H2  169   6.206   1.886   3.803
   55TIP3   OH2  170   5.267   2.225   3.285
   55TIP3    H1  171   5.316   2.178   3.353
   55TIP3    H2  172   5.249   2.311   3.324
   56TIP3   OH2  173   5.216   5.682   0.968
   56TIP3    H1  174   5.262   5.765   0.972
   56TIP3    H2  175   5.285   5.616   0.968
   57TIP3   OH2  176   2.040   2.291   0.286
   57TIP3    H1  177   2.095   2.228   0.238
   57TIP3    H2  178   2.093   2.370   0.291
   58TIP3   OH2  179   0.394   2.318   2.739
   58TIP3    H1  180   0.313   2.279   2.770
   58TIP3    H2  181   0.462   2.281   2.795
   59TIP3   OH2  182   3.071   2.424   4.251
   59TIP3    H1  183   3.081   2.344   4.302
   59TIP3    H2  184   3.070   2.395   4.160
   60TIP3   OH2  185   2.940   4.321   2.190
   60TIP3    H1  186   2.904   4.313   2.101
   60TIP3    H2  187   2.869   4.359   2.241
   61TIP3   OH2  188   3.718   5.528   1.880
   61TIP3    H1  189   3.732   5.447   1.929
   61TIP3    H2  190   3.634   5.561   1.912
   62TIP3   OH2  191   6.131   4.185   2.967
   62TIP3    H1  192   6.127   4.237   3.047
   62TIP3    H2  193   6.049   4.135   2.966
   63TIP3   OH2  194   5.374   2.270   0.682
   63TIP3    H1  195   5.445   2.206   0.673
   63TIP3    H2  196   5.379   2.297   0.774
   64TIP3   OH2  197   5.813   0.187   1.540
   64TIP3    H1  198   5.768   0.135   1.474
   64TIP3    H2  199   5.895   0.213   1.499
   65TIP3   OH2  200   5.244   2.735   2.616
   65TIP3    H1  201   5.287   2.775   2.540
   65TIP3    H2  202   5.276   2.645   2.618
   66TIP3   OH2  203   5.041   2.379   1.329
   66TIP3    H1  204   5.120   2.327   1.342
   66TIP3    H2  205   5.002   2.385   1.416
   67TIP3   OH2  206   4.601   3.820   5.032
   67TIP3    H1  207   4.647   3.878   4.971
   67TIP3    H2  208   4.511   3.819   5.000
   68TIP3   OH2  209   0.774   0.124   4.216
   68TIP3    H1  210   0.735   0.170   4.141
   68TIP3    H2  211   0.809   0.194   4.272
   69TIP3   OH2  212   3.045   3.952   0.670
   69TIP3    H1  213   3.074   3.988   0.586
   69TIP3    H2  214   3.067   4.019   0.734
   70TIP3   OH2  215   5.710   1.672   4.467
   70TIP3    H1  216   5.617   1.692   4.475
   70TIP3    H2  217   5.747   1.746   4.420
   71TIP3   OH2  218   0.138   4.461   0.062
   71TIP3    H1  219   0.064   4.517   0.086
   71TIP3    H2  220   0.130   4.448  -0.032
   72TIP3   OH2  221   4.909   2.104   0.934
   72TIP3    H1  222   4.903   2.044   0.860
   72TIP3    H2  223   4.932   2.188   0.895
   73TIP3   OH2  224   1.752   0.010   1.225
   73TIP3    H1  225   1.664   0.029   1.256
   73TIP3    H2  226   1.805   0.083   1.257
   74TIP3   OH2  227   2.520   0.826   2.105
   74TIP3    H1  228   2.547   0.829   2.197
   74TIP3    H2  229   2.433   0.785   2.107
   75TIP3   OH2  230   0.606   1.241   2.928
   75TIP3    H1  231   0.696   1.260   2.900
   75TIP3    H2  232   0.601   1.280   3.016
   76TIP3   OH2  233   3.507   2.257   2.680
   76TIP3    H1  234   3.596   2.256   2.644
   76TIP3    H2  235   3.460   2.192   2.628
   77TIP3   OH2  236   0.789   2.780   2.113
   77TIP3    H1  237   0.771   2.845   2.181
   77TIP3    H2  238   0.817   2.702   2.160
   78TIP3   OH2  239   3.524   1.567   4.060
   78TIP3    H1  240   3.436   1.541   4.032
   78TIP3    H2  241   3.572   1.484   4.067
   79TIP3   OH2  242   4.636   0.516   0.938
   79TIP3    H1  243   4.638   0.452   0.867
   79TIP3    H2  244   4.545   0.515   0.968
   80TIP3   OH2  245   5.625   1.027   0.134
   80TIP3    H1  246   5.549   0.981   0.169
   80TIP3    H2  247   5.697   0.965   0.144
   81TIP3   OH2  248   3.839   5.037   4.060
   81TIP3    H1  249   3.881   5.116   4.092
   81TIP3    H2  250   3.745   5.052   4.074
   82TIP3   OH2  251   3.071   5.198   0.355
   82TIP3    H1  252   3.082   5.229   0.445
   82TIP3    H2  253   3.141   5.241   0.306
   83TIP3   OH2  254   5.963   1.583   5.040
   83TIP3    H1  255   5.986   1.675   5.050
   83TIP3    H2  256   5.919   1.578   4.955
   84TIP3   OH2  257   3.679   2.637   3.523
   84TIP3    H1  258   3.719   2.715   3.561
   84TIP3    H2  259   3.655   2.662   3.434
   85TIP3   OH2  260   2.397   4.715   0.993
   85TIP3    H1  261   2.405   4.694   0.900
   85TIP3    H2  262   2.470   4.669   1.034
   86TIP3   OH2  263   5.447   2.210   3.088
   86TIP3    H1  264   5.398   2.232   3.167
   86TIP3    H2  265   5.511   2.281   3.079
   87TIP3   OH2  266   0.289   3.986   3.266
   87TIP3    H1  267   0.246   4.013   3.347
   87TIP3    H2  268   0.264   3.894   3.256
   88TIP3   OH2  269   2.291   2.010   2.394
   88TIP3    H1  270   2.271   1.939   2.334
   88TIP3    H2  271   2.217   2.012   2.455
   89TIP3   OH2  272   3.349   0.754   0.154
   89TIP3    H1  273   3.339   0.674   0.205
   89TIP3    H2  274   3.260   0.783   0.136
   90TIP3   OH2  275   4.674   4.211   2.769
   90TIP3    H1  276   4.583   4.198   2.741
   90TIP3    H2  277   4.674   4.298   2.809
   91TIP3   OH2  278   0.753   1.976   0.770
   91TIP3    H1  279   0.833   1.928   0.791
   91TIP3    H2  280   0.768   2.009   0.681
   92TIP3   OH2  281   3.680   4.042   2.008
   92TIP3    H1  282   3.736   3.971   2.039
   92TIP3    H2  283   3.591   4.015   2.031
   93TIP3   OH2  284   5.300   3.540   2.163
   93TIP3    H1  285   5.302   3.554   2.258
   93TIP3    H2  286   5.373   3.592   2.130
   94TIP3   OH2  287   3.223   3.673   3.859
   94TIP3    H1  288   3.133   3.696   3.884
   94TIP3    H2  289   3.214   3.633   3.772
   95TIP3   OH2  290   4.561   0.188   3.350
   95TIP3    H1  291   4.542   0.278   3.377
   95TIP3    H2  292   4.647   0.192   3.308
   96TIP3   OH2  293   4.849   0.204   0.405
   96TIP3    H1  294   4.848   0.152   0.485
   96TIP3    H2  295   4.908   0.276   0.424
   97TIP3   OH2  296   2.073   1.983   0.025
   97TIP3    H1  297   2.160   1.966  -0.011
   97TIP3    H2  298   2.037   1.896   0.041
   98TIP3   OH2  299   0.251   5.897   4.300
   98TIP3    H1  300   0.284   5.975   4.255
   98TIP3    H2  301   0.304   5.891   4.380
   99TIP3   OH2  302   5.600   4.217   1.100
   99TIP3    H1  303   5.524   4.247   1.150
   99TIP3    H2  304   5.562   4.172   1.024
  100TIP3   OH2  305   4.083   2.298   5.024
  100TIP3    H1  306   3.989   2.310   5.037
  100TIP3    H2  307   4.102   2.346   4.943
  101TIP3   OH2  308   2.832   1.507   1.913
  101TIP3    H1  309   2.863   1.446   1.980
  101TIP3    H2  310   2.756   1.549   1.953
  102TIP3   OH2  311   5.035   3.109   0.238
  102TIP3    H1  312   5.037   3.046   0.310
  102TIP3    H2  313   5.119   3.154   0.243
  103TIP3   OH2  314   3.468   5.400   3.169
  103TIP3    H1  315   3.457   5.433   3.258
  103TIP3    H2  316   3.562   5.404   3.153
  104TIP3   OH2  317   2.026   0.777   2.956
  104TIP3    H1  318   1.947   0.743   2.997
  104TIP3    H2  319   2.002   0.786   2.863
  105TIP3   OH2  320   0.603   4.703   1.363
  105TIP3    H1  321   0.591   4.798   1.361
  105TIP3    H2  322   0.599   4.676   1.271
  106TIP3   OH2  323   0.257   4.901   1.056
  106TIP3    H1  324   0.272   4.816   1.098
  106TIP3    H2  325   0.165   4.899   1.031
  107TIP3   OH2  326   3.173   4.299   5.077
  107TIP3    H1  327   3.178   4.388   5.042
  107TIP3    H2  328   3.095   4.261   5.037
  108TIP3   OH2  329   5.075   1.536   5.193
  108TIP3    H1  330   5.106   1.590   5.120
  108TIP3    H2  331   5.122   1.453   5.184
  109TIP3   OH2  332   2.133   3.788   3.195
  109TIP3    H1  333   2.076   3.783   3.271
  109TIP3    H2  334   2.120   3.704   3.150
  110TIP3   OH2  335   4.658   0.191   1.973
  110TIP3    H1  336   4.655   0.178   2.068
  110TIP3    H2  337   4.652   0.286   1.962
  111TIP3   OH2  338   4.603   4.270   3.908
  111TIP3    H1  339   4.660   4.193   3.912
  111TIP3    H2  340   4.649   4.337   3.959
  112TIP3   OH2  341   4.878   4.821   2.927
  112TIP3    H1  342   4.904   4.770   3.004
  112TIP3    H2  343   4.783   4.829   2.936
  113TIP3   OH2  344   4.504   1.179   5.145
  113TIP3    H1  345   4.501   1.092   5.106
  113TIP3    H2  346   4.425   1.182   5.201
  114TIP3   OH2  347   4.614   5.923   1.795
  114TIP3    H1  348   4.691   5.970   1.764
  114TIP3    H2  349   4.634   5.902   1.887
  115TIP3   OH2  350   5.630   3.229   0.152
  115TIP3    H1  351   5.565   3.252   0.085
  115TIP3    H2  352   5.625   3.134   0.158
  116TIP3   OH2  353   3.853   4.127   2.863
  116TIP3    H1  354   3.820   4.196   2.806
  116TIP3    H2  355   3.776   4.096   2.910
  117TIP3   OH2  356   1.524   3.739   1.377
  117TIP3    H1  357   1.538   3.645   1.369
  117TIP3    H2  358   1.428   3.749   1.374
  118TIP3   OH2  359   3.734   4.798   2.672
  118TIP3    H1  360   3.676   4.874   2.668
  118TIP3    H2  361   3.822   4.835   2.663
  119TIP3   OH2  362   5.138   2.848   1.953
  119TIP3    H1  363   5.129   2.866   1.860
  119TIP3    H2  364   5.126   2.753   1.961
  120TIP3   OH2  365   5.358   0.199   3.641
  120TIP3    H1  366   5.383   0.291   3.645
  120TIP3    H2  367   5.358   0.170   3.733
  121TIP3   OH2  368   2.788   5.463   0.671
  121TIP3    H1  369   2.754   5.441   0.758
  121TIP3    H2  370   2.835   5.545   0.684
  122TIP3   OH2  371   5.496   3.262   2.066
  122TIP3    H1  372   5.520   3.232   1.978
  122TIP3    H2  373   5.549   3.341   2.080
  123TIP3   OH2  374   4.142   1.250   4.614
  123TIP3    H1  375   4.061   1.216   4.652
  123TIP3    H2  376   4.126   1.343   4.602
  124TIP3   OH2  377   4.043   5.642   3.455
  124TIP3    H1  378   4.006   5.650   3.543
  124TIP3    H2  379   3.986   5.696   3.400
  125TIP3   OH2  380   1.844   0.390   2.023
  125TIP3    H1  381   1.749   0.378   2.015
  125TIP3    H2  382   1.854   0.443   2.102
  126TIP3   OH2  383   2.233   3.111   1.659
  126TIP3    H1  384   2.300   3.063   1.609
  126TIP3    H2  385   2.190   3.166   1.594
  127TIP3   OH2  386   0.671   3.417   4.433
  127TIP3    H1  387   0.674   3.416   4.337
  127TIP3    H2  388   0.579   3.401   4.454
  128TIP3   OH2  389   6.153   2.504   1.135
  128TIP3    H1  390   6.245   2.517   1.111
  128TIP3    H2  391   6.104   2.539   1.061
  129TIP3   OH2  392   6.328   3.049   2.373
  129TIP3    H1  393   6.316   3.140   2.401
  129TIP3    H2  394   6.402   3.018   2.425
  130TIP3   OH2  395   5.316   3.549   1.811
  130TIP3    H1  396   5.284   3.459   1.809
  130TIP3    H2  397   5.327   3.572   1.718
  131TIP3   OH2  398   5.566   5.141   4.875
  131TIP3    H1  399   5.602   5.060   4.912
  131TIP3    H2  400   5.642   5.199   4.868
  132TIP3   OH2  401   4.532   1.221   0.145
  132TIP3    H1  402   4.501   1.157   0.081
  132TIP3    H2  403   4.606   1.178   0.188
  133TIP3   OH2  404   4.371   2.443   1.505
  133TIP3    H1  405   4.286   2.401   1.509
  133TIP3    H2  406   4.419   2.410   1.580
  134TIP3   OH2  407   6.115   0.745   3.903
  134TIP3    H1  408   6.043   0.807   3.894
  134TIP3    H2  409   6.073   0.659   3.907
  135TIP3   OH2  410   3.615   2.385   2.337
  135TIP3    H1  411   3.675   2.454   2.311
  135TIP3    H2  412   3.573   2.357   2.255
  136TIP3   OH2  413   0.249   5.515   0.395
  136TIP3    H1  414   0.271   5.599   0.435
  136TIP3    H2  415   0.279   5.522   0.305
  137TIP3   OH2  416   2.610   3.223   4.090
  137TIP3    H1  417   2.523   3.198   4.059
  137TIP3    H2  418   2.624   3.172   4.170
  138TIP3   OH2  419   1.302   3.440   0.084
  138TIP3    H1  420   1.359   3.371   0.051
  138TIP3    H2  421   1.282   3.415   0.174
  139TIP3   OH2  422   2.312   4.733   0.551
  139TIP3    H1  423   2.328   4.676   0.626
  139TIP3    H2  424   2.219   4.725   0.534
  140TIP3   OH2  425   6.233   1.123   1.987
  140TIP3    H1  426   6.268   1.211   1.975
  140TIP3    H2  427   6.268   1.073   1.913
  141TIP3   OH2  428   0.829   1.311   5.211
  141TIP3    H1  429   0.809   1.405   5.209
  141TIP3    H2  430   0.886   1.297   5.136
  142TIP3   OH2  431   3.075   2.427   3.969
  142TIP3    H1  432   3.010   2.360   3.948
  142TIP3    H2  433   3.039   2.508   3.933
  143TIP3   OH2  434   5.700   0.541   2.425
  143TIP3    H1  435   5.692   0.480   2.351
  143TIP3    H2  436   5.759   0.497   2.486
  144TIP3   OH2  437   3.937   4.494   1.709
  144TIP3    H1  438   3.850   4.514   1.744
  144TIP3    H2  439   3.972   4.578   1.680
  145TIP3   OH2  440   6.265   4.624   3.138
  145TIP3    H1  441   6.357   4.640   3.118
  145TIP3    H2  442   6.254   4.529   3.128
  146TIP3   OH2  443   3.260   4.386   2.052
  146TIP3    H1  444   3.296   4.311   2.100
  146TIP3    H2  445   3.272   4.362   1.960
  147TIP3   OH2  446   4.977   4.581   1.952
  147TIP3    H1  447   5.022   4.639   2.013
  147TIP3    H2  448   5.014   4.495   1.968
  148TIP3   OH2  449   0.224   1.494   2.143
  148TIP3    H1  450   0.228   1.555   2.216
  148TIP3    H2  451   0.187   1.414   2.179
  149TIP3   OH2  452   6.092   5.648   3.466
  149TIP3    H1  453   6.107   5.742   3.476
  149TIP3    H2  454   6.145   5.608   3.536
  150TIP3   OH2  455   1.186   4.580   0.184
  150TIP3    H1  456   1.238   4.641   0.236
  150TIP3    H2  457   1.112   4.632   0.152
  151TIP3   OH2  458   3.605   1.586   3.309
  151TIP3    H1  459   3.548   1.657   3.280
  151TIP3    H2  460   3.546   1.513   3.329
  152TIP3   OH2  461   1.866   3.408   4.078
  152TIP3    H1  462   1.889   3.384   4.167
  152TIP3    H2  463   1.858   3.503   4.080
  153TIP3   OH2  464   1.073   4.959   3.566
  153TIP3    H1  465   1.022   4.881   3.589
  153TIP3    H2  466   1.025   4.999   3.494
  154TIP3   OH2  467   6.256   4.337   3.477
  154TIP3    H1  468   6.351   4.334   3.482
  154TIP3    H2  469   6.227   4.258   3.522
  155TIP3   OH2  470   4.745   1.130   0.425
  155TIP3    H1  471   4.810   1.085   0.477
  155TIP3    H2  472   4.771   1.222   0.429
  156TIP3   OH2  473   4.147   1.758   3.776
  156TIP3    H1  474   4.200   1.679   3.791
  156TIP3    H2  475   4.211   1.825   3.752
  157TIP3   OH2  476   4.071   5.128   4.384
  157TIP3    H1  477   3.991   5.161   4.342
  157TIP3    H2  478   4.061   5.154   4.476
  158TIP3   OH2  479   0.798   3.799   3.649
  158TIP3    H1  480   0.770   3.798   3.741
  158TIP3    H2  481   0.887   3.835   3.651
  159TIP3   OH2  482   2.254   2.727   0.750
  159TIP3    H1  483   2.312   2.786   0.703
  159TIP3    H2  484   2.303   2.645   0.756
  160TIP3   OH2  485   4.362   0.407   3.401
  160TIP3    H1  486   4.324   0.480   3.449
  160TIP3    H2  487   4.364   0.436   3.310
  161TIP3   OH2  488   5.211   2.504   0.189
  161TIP3    H1  489   5.208   2.466   0.277
  161TIP3    H2  490   5.302   2.494   0.162
  162TIP3   OH2  491   2.463   0.507   0.605
  162TIP3    H1  492   2.441   0.595   0.575
  162TIP3    H2  493   2.547   0.517   0.651
  163TIP3   OH2  494   4.543   5.892   4.021
  163TIP3    H1  495   4.550   5.960   4.088
  163TIP3    H2  496   4.450   5.889   4.001
  164TIP3   OH2  497   6.122   1.052   2.917
  164TIP3    H1  498   6.196   1.111   2.908
  164TIP3    H2  499   6.118   1.004   2.834
  165TIP3   OH2  500   5.366   2.491   2.625
  165TIP3    H1  501   5.360   2.416   2.566
  165TIP3    H2  502   5.425   2.462   2.695
  166TIP3   OH2  503   2.019   1.982   4.951
  166TIP3    H1  504   2.089   2.030   4.907
  166TIP3    H2  505   2.065   1.921   5.009
  167TIP3   OH2  506   1.008   3.024   4.549
  167TIP3    H1  507   0.994   3.117   4.566
  167TIP3    H2  508   1.061   3.022   4.469
  168TIP3   OH2  509   3.884   4.783   4.225
  168TIP3    H1  510   3.887   4.868   4.180
  168TIP3    H2  511   3.791   4.770   4.244
  169TIP3   OH2  512   4.457   0.371   4.676
  169TIP3    H1  513   4.491   0.282   4.680
  169TIP3    H2  514   4.525   0.425   4.716
  170TIP3   OH2  515   2.202   0.562   0.153
  170TIP3    H1  516   2.265   0.538   0.220
  170TIP3    H2  517   2.118   0.568   0.200
  171TIP3   OH2  518   0.903   2.453   4.210
  171TIP3    H1  519   0.873   2.454   4.301
  171TIP3    H2  520   0.902   2.361   4.184
  172TIP3   OH2  521   2.902   0.961   1.249
  172TIP3    H1  522   2.896   1.022   1.176
  172TIP3    H2  523   2.813   0.958   1.284
  173TIP3   OH2  524   4.148   1.063   0.519
  173TIP3    H1  525   4.165   0.981   0.473
  173TIP3    H2  526   4.088   1.111   0.462
  174TIP3   OH2  527   1.183   4.313   0.330
  174TIP3    H1  528   1.159   4.403   0.309
  174TIP3    H2  529   1.100   4.265   0.329
  175TIP3   OH2  530   3.149   1.856   2.495
  175TIP3    H1  531   3.232   1.858   2.544
  175TIP3    H2  532   3.167   1.798   2.421
  176TIP3   OH2  533   1.749   0.181   1.697
  176TIP3    H1  534   1.697   0.262   1.694
  176TIP3    H2  535   1.789   0.182   1.784
  177TIP3   OH2  536   3.248   3.844   3.202
  177TIP3    H1  537   3.155   3.824   3.196
  177TIP3    H2  538   3.262   3.867   3.293
  178TIP3   OH2  539   1.945   3.985   2.431
  178TIP3    H1  540   1.973   4.000   2.521
  178TIP3    H2  541   2.005   3.918   2.399
  179TIP3   OH2  542   4.603   1.309   1.452
  179TIP3    H1  543   4.611   1.302   1.357
  179TIP3    H2  544   4.693   1.310   1.484
  180TIP3   OH2  545   1.040   1.391   5.013
  180TIP3    H1  546   1.116   1.346   5.050
  180TIP3    H2  547   1.052   1.482   5.040
  181TIP3   OH2  548   0.010   4.056   2.415
  181TIP3    H1  549   0.099   4.024   2.397
  181TIP3    H2  550   0.023   4.148   2.438
  182TIP3   OH2  551   4.733   4.962   0.637
  182TIP3    H1  552   4.656   4.977   0.581
  182TIP3    H2  553   4.796   4.920   0.579
  183TIP3   OH2  554   5.517   0.569   1.535
  183TIP3    H1  555   5.539   0.512   1.461
  183TIP3    H2  556   5.600   0.610   1.559
  184TIP3   OH2  557   2.504   2.199   2.386
  184TIP3    H1  558   2.423   2.151   2.371
  184TIP3    H2  559   2.497   2.277   2.330
  185TIP3   OH2  560   2.821   1.545   2.954
  185TIP3    H1  561   2.801   1.638   2.938
  185TIP3    H2  562   2.885   1.523   2.886
  186TIP3   OH2  563   5.395   0.458   1.759
  186TIP3    H1  564   5.393   0.476   1.665
  186TIP3    H2  565   5.383   0.544   1.800
  187TIP3   OH2  566   2.215   5.644   0.715
  187TIP3    H1  567   2.220   5.555   0.679
  187TIP3    H2  568   2.132   5.679   0.682
  188TIP3   OH2  569   3.342   3.092   0.692
  188TIP3    H1  570   3.294   3.024   0.645
  188TIP3    H2  571   3.277   3.131   0.751
  189TIP3   OH2  572   6.303   4.933   0.637
  189TIP3    H1  573   6.219   4.948   0.594
  189TIP3    H2  574   6.322   4.840   0.622
  190TIP3   OH2  575   4.372   1.829   2.415
  190TIP3    H1  576   4.392   1.921   2.434
  190TIP3    H2  577   4.441   1.780   2.461
  191TIP3   OH2  578   4.139   1.420   0.400
  191TIP3    H1  579   4.094   1.495   0.362
  191TIP3    H2  580   4.186   1.380   0.328
  192TIP3   OH2  581   4.632   4.067   1.859
  192TIP3    H1  582   4.700   4.129   1.832
  192TIP3    H2  583   4.679   3.986   1.879
  193TIP3   OH2  584   4.803   4.554   3.405
  193TIP3    H1  585   4.767   4.468   3.426
  193TIP3    H2  586   4.808   4.599   3.489
  194TIP3   OH2  587   2.512   3.256   2.949
  194TIP3    H1  588   2.563   3.334   2.972
  194TIP3    H2  589   2.429   3.266   2.995
  195TIP3   OH2  590   4.181   0.454   1.796
  195TIP3    H1  591   4.249   0.460   1.729
  195TIP3    H2  592   4.148   0.365   1.788
  196TIP3   OH2  593   0.805   1.884   1.756
  196TIP3    H1  594   0.832   1.870   1.665
  196TIP3    H2  595   0.888   1.890   1.804
  197TIP3   OH2  596   5.529   2.499   0.164
  197TIP3    H1  597   5.548   2.453   0.246
  197TIP3    H2  598   5.571   2.584   0.174
  198TIP3   OH2  599   2.306   2.945   4.598
  198TIP3    H1  600   2.265   2.999   4.530
  198TIP3    H2  601   2.397   2.973   4.600
  199TIP3   OH2  602   5.291   3.903   4.019
  199TIP3    H1  603   5.306   3.936   3.930
  199TIP3    H2  604   5.251   3.977   4.065
  200TIP3   OH2  605   5.830   0.033   2.645
  200TIP3    H1  606   5.793   0.112   2.683
  200TIP3    H2  607   5.812  -0.036   2.709
  201TIP3   OH2  608   2.739   1.838   0.191
  201TIP3    H1  609   2.739   1.933   0.179
  201TIP3    H2  610   2.824   1.810   0.158
  202TIP3   OH2  611   0.983   3.481   3.059
  202TIP3    H1  612   0.977   3.391   3.026
  202TIP3    H2  613   0.962   3.536   2.984
  203TIP3   OH2  614   0.451   5.265   4.298
  203TIP3    H1  615   0.527   5.269   4.241
  203TIP3    H2  616   0.379   5.298   4.244
  204TIP3   OH2  617   3.086   3.585   1.603
  204TIP3    H1  618   3.176   3.580   1.636
  204TIP3    H2  619   3.032   3.586   1.682
  205TIP3   OH2  620   1.698   0.684   1.181
  205TIP3    H1  621   1.652   0.749   1.129
  205TIP3    H2  622   1.637   0.661   1.251
  206TIP3   OH2  623   2.967   3.399   3.755
  206TIP3    H1  624   2.922   3.455   3.819
  206TIP3    H2  625   2.984   3.317   3.803
  207TIP3   OH2  626   6.014   4.017   3.766
  207TIP3    H1  627   6.053   4.101   3.790
  207TIP3    H2  628   6.034   3.959   3.839
  208TIP3   OH2  629   6.251   0.740   1.629
  208TIP3    H1  630   6.276   0.704   1.544
  208TIP3    H2  631   6.196   0.816   1.608
  209TIP3   OH2  632   0.630   2.101   1.771
  209TIP3    H1  633   0.602   2.118   1.681
  209TIP3    H2  634   0.704   2.041   1.762
  210TIP3   OH2  635   0.979   1.697   2.264
  210TIP3    H1  636   0.921   1.625   2.238
  210TIP3    H2  637   0.931   1.741   2.335
  211TIP3   OH2  638   6.299   4.960   0.183
  211TIP3    H1  639   6.355   5.008   0.122
  211TIP3    H2  640   6.212   4.961   0.143
  212TIP3   OH2  641   1.800   1.150   2.048
  212TIP3    H1  642   1.773   1.058   2.047
  212TIP3    H2  643   1.896   1.147   2.045
  213TIP3   OH2  644   2.971   1.944   5.005
  213TIP3    H1  645   2.888   1.970   4.964
  213TIP3    H2  646   3.005   1.874   4.950
  214TIP3   OH2  647   3.744   3.424   4.191
  214TIP3    H1  648   3.714   3.334   4.204
  214TIP3    H2  649   3.820   3.417   4.133
  215TIP3   OH2  650   0.751   3.508   1.317
  215TIP3    H1  651   0.785   3.465   1.238
  215TIP3    H2  652   0.803   3.588   1.325
  216TIP3   OH2  653   0.953   3.729   1.730
  216TIP3    H1  654   0.904   3.796   1.682
  216TIP3    H2  655   0.988   3.671   1.662
  217TIP3   OH2  656   5.425   1.806   0.697
  217TIP3    H1  657   5.389   1.812   0.786
  217TIP3    H2  658   5.396   1.721   0.665
  218TIP3   OH2  659   3.985   4.087   3.438
  218TIP3    H1  660   4.048   4.114   3.371
  218TIP3    H2  661   4.032   4.021   3.489
  219TIP3   OH2  662   0.303   1.007   3.922
  219TIP3    H1  663   0.280   1.050   4.004
  219TIP3    H2  664   0.219   0.995   3.878
  220TIP3   OH2  665   3.973   5.809   2.196
  220TIP3    H1  666   3.928   5.726   2.179
  220TIP3    H2  667   3.918   5.853   2.260
  221TIP3   OH2  668   2.783   0.615   3.984
  221TIP3    H1  669   2.726   0.539   3.972
  221TIP3    H2  670   2.813   0.608   4.075
  222TIP3   OH2  671   1.557   2.293   4.668
  222TIP3    H1  672   1.555   2.353   4.742
  222TIP3    H2  673   1.553   2.350   4.591
  223TIP3   OH2  674   3.307   3.398   1.937
  223TIP3    H1  675   3.345   3.312   1.917
  223TIP3    H2  676   3.332   3.414   2.028
  224TIP3   OH2  677   2.683   2.797   2.738
  224TIP3    H1  678   2.669   2.885   2.772
  224TIP3    H2  679   2.691   2.808   2.644
  225TIP3   OH2  680   1.231   5.199   2.513
  225TIP3    H1  681   1.243   5.209   2.607
  225TIP3    H2  682   1.226   5.105   2.499
  226TIP3   OH2  683   4.803   2.246   3.880
  226TIP3    H1  684   4.713   2.276   3.870
  226TIP3    H2  685   4.796   2.152   3.894
  227TIP3   OH2  686   4.644   3.777   3.497
  227TIP3    H1  687   4.706   3.850   3.491
  227TIP3    H2  688   4.662   3.738   3.583
  228TIP3   OH2  689   5.082   2.663   4.267
  228TIP3    H1  690   5.045   2.575   4.267
  228TIP3    H2  691   5.099   2.682   4.359
  229TIP3   OH2  692   1.838   1.233   1.400
  229TIP3    H1  693   1.800   1.269   1.320
  229TIP3    H2  694   1.931   1.226   1.381
  230TIP3   OH2  695   3.359   1.709   4.676
  230TIP3    H1  696   3.358   1.646   4.748
  230TIP3    H2  697   3.420   1.777   4.705
  231TIP3   OH2  698   5.270   4.470   1.709
  231TIP3    H1  699   5.240   4.380   1.720
  231TIP3    H2  700   5.327   4.467   1.632
  232TIP3   OH2  701   2.918   4.967   3.678
  232TIP3    H1  702   2.850   5.028   3.707
  232TIP3    H2  703   2.902   4.887   3.729
  233TIP3   OH2  704   5.601   3.189   4.074
  233TIP3    H1  705   5.513   3.167   4.042
  233TIP3    H2  706   5.661   3.151   4.010
  234TIP3   OH2  707   6.116   0.050   4.471
  234TIP3    H1  708   6.167  -0.031   4.463
  234TIP3    H2  709   6.069   0.040   4.554
  235TIP3   OH2  710   2.168   5.412   4.031
  235TIP3    H1  711   2.211   5.334   3.997
  235TIP3    H2  712   2.094   5.378   4.082
  236TIP3   OH2  713   3.170   5.276   3.486
  236TIP3    H1  714   3.232   5.212   3.522
  236TIP3    H2  715   3.129   5.316   3.563
  237TIP3   OH2  716   2.474   0.183   0.116
  237TIP3    H1  717   2.501   0.114   0.177
  237TIP3    H2  718   2.534   0.174   0.043
  238TIP3   OH2  719   3.768   4.017   1.743
  238TIP3    H1  720   3.861   3.997   1.753
  238TIP3    H2  721   3.731   4.003   1.830
  239TIP3   OH2  722   5.478   0.798   5.101
  239TIP3    H1  723   5.516   0.810   5.188
  239TIP3    H2  724   5.389   0.833   5.109
  240TIP3   OH2  725   2.261   0.429   1.921
  240TIP3    H1  726   2.343   0.467   1.888
  240TIP3    H2  727   2.193   0.467   1.865
  241TIP3   OH2  728   1.827   0.594   2.837
  241TIP3    H1  729   1.894   0.532   2.867
  241TIP3    H2  730   1.744   0.550   2.854
  242TIP3   OH2  731   2.995   4.065   4.414
  242TIP3    H1  732   3.009   3.970   4.408
  242TIP3    H2  733   2.900   4.075   4.416
  243TIP3   OH2  734   3.360   4.703   3.254
  243TIP3    H1  735   3.285   4.745   3.296
  243TIP3    H2  736   3.337   4.699   3.161
  244TIP3   OH2  737   2.919   0.292   2.943
  244TIP3    H1  738   2.858   0.226   2.978
  244TIP3    H2  739   2.996   0.241   2.916
  245TIP3   OH2  740   3.009   1.323   0.594
  245TIP3    H1  741   3.036   1.236   0.624
  245TIP3    H2  742   3.033   1.382   0.666
  246TIP3   OH2  743   2.783   0.181   4.173
  246TIP3    H1  744   2.719   0.110   4.183
  246TIP3    H2  745   2.791   0.219   4.260
  247TIP3   OH2  746   1.191   2.504   1.399
  247TIP3    H1  747   1.273   2.517   1.447
  247TIP3    H2  748   1.134   2.458   1.461
  248TIP3   OH2  749   2.098   4.087   3.738
  248TIP3    H1  750   2.092   4.171   3.693
  248TIP3    H2  751   2.058   4.025   3.677
  249TIP3   OH2  752   1.316   4.774   0.341
  249TIP3    H1  753   1.406   4.759   0.313
  249TIP3    H2  754   1.279   4.830   0.273
  250TIP3   OH2  755   2.633   4.603   3.850
  250TIP3    H1  756   2.614   4.557   3.768
  250TIP3    H2  757   2.587   4.687   3.841
  251TIP3   OH2  758   2.407   4.704   0.045
  251TIP3    H1  759   2.474   4.705  -0.023
  251TIP3    H2  760   2.359   4.786   0.033
  252TIP3   OH2  761   0.271   1.174   4.165
  252TIP3    H1  762   0.183   1.203   4.192
  252TIP3    H2  763   0.327   1.197   4.239
  253TIP3   OH2  764   5.876   2.502   2.470
  253TIP3    H1  765   5.918   2.573   2.517
  253TIP3    H2  766   5.944   2.469   2.411
  254TIP3   OH2  767   1.701   4.259   1.703
  254TIP3    H1  768   1.740   4.280   1.788
  254TIP3    H2  769   1.654   4.338   1.678
  255TIP3   OH2  770   3.131   2.188   3.619
  255TIP3    H1  771   3.178   2.238   3.686
  255TIP3    H2  772   3.196   2.172   3.551
  256TIP3   OH2  773   6.310   5.620   4.399
  256TIP3    H1  774   6.256   5.692   4.366
  256TIP3    H2  775   6.250   5.546   4.407
  257TIP3   OH2  776   0.693   3.580   3.129
  257TIP3    H1  777   0.742   3.622   3.060
  257TIP3    H2  778   0.754   3.518   3.168
  258TIP3   OH2  779   3.378   5.826   4.154
  258TIP3    H1  780   3.344   5.888   4.090
  258TIP3    H2  781   3.333   5.744   4.135
  259TIP3   OH2  782   1.244   3.216   3.279
  259TIP3    H1  783   1.316   3.255   3.230
  259TIP3    H2  784   1.285   3.146   3.331
  260TIP3   OH2  785   5.246   1.071   0.957
  260TIP3    H1  786   5.303   1.111   0.891
  260TIP3    H2  787   5.169   1.042   0.909
  261TIP3   OH2  788   3.407   3.486   2.919
  261TIP3    H1  789   3.479   3.427   2.899
  261TIP3    H2  790   3.438   3.539   2.992
  262TIP3   OH2  791   4.181   5.067   1.456
  262TIP3    H1  792   4.088   5.088   1.443
  262TIP3    H2  793   4.197   5.087   1.548
  263TIP3   OH2  794   2.311   0.267   4.783
  263TIP3    H1  795   2.372   0.197   4.808
  263TIP3    H2  796   2.230   0.222   4.760
  264TIP3   OH2  797   3.451   3.459   0.495
  264TIP3    H1  798   3.374   3.478   0.548
  264TIP3    H2  799   3.461   3.363   0.501
  265TIP3   OH2  800   3.275   1.654   0.498
  265TIP3    H1  801   3.312   1.592   0.436
  265TIP3    H2  802   3.188   1.675   0.462
  266TIP3   OH2  803   3.924   3.769   1.887
  266TIP3    H1  804   3.954   3.825   1.960
  266TIP3    H2  805   3.958   3.812   1.809
  267TIP3   OH2  806   0.022   0.765   2.025
  267TIP3    H1  807   0.069   0.849   2.027
  267TIP3    H2  808   0.027   0.732   2.115
  268TIP3   OH2  809   4.008   0.354   3.567
  268TIP3    H1  810   4.034   0.366   3.659
  268TIP3    H2  811   3.954   0.430   3.547
  269TIP3   OH2  812   6.166   0.542   4.884
  269TIP3    H1  813   6.153   0.449   4.902
  269TIP3    H2  814   6.111   0.559   4.807
  270TIP3   OH2  815   1.587   4.076   2.124
  270TIP3    H1  816   1.645   4.030   2.063
  270TIP3    H2  817   1.636   4.154   2.150
  271TIP3   OH2  818   5.853   2.896   4.700
  271TIP3    H1  819   5.799   2.931   4.771
  271TIP3    H2  820   5.791   2.882   4.628
  272TIP3   OH2  821   6.123   2.268   4.749
  272TIP3    H1  822   6.127   2.243   4.656
  272TIP3    H2  823   6.209   2.247   4.784
  273TIP3   OH2  824   2.388   2.415   2.519
  273TIP3    H1  825   2.453   2.458   2.574
  273TIP3    H2  826   2.423   2.327   2.503
  274TIP3   OH2  827   6.067   1.190   1.415
  274TIP3    H1  828   6.056   1.249   1.490
  274TIP3    H2  829   6.022   1.234   1.343
  275TIP3   OH2  830   4.631   3.814   2.560
  275TIP3    H1  831   4.663   3.760   2.487
  275TIP3    H2  832   4.566   3.759   2.604
  276TIP3   OH2  833   5.921   5.449   3.733
  276TIP3    H1  834   5.976   5.373   3.749
  276TIP3    H2  835   5.944   5.511   3.802
  277TIP3   OH2  836   1.849   0.384   4.197
  277TIP3    H1  837   1.854   0.437   4.277
  277TIP3    H2  838   1.763   0.343   4.201
  278TIP3   OH2  839   3.017   1.082   3.974
  278TIP3    H1  840   2.950   1.051   3.914
  278TIP3    H2  841   3.051   1.161   3.933
  279TIP3   OH2  842   4.082   2.457   2.861
  279TIP3    H1  843   4.042   2.523   2.918
  279TIP3    H2  844   4.164   2.498   2.832
  280TIP3   OH2  845   6.297   1.665   1.630
  280TIP3    H1  846   6.213   1.663   1.676
  280TIP3    H2  847   6.276   1.704   1.545
  281TIP3   OH2  848   2.472   4.378   2.159
  281TIP3    H1  849   2.460   4.455   2.103
  281TIP3    H2  850   2.488   4.306   2.098
  282TIP3   OH2  851   0.988   2.968   1.708
  282TIP3    H1  852   0.928   2.990   1.637
  282TIP3    H2  853   0.938   2.986   1.788
  283TIP3   OH2  854   4.633   4.465   1.290
  283TIP3    H1  855   4.556   4.486   1.238
  283TIP3    H2  856   4.699   4.529   1.262
  284TIP3   OH2  857   1.389   5.402   1.883
  284TIP3    H1  858   1.338   5.427   1.960
  284TIP3    H2  859   1.337   5.431   1.809
  285TIP3   OH2  860   5.574   1.599   2.162
  285TIP3    H1  861   5.544   1.534   2.225
  285TIP3    H2  862   5.636   1.654   2.210
  286TIP3   OH2  863   4.754   2.750   5.188
  286TIP3    H1  864   4.738   2.804   5.111
  286TIP3    H2  865   4.766   2.662   5.153
  287TIP3   OH2  866   2.743   0.062   0.913
  287TIP3    H1  867   2.698   0.065   0.828
  287TIP3    H2  868   2.817   0.122   0.903
  288TIP3   OH2  869   1.052   0.244   4.315
  288TIP3    H1  870   0.981   0.284   4.364
  288TIP3    H2  871   1.021   0.241   4.224
  289TIP3   OH2  872   1.673   1.288   2.808
  289TIP3    H1  873   1.719   1.205   2.798
  289TIP3    H2  874   1.594   1.279   2.754
  290TIP3   OH2  875   0.911   1.178   2.005
  290TIP3    H1  876   0.975   1.169   1.935
  290TIP3    H2  877   0.835   1.218   1.963
  291TIP3   OH2  878   1.548   3.194   1.665
  291TIP3    H1  879   1.542   3.175   1.758
  291TIP3    H2  880   1.500   3.276   1.653
  292TIP3   OH2  881   1.196   1.951   0.963
  292TIP3    H1  882   1.240   2.028   0.929
  292TIP3    H2  883   1.135   1.984   1.029
  293TIP3   OH2  884   4.350   3.821   4.200
  293TIP3    H1  885   4.331   3.834   4.107
  293TIP3    H2  886   4.273   3.857   4.245
  294TIP3   OH2  887   5.968   1.434   4.450
  294TIP3    H1  888   5.948   1.401   4.362
  294TIP3    H2  889   5.883   1.438   4.494
  295TIP3   OH2  890   1.919   1.765   2.199
  295TIP3    H1  891   1.887   1.850   2.168
  295TIP3    H2  892   1.871   1.751   2.281
  296TIP3   OH2  893   6.242   2.113   3.429
  296TIP3    H1  894   6.186   2.101   3.505
  296TIP3    H2  895   6.220   2.040   3.371
  297TIP3   OH2  896   1.959   3.909   3.598
  297TIP3    H1  897   1.971   3.875   3.509
  297TIP3    H2  898   1.868   3.887   3.620
  298TIP3   OH2  899   2.529   3.928   1.358
  298TIP3    H1  900   2.475   4.006   1.351
  298TIP3    H2  901   2.548   3.903   1.268
  299TIP3   OH2  902   1.978   2.276   1.953
  299TIP3    H1  903   2.023   2.220   2.016
  299TIP3    H2  904   1.894   2.298   1.995
  300TIP3   OH2  905   2.762   4.578   4.410
  300TIP3    H1  906   2.791   4.615   4.493
  300TIP3    H2  907   2.788   4.486   4.414
  301TIP3   OH2  908   0.195   4.239   4.684
  301TIP3    H1  909   0.187   4.236   4.780
  301TIP3    H2  910   0.105   4.244   4.653
  302TIP3   OH2  911   4.567   4.945   0.414
  302TIP3    H1  912   4.546   4.870   0.470
  302TIP3    H2  913   4.499   4.945   0.347
  303TIP3   OH2  914   3.262   0.259   4.431
  303TIP3    H1  915   3.215   0.333   4.394
  303TIP3    H2  916   3.237   0.184   4.378
  304TIP3   OH2  917   6.271   2.724   3.371
  304TIP3    H1  918   6.359   2.700   3.343
  304TIP3    H2  919   6.257   2.675   3.452
  305TIP3   OH2  920   5.704   5.091   2.110
  305TIP3    H1  921   5.635   5.137   2.063
  305TIP3    H2  922   5.712   5.006   2.065
  306TIP3   OH2  923   3.142   1.822   1.926
  306TIP3    H1  924   3.193   1.876   1.866
  306TIP3    H2  925   3.207   1.770   1.974
  307TIP3   OH2  926   1.638   2.519   4.500
  307TIP3    H1  927   1.571   2.587   4.502
  307TIP3    H2  928   1.638   2.488   4.410
  308TIP3   OH2  929   0.779   2.230   0.905
  308TIP3    H1  930   0.873   2.235   0.917
  308TIP3    H2  931   0.761   2.137   0.893
  309TIP3   OH2  932   6.221   0.258   4.599
  309TIP3    H1  933   6.307   0.217   4.605
  309TIP3    H2  934   6.170   0.201   4.542
  310TIP3   OH2  935   0.119   5.660   3.809
  310TIP3    H1  936   0.053   5.715   3.768
  310TIP3    H2  937   0.124   5.690   3.899
  311TIP3   OH2  938   3.561   3.387   3.136
  311TIP3    H1  939   3.628   3.454   3.126
  311TIP3    H2  940   3.511   3.414   3.213
  312TIP3   OH2  941   5.244   0.638   0.906
  312TIP3    H1  942   5.293   0.569   0.951
  312TIP3    H2  943   5.293   0.718   0.925
  313TIP3   OH2  944   6.051   2.660   1.540
  313TIP3    H1  945   5.992   2.674   1.466
  313TIP3    H2  946   6.048   2.742   1.590
  314TIP3   OH2  947   2.611   5.276   4.521
  314TIP3    H1  948   2.632   5.363   4.487
  314TIP3    H2  949   2.574   5.294   4.608
  315TIP3   OH2  950   4.099   4.988   3.344
  315TIP3    H1  951   4.169   5.047   3.315
  315TIP3    H2  952   4.050   5.040   3.408
  316TIP3   OH2  953   6.135   0.328   2.149
  316TIP3    H1  954   6.157   0.324   2.243
  316TIP3    H2  955   6.061   0.389   2.145
  317TIP3   OH2  956   0.968   4.405   0.660
  317TIP3    H1  957   0.907   4.475   0.635
  317TIP3    H2  958   0.988   4.423   0.752
  318TIP3   OH2  959   1.383   0.186   3.061
  318TIP3    H1  960   1.451   0.245   3.093
  318TIP3    H2  961   1.418   0.098   3.074
  319TIP3   OH2  962   5.005   0.173   3.821
  319TIP3    H1  963   5.028   0.080   3.827
  319TIP3    H2  964   5.045   0.212   3.898
  320TIP3   OH2  965   2.360   4.506   5.084
  320TIP3    H1  966   2.351   4.577   5.147
  320TIP3    H2  967   2.435   4.531   5.030
  321TIP3   OH2  968   1.762   1.990   1.510
  321TIP3    H1  969   1.824   2.039   1.455
  321TIP3    H2  970   1.699   2.056   1.538
  322TIP3   OH2  971   4.511   3.873   0.100
  322TIP3    H1  972   4.554   3.820   0.167
  322TIP3    H2  973   4.426   3.896   0.139
  323TIP3   OH2  974   3.585   3.366   1.326
  323TIP3    H1  975   3.492   3.354   1.308
  323TIP3    H2  976   3.597   3.461   1.329
  324TIP3   OH2  977   3.520   1.102   4.724
  324TIP3    H1  978   3.440   1.072   4.680
  324TIP3    H2  979   3.511   1.197   4.728
  325TIP3   OH2  980   1.649   5.276   0.566
  325TIP3    H1  981   1.738   5.290   0.535
  325TIP3    H2  982   1.653   5.297   0.659
  326TIP3   OH2  983   6.018   3.325   2.617
  326TIP3    H1  984   6.052   3.414   2.603
  326TIP3    H2  985   6.085   3.282   2.670
  327TIP3   OH2  986   4.167   1.545   1.498
  327TIP3    H1  987   4.084   1.590   1.482
  327TIP3    H2  988   4.234   1.611   1.480
  328TIP3   OH2  989   5.757   3.851   1.021
  328TIP3    H1  990   5.808   3.875   1.098
  328TIP3    H2  991   5.806   3.778   0.982
  329TIP3   OH2  992   3.931   4.390   4.438
  329TIP3    H1  993   3.929   4.434   4.353
  329TIP3    H2  994   3.916   4.460   4.501
  330TIP3   OH2  995   3.528   5.491   4.821
  330TIP3    H1  996   3.537   5.496   4.726
  330TIP3    H2  997   3.612   5.522   4.855
  331TIP3   OH2  998   5.947   5.148   1.475
  331TIP3    H1  999   5.955   5.056   1.500
  331TIP3    H2 1000   5.905   5.147   1.389
  332TIP3   OH2 1001   6.121   3.439   0.686
  332TIP3    H1 1002   6.154   3.512   0.739
  332TIP3    H2 1003   6.108   3.368   0.749
  333TIP3   OH2 1004   2.093   1.886   4.455
  333TIP3    H1 1005   2.051   1.841   4.381
  333TIP3    H2 1006   2.130   1.816   4.508
  334TIP3   OH2 1007   4.388   1.042   1.397
  334TIP3    H1 1008   4.468   1.074   1.439
  334TIP3    H2 1009   4.361   0.967   1.449
  335TIP3   OH2 1010   1.255   1.592   4.794
  335TIP3    H1 1011   1.167   1.580   4.760
  335TIP3    H2 1012   1.249   1.567   4.886
  336TIP3   OH2 1013   1.720   3.506   1.775
  336TIP3    H1 1014   1.778   3.434   1.751
  336TIP3    H2 1015   1.642   3.493   1.722
  337TIP3   OH2 1016   0.198   0.602   1.919
  337TIP3    H1 1017   0.148   0.561   1.848
  337TIP3    H2 1018   0.137   0.666   1.957
  338TIP3   OH2 1019   5.075   4.189   4.610
  338TIP3    H1 1020   5.076   4.131   4.535
  338TIP3    H2 1021   4.982   4.205   4.627
  339TIP3   OH2 1022   1.984   3.469   3.363
  339TIP3    H1 1023   2.039   3.478   3.286
  339TIP3    H2 1024   2.043   3.438   3.432
  340TIP3   OH2 1025   2.229   1.218   4.985
  340TIP3    H1 1026   2.165   1.231   4.915
  340TIP3    H2 1027   2.285   1.148   4.953
  341TIP3   OH2 1028   4.988   4.487   5.075
  341TIP3    H1 1029   4.932   4.555   5.112
  341TIP3    H2 1030   5.061   4.535   5.037
  342TIP3   OH2 1031   0.074   3.749   1.532
  342TIP3    H1 1032   0.166   3.755   1.506
  342TIP3    H2 1033   0.075   3.770   1.625
  343TIP3   OH2 1034   5.275   5.779   1.814
  343TIP3    H1 1035   5.281   5.707   1.751
  343TIP3    H2 1036   5.208   5.751   1.876
  344TIP3   OH2 1037   0.220   5.602   1.641
  344TIP3    H1 1038   0.264   5.630   1.721
  344TIP3    H2 1039   0.263   5.520   1.617
  345TIP3   OH2 1040   2.199   5.309   2.150
  345TIP3    H1 1041   2.131   5.242   2.141
  345TIP3    H2 1042   2.163   5.386   2.107
  346TIP3   OH2 1043   1.875   5.046   0.572
  346TIP3    H1 1044   1.951   5.001   0.608
  346TIP3    H2 1045   1.813   4.976   0.552
  347TIP3   OH2 1046   0.873   2.771   4.585
  347TIP3    H1 1047   0.937   2.842   4.595
  347TIP3    H2 1048   0.809   2.787   4.655
  348TIP3   OH2 1049   0.474   3.780   2.195
  348TIP3    H1 1050   0.482   3.875   2.197
  348TIP3    H2 1051   0.559   3.748   2.223
  349TIP3   OH2 1052   3.136   4.961   5.221
  349TIP3    H1 1053   3.074   4.985   5.152
  349TIP3    H2 1054   3.162   5.044   5.261
  350TIP3   OH2 1055   5.410   1.198   0.767
  350TIP3    H1 1056   5.474   1.217   0.699
  350TIP3    H2 1057   5.377   1.283   0.794
  351TIP3   OH2 1058   4.974   5.181   5.093
  351TIP3    H1 1059   4.981   5.268   5.053
  351TIP3    H2 1060   5.001   5.195   5.184
  352TIP3   OH2 1061   2.072   1.527   4.892
  352TIP3    H1 1062   2.007   1.521   4.822
  352TIP3    H2 1063   2.074   1.439   4.931
  353TIP3   OH2 1064   3.798   5.023   4.376
  353TIP3    H1 1065   3.839   5.008   4.461
  353TIP3    H2 1066   3.731   4.955   4.370
  354TIP3   OH2 1067   3.869   2.656   0.125
  354TIP3    H1 1068   3.790   2.709   0.131
  354TIP3    H2 1069   3.920   2.679   0.202
  355TIP3   OH2 1070   1.991   5.324   0.247
  355TIP3    H1 1071   1.937   5.353   0.322
  355TIP3    H2 1072   2.047   5.399   0.228
  356TIP3   OH2 1073   1.737   5.958   4.734
  356TIP3    H1 1074   1.720   5.996   4.820
  356TIP3    H2 1075   1.654   5.965   4.687
  357TIP3   OH2 1076   1.722   0.592   0.725
  357TIP3    H1 1077   1.753   0.680   0.705
  357TIP3    H2 1078   1.764   0.570   0.808
  358TIP3   OH2 1079   3.927   0.825   2.633
  358TIP3    H1 1080   3.929   0.859   2.544
  358TIP3    H2 1081   3.897   0.899   2.687
  359TIP3   OH2 1082   0.626   0.429   0.926
  359TIP3    H1 1083   0.611   0.520   0.952
  359TIP3    H2 1084   0.566   0.378   0.981
  360TIP3   OH2 1085   5.908   0.219   2.996
  360TIP3    H1 1086   5.864   0.279   3.056
  360TIP3    H2 1087   5.983   0.268   2.964
  361TIP3   OH2 1088   5.386   5.016   3.398
  361TIP3    H1 1089   5.376   5.064   3.316
  361TIP3    H2 1090   5.474   5.038   3.429
  362TIP3   OH2 1091   1.708   1.515   0.979
  362TIP3    H1 1092   1.776   1.576   0.949
  362TIP3    H2 1093   1.629   1.542   0.932
  363TIP3   OH2 1094   3.857   2.414   3.580
  363TIP3    H1 1095   3.792   2.484   3.585
  363TIP3    H2 1096   3.865   2.382   3.670
  364TIP3   OH2 1097   0.186   1.491   1.585
  364TIP3    H1 1098   0.215   1.526   1.669
  364TIP3    H2 1099   0.091   1.502   1.585
  365TIP3   OH2 1100   4.216   2.255   0.487
  365TIP3    H1 1101   4.174   2.176   0.520
  365TIP3    H2 1102   4.161   2.283   0.413
  366TIP3   OH2 1103   0.075   0.639   4.889
  366TIP3    H1 1104   0.093   0.559   4.840
  366TIP3    H2 1105  -0.018   0.634   4.911
  367TIP3   OH2 1106   4.541   4.567   3.209
  367TIP3    H1 1107   4.465   4.600   3.257
  367TIP3    H2 1108   4.548   4.475   3.236
  368TIP3   OH2 1109   3.493   0.855   3.779
  368TIP3    H1 1110   3.448   0.815   3.705
  368TIP3    H2 1111   3.500   0.786   3.844
  369TIP3   OH2 1112   1.541   0.791   3.310
  369TIP3    H1 1113   1.554   0.750   3.225
  369TIP3    H2 1114   1.536   0.718   3.372
  370TIP3   OH2 1115   5.636   2.889   4.521
  370TIP3    H1 1116   5.547   2.866   4.492
  370TIP3    H2 1117   5.664   2.956   4.459
  371TIP3   OH2 1118   6.320   1.815   2.398
  371TIP3    H1 1119   6.251   1.870   2.435
  371TIP3    H2 1120   6.295   1.726   2.422
  372TIP3   OH2 1121   3.684   3.311   1.923
  372TIP3    H1 1122   3.779   3.303   1.930
  372TIP3    H2 1123   3.670   3.399   1.887
  373TIP3   OH2 1124   1.088   1.005   2.176
  373TIP3    H1 1125   1.101   0.914   2.150
  373TIP3    H2 1126   1.018   1.037   2.120
  374TIP3   OH2 1127   0.869   2.612   0.371
  374TIP3    H1 1128   0.883   2.643   0.460
  374TIP3    H2 1129   0.956   2.611   0.331
  375TIP3   OH2 1130   4.663   1.441   2.413
  375TIP3    H1 1131   4.751   1.438   2.377
  375TIP3    H2 1132   4.643   1.351   2.438
  376TIP3   OH2 1133   5.757   1.808   2.162
  376TIP3    H1 1134   5.794   1.751   2.095
  376TIP3    H2 1135   5.731   1.887   2.116
  377TIP3   OH2 1136   0.687   0.608   0.349
  377TIP3    H1 1137   0.651   0.682   0.398
  377TIP3    H2 1138   0.662   0.531   0.400
  378TIP3   OH2 1139   0.782   1.253   4.021
  378TIP3    H1 1140   0.693   1.268   4.053
  378TIP3    H2 1141   0.785   1.296   3.936
  379TIP3   OH2 1142   4.282   3.136  -0.017
  379TIP3    H1 1143   4.190   3.141  -0.040
  379TIP3    H2 1144   4.305   3.224   0.013
  380TIP3   OH2 1145   3.322   5.509   5.026
  380TIP3    H1 1146   3.305   5.604   5.025
  380TIP3    H2 1147   3.405   5.500   4.978
  381TIP3   OH2 1148   1.620   4.174   2.596
  381TIP3    H1 1149   1.561   4.219   2.656
  381TIP3    H2 1150   1.575   4.093   2.573
  382TIP3   OH2 1151   4.015   2.833   3.222
  382TIP3    H1 1152   3.985   2.783   3.298
  382TIP3    H2 1153   3.969   2.917   3.228
  383TIP3   OH2 1154   6.064   2.460   2.845
  383TIP3    H1 1155   6.047   2.548   2.879
  383TIP3    H2 1156   6.072   2.405   2.922
  384TIP3   OH2 1157   4.596   1.658   4.601
  384TIP3    H1 1158   4.640   1.577   4.573
  384TIP3    H2 1159   4.664   1.724   4.598
  385TIP3   OH2 1160   1.433   0.178   5.174
  385TIP3    H1 1161   1.401   0.149   5.088
  385TIP3    H2 1162   1.470   0.099   5.214
  386TIP3   OH2 1163   2.941   2.929   1.695
  386TIP3    H1 1164   2.925   2.992   1.624
  386TIP3    H2 1165   2.958   2.983   1.772
  387TIP3   OH2 1166   2.433   5.748   3.903
  387TIP3    H1 1167   2.500   5.765   3.837
  387TIP3    H2 1168   2.412   5.835   3.937
  388TIP3   OH2 1169   5.586   2.164   4.976
  388TIP3    H1 1170   5.533   2.174   5.054
  388TIP3    H2 1171   5.649   2.237   4.980
  389TIP3   OH2 1172   0.587   1.932   3.996
  389TIP3    H1 1173   0.608   1.880   3.919
  389TIP3    H2 1174   0.527   1.999   3.964
  390TIP3   OH2 1175   0.847   1.497   3.038
  390TIP3    H1 1176   0.844   1.438   2.963
  390TIP3    H2 1177   0.781   1.463   3.098
  391TIP3   OH2 1178   0.502   1.702   0.152
  391TIP3    H1 1179   0.494   1.607   0.153
  391TIP3    H2 1180   0.545   1.723   0.235
  392TIP3   OH2 1181   5.706   4.067   5.012
  392TIP3    H1 1182   5.704   4.112   4.928
  392TIP3    H2 1183   5.620   4.027   5.020
  393TIP3   OH2 1184   3.077   3.999   2.489
  393TIP3    H1 1185   3.111   4.036   2.407
  393TIP3    H2 1186   2.985   3.981   2.470
  394TIP3   OH2 1187   5.158   4.032   0.817
  394TIP3    H1 1188   5.145   4.103   0.880
  394TIP3    H2 1189   5.195   4.076   0.740
  395TIP3   OH2 1190   2.084   3.016   1.330
  395TIP3    H1 1191   2.159   3.075   1.320
  395TIP3    H2 1192   2.007   3.072   1.323
  396TIP3   OH2 1193   1.396   5.947   4.916
  396TIP3    H1 1194   1.376   5.862   4.875
  396TIP3    H2 1195   1.488   5.941   4.939
  397TIP3   OH2 1196   6.114   2.046   0.034
  397TIP3    H1 1197   6.169   2.119   0.007
  397TIP3    H2 1198   6.045   2.085   0.087
  398TIP3   OH2 1199   4.768   3.582   3.160
  398TIP3    H1 1200   4.840   3.555   3.218
  398TIP3    H2 1201   4.711   3.634   3.217
  399TIP3   OH2 1202   2.773   0.558   3.550
  399TIP3    H1 1203   2.856   0.512   3.541
  399TIP3    H2 1204   2.753   0.589   3.461
  400TIP3   OH2 1205   5.933   1.634   0.662
  400TIP3    H1 1206   5.842   1.659   0.642
  400TIP3    H2 1207   5.933   1.538   0.661
  401TIP3   OH2 1208   4.043   5.162   2.976
  401TIP3    H1 1209   4.029   5.088   3.035
  401TIP3    H2 1210   4.000   5.136   2.894
  402TIP3   OH2 1211   3.517   0.478   1.785
  402TIP3    H1 1212   3.524   0.476   1.880
  402TIP3    H2 1213   3.606   0.460   1.754
  403TIP3   OH2 1214   3.271   2.041   3.016
  403TIP3    H1 1215   3.263   2.135   3.006
  403TIP3    H2 1216   3.349   2.029   3.071
  404TIP3   OH2 1217   6.100   5.645   3.181
  404TIP3    H1 1218   6.009   5.652   3.151
  404TIP3    H2 1219   6.093   5.633   3.276
  405TIP3   OH2 1220   1.997   4.806   1.567
  405TIP3    H1 1221   2.022   4.733   1.512
  405TIP3    H2 1222   1.902   4.797   1.577
  406TIP3   OH2 1223   1.171   2.212   1.399
  406TIP3    H1 1224   1.076   2.202   1.407
  406TIP3    H2 1225   1.206   2.133   1.440
  407TIP3   OH2 1226   1.561   2.742   1.757
  407TIP3    H1 1227   1.607   2.736   1.841
  407TIP3    H2 1228   1.623   2.787   1.699
  408TIP3   OH2 1229   3.702   5.882   4.154
  408TIP3    H1 1230   3.762   5.808   4.145
  408TIP3    H2 1231   3.651   5.862   4.233
  409TIP3   OH2 1232   1.717   3.115   4.811
  409TIP3    H1 1233   1.765   3.101   4.893
  409TIP3    H2 1234   1.758   3.055   4.749
  410TIP3   OH2 1235   0.209   5.067   5.016
  410TIP3    H1 1236   0.221   5.073   4.921
  410TIP3    H2 1237   0.126   5.111   5.033
  411TIP3   OH2 1238   3.290   0.787   5.187
  411TIP3    H1 1239   3.333   0.853   5.243
  411TIP3    H2 1240   3.256   0.837   5.113
  412TIP3   OH2 1241   4.905   5.872   4.817
  412TIP3    H1 1242   4.977   5.933   4.833
  412TIP3    H2 1243   4.943   5.805   4.760
  413TIP3   OH2 1244   2.972   4.515   3.002
  413TIP3    H1 1245   3.064   4.537   2.997
  413TIP3    H2 1246   2.958   4.455   2.928
  414TIP3   OH2 1247   1.958   1.921   0.663
  414TIP3    H1 1248   2.011   1.991   0.624
  414TIP3    H2 1249   1.879   1.919   0.609
  415TIP3   OH2 1250   2.138   3.105   0.931
  415TIP3    H1 1251   2.149   3.200   0.936
  415TIP3    H2 1252   2.059   3.087   0.982
  416TIP3   OH2 1253   1.731   2.360   0.937
  416TIP3    H1 1254   1.643   2.335   0.911
  416TIP3    H2 1255   1.773   2.391   0.857
  417TIP3   OH2 1256   5.866   3.572   4.422
  417TIP3    H1 1257   5.933   3.636   4.447
  417TIP3    H2 1258   5.846   3.526   4.503
  418TIP3   OH2 1259   4.243   2.188   1.345
  418TIP3    H1 1260   4.300   2.146   1.409
  418TIP3    H2 1261   4.156   2.186   1.385
  419TIP3   OH2 1262   4.940   2.040   1.271
  419TIP3    H1 1263   4.899   1.992   1.200
  419TIP3    H2 1264   4.925   1.986   1.349
  420TIP3   OH2 1265   3.921   3.344   2.339
  420TIP3    H1 1266   4.010   3.313   2.357
  420TIP3    H2 1267   3.931   3.398   2.260
  421TIP3   OH2 1268   1.421   2.910   3.834
  421TIP3    H1 1269   1.334   2.881   3.806
  421TIP3    H2 1270   1.464   2.937   3.754
  422TIP3   OH2 1271   4.178   4.641   4.604
  422TIP3    H1 1272   4.146   4.703   4.538
  422TIP3    H2 1273   4.270   4.626   4.580
  423TIP3   OH2 1274   0.052   5.276   5.111
  423TIP3    H1 1275   0.056   5.245   5.202
  423TIP3    H2 1276   0.144   5.287   5.085
  424TIP3   OH2 1277   1.436   5.382   5.059
  424TIP3    H1 1278   1.442   5.306   5.002
  424TIP3    H2 1279   1.397   5.349   5.140
  425TIP3   OH2 1280   3.102   1.584   3.936
  425TIP3    H1 1281   3.088   1.625   3.850
  425TIP3    H2 1282   3.161   1.511   3.919
  426TIP3   OH2 1283   3.173   1.916   1.108
  426TIP3    H1 1284   3.110   1.879   1.047
  426TIP3    H2 1285   3.196   1.843   1.166
  427TIP3   OH2 1286   5.727   4.760   2.841
  427TIP3    H1 1287   5.770   4.699   2.900
  427TIP3    H2 1288   5.685   4.704   2.775
  428TIP3   OH2 1289   1.460   3.980   0.992
  428TIP3    H1 1290   1.395   3.991   1.061
  428TIP3    H2 1291   1.426   3.908   0.939
  429TIP3   OH2 1292   5.512   4.291   3.889
  429TIP3    H1 1293   5.482   4.201   3.874
  429TIP3    H2 1294   5.593   4.280   3.939
  430TIP3   OH2 1295   3.578   4.089   4.966
  430TIP3    H1 1296   3.579   4.025   4.895
  430TIP3    H2 1297   3.589   4.036   5.046
  431TIP3   OH2 1298   5.516   2.719   4.262
  431TIP3    H1 1299   5.559   2.803   4.245
  431TIP3    H2 1300   5.589   2.657   4.272
  432TIP3   OH2 1301   2.845   3.412   2.821
  432TIP3    H1 1302   2.926   3.401   2.872
  432TIP3    H2 1303   2.785   3.455   2.882
  433TIP3   OH2 1304   0.896   1.916   2.623
  433TIP3    H1 1305   0.835   1.988   2.639
  433TIP3    H2 1306   0.891   1.902   2.528
  434TIP3   OH2 1307   3.990   5.984   0.079
  434TIP3    H1 1308   3.995   5.905   0.133
  434TIP3    H2 1309   4.058   6.041   0.114
  435TIP3   OH2 1310   5.700   0.725   4.411
  435TIP3    H1 1311   5.676   0.645   4.364
  435TIP3    H2 1312   5.723   0.787   4.341
  436TIP3   OH2 1313   4.391   3.934   1.807
  436TIP3    H1 1314   4.469   3.988   1.793
  436TIP3    H2 1315   4.425   3.848   1.832
  437TIP3   OH2 1316   4.613   0.433   1.450
  437TIP3    H1 1317   4.585   0.342   1.462
  437TIP3    H2 1318   4.667   0.431   1.371
  438TIP3   OH2 1319   4.785   2.766   4.261
  438TIP3    H1 1320   4.821   2.692   4.309
  438TIP3    H2 1321   4.760   2.829   4.328
  439TIP3   OH2 1322   0.453   5.379   1.880
  439TIP3    H1 1323   0.381   5.363   1.942
  439TIP3    H2 1324   0.505   5.298   1.883
  440TIP3   OH2 1325   6.311   5.636   2.365
  440TIP3    H1 1326   6.225   5.600   2.345
  440TIP3    H2 1327   6.294   5.712   2.420
  441TIP3   OH2 1328   3.270   0.455   4.235
  441TIP3    H1 1329   3.303   0.396   4.167
  441TIP3    H2 1330   3.182   0.479   4.205
  442TIP3   OH2 1331   6.329   3.081   5.140
  442TIP3    H1 1332   6.393   3.151   5.154
  442TIP3    H2 1333   6.253   3.125   5.102
  443TIP3   OH2 1334   3.231   0.246   0.864
  443TIP3    H1 1335   3.270   0.330   0.885
  443TIP3    H2 1336   3.286   0.182   0.909
  444TIP3   OH2 1337   3.885   1.252   0.652
  444TIP3    H1 1338   3.966   1.281   0.610
  444TIP3    H2 1339   3.913   1.215   0.735
  445TIP3   OH2 1340   6.035   3.609   0.094
  445TIP3    H1 1341   6.070   3.666   0.026
  445TIP3    H2 1342   5.940   3.616   0.085
  446TIP3   OH2 1343   2.535   2.878   1.702
  446TIP3    H1 1344   2.487   2.917   1.630
  446TIP3    H2 1345   2.538   2.946   1.769
  447TIP3   OH2 1346   4.384   5.059   2.005
  447TIP3    H1 1347   4.478   5.055   2.023
  447TIP3    H2 1348   4.367   4.981   1.952
  448TIP3   OH2 1349   3.739   3.579   3.072
  448TIP3    H1 1350   3.828   3.550   3.054
  448TIP3    H2 1351   3.748   3.673   3.089
  449TIP3   OH2 1352   5.386   5.736   2.669
  449TIP3    H1 1353   5.315   5.798   2.686
  449TIP3    H2 1354   5.460   5.771   2.719
  450TIP3   OH2 1355   6.030   5.223   0.621
  450TIP3    H1 1356   5.942   5.207   0.654
  450TIP3    H2 1357   6.077   5.260   0.696
  451TIP3   OH2 1358   4.539   2.893   2.494
  451TIP3    H1 1359   4.489   2.857   2.420
  451TIP3    H2 1360   4.588   2.965   2.456
  452TIP3   OH2 1361   3.650   0.352   1.415
  452TIP3    H1 1362   3.713   0.281   1.427
  452TIP3    H2 1363   3.692   0.429   1.454
  453TIP3   OH2 1364   5.011   3.412   1.500
  453TIP3    H1 1365   4.998   3.504   1.476
  453TIP3    H2 1366   4.923   3.380   1.520
  454TIP3   OH2 1367   3.969   5.915   0.789
  454TIP3    H1 1368   3.919   5.853   0.842
  454TIP3    H2 1369   3.958   5.884   0.699
  455TIP3   OH2 1370   0.925   3.225   3.637
  455TIP3    H1 1371   0.897   3.277   3.713
  455TIP3    H2 1372   0.893   3.274   3.562
  456TIP3   OH2 1373   3.620   5.342   3.704
  456TIP3    H1 1374   3.561   5.418   3.703
  456TIP3    H2 1375   3.638   5.325   3.612
  457TIP3   OH2 1376   2.332   1.049   4.817
  457TIP3    H1 1377   2.414   1.007   4.791
  457TIP3    H2 1378   2.272   0.975   4.833
  458TIP3   OH2 1379   2.272   4.992   3.194
  458TIP3    H1 1380   2.225   4.956   3.270
  458TIP3    H2 1381   2.213   5.059   3.159
  459TIP3   OH2 1382   3.445   4.921   3.622
  459TIP3    H1 1383   3.409   4.847   3.671
  459TIP3    H2 1384   3.516   4.954   3.676
  460TIP3   OH2 1385   5.791   1.181   2.206
  460TIP3    H1 1386   5.717   1.122   2.216
  460TIP3    H2 1387   5.843   1.143   2.135
  461TIP3   OH2 1388   1.279   1.860   4.396
  461TIP3    H1 1389   1.324   1.784   4.434
  461TIP3    H2 1390   1.346   1.928   4.392
  462TIP3   OH2 1391   3.557   0.674   4.975
  462TIP3    H1 1392   3.492   0.711   4.915
  462TIP3    H2 1393   3.553   0.580   4.960
  463TIP3   OH2 1394   1.056   2.352   0.693
  463TIP3    H1 1395   1.119   2.282   0.675
  463TIP3    H2 1396   1.105   2.415   0.745
  464TIP3   OH2 1397   0.999   2.559   5.187
  464TIP3    H1 1398   0.941   2.632   5.212
  464TIP3    H2 1399   1.024   2.578   5.097
  465TIP3   OH2 1400   0.870   1.041   1.344
  465TIP3    H1 1401   0.929   1.106   1.381
  465TIP3    H2 1402   0.842   1.078   1.261
  466TIP3   OH2 1403   3.463   3.104   1.312
  466TIP3    H1 1404   3.459   3.008   1.314
  466TIP3    H2 1405   3.526   3.125   1.243
  467TIP3   OH2 1406   4.044   4.363   0.429
  467TIP3    H1 1407   4.084   4.296   0.373
  467TIP3    H2 1408   3.952   4.365   0.402
  468TIP3   OH2 1409   2.813   3.207   0.766
  468TIP3    H1 1410   2.732   3.217   0.816
  468TIP3    H2 1411   2.821   3.112   0.754
  469TIP3   OH2 1412   2.642   1.230   0.763
  469TIP3    H1 1413   2.714   1.169   0.749
  469TIP3    H2 1414   2.563   1.181   0.739
  470TIP3   OH2 1415   0.132   0.159   0.852
  470TIP3    H1 1416   0.212   0.125   0.812
  470TIP3    H2 1417   0.115   0.241   0.807
  471TIP3   OH2 1418   4.377   4.297   4.894
  471TIP3    H1 1419   4.352   4.208   4.867
  471TIP3    H2 1420   4.313   4.354   4.850
  472TIP3   OH2 1421   2.326   3.585   0.126
  472TIP3    H1 1422   2.394   3.644   0.095
  472TIP3    H2 1423   2.244   3.622   0.093
  473TIP3   OH2 1424   2.957   5.328   1.828
  473TIP3    H1 1425   2.971   5.377   1.909
  473TIP3    H2 1426   3.007   5.375   1.762
  474TIP3   OH2 1427   5.503   5.459   4.156
  474TIP3    H1 1428   5.472   5.530   4.212
  474TIP3    H2 1429   5.477   5.379   4.201
  475TIP3   OH2 1430   0.003   1.506   5.112
  475TIP3    H1 1431  -0.040   1.442   5.056
  475TIP3    H2 1432   0.060   1.454   5.169
  476TIP3   OH2 1433   3.561   4.849   0.332
  476TIP3    H1 1434   3.541   4.861   0.424
  476TIP3    H2 1435   3.492   4.896   0.285
  477TIP3   OH2 1436   2.730   0.598   4.656
  477TIP3    H1 1437   2.725   0.683   4.612
  477TIP3    H2 1438   2.805   0.606   4.715
  478TIP3   OH2 1439   2.118   3.201   2.823
  478TIP3    H1 1440   2.145   3.259   2.894
  478TIP3    H2 1441   2.199   3.157   2.797
  479TIP3   OH2 1442   3.608   3.711   2.759
  479TIP3    H1 1443   3.614   3.620   2.788
  479TIP3    H2 1444   3.671   3.718   2.687
  480TIP3   OH2 1445   3.815   3.519   0.650
  480TIP3    H1 1446   3.869   3.511   0.728
  480TIP3    H2 1447   3.745   3.579   0.675
  481TIP3   OH2 1448   1.751   5.210   3.369
  481TIP3    H1 1449   1.801   5.195   3.289
  481TIP3    H2 1450   1.764   5.303   3.388
  482TIP3   OH2 1451   2.393   2.726   4.045
  482TIP3    H1 1452   2.354   2.751   3.961
  482TIP3    H2 1453   2.321   2.685   4.093
  483TIP3   OH2 1454   1.709   1.883   3.622
  483TIP3    H1 1455   1.681   1.926   3.541
  483TIP3    H2 1456   1.687   1.946   3.691
  484TIP3   OH2 1457   6.318   3.583   3.253
  484TIP3    H1 1458   6.352   3.614   3.169
  484TIP3    H2 1459   6.281   3.662   3.294
  485TIP3   OH2 1460   0.507   0.455   3.878
  485TIP3    H1 1461   0.445   0.502   3.934
  485TIP3    H2 1462   0.468   0.460   3.790
  486TIP3   OH2 1463   2.969   4.692   1.277
  486TIP3    H1 1464   3.043   4.680   1.337
  486TIP3    H2 1465   2.951   4.786   1.279
  487TIP3   OH2 1466   4.172   2.044   2.959
  487TIP3    H1 1467   4.083   2.062   2.930
  487TIP3    H2 1468   4.221   2.123   2.938
  488TIP3   OH2 1469   1.501   3.766   2.157
  488TIP3    H1 1470   1.565   3.792   2.222
  488TIP3    H2 1471   1.550   3.761   2.075
  489TIP3   OH2 1472   0.388   2.163   2.390
  489TIP3    H1 1473   0.360   2.223   2.322
  489TIP3    H2 1474   0.354   2.078   2.362
  490TIP3   OH2 1475   1.696   4.719   0.740
  490TIP3    H1 1476   1.719   4.628   0.727
  490TIP3    H2 1477   1.759   4.752   0.804
  491TIP3   OH2 1478   2.062   1.303   0.733
  491TIP3    H1 1479   1.999   1.233   0.713
  491TIP3    H2 1480   2.021   1.382   0.697
  492TIP3   OH2 1481   0.279   4.266   2.851
  492TIP3    H1 1482   0.231   4.197   2.804
  492TIP3    H2 1483   0.250   4.258   2.942
  493TIP3   OH2 1484   2.153   5.237   1.866
  493TIP3    H1 1485   2.101   5.157   1.870
  493TIP3    H2 1486   2.098   5.304   1.907
  494TIP3   OH2 1487   5.259   1.249   3.705
  494TIP3    H1 1488   5.331   1.245   3.643
  494TIP3    H2 1489   5.301   1.260   3.790
  495TIP3   OH2 1490   5.336   3.992   1.098
  495TIP3    H1 1491   5.289   4.056   1.044
  495TIP3    H2 1492   5.402   3.955   1.040
  496TIP3   OH2 1493   1.220   2.371   4.901
  496TIP3    H1 1494   1.155   2.440   4.890
  496TIP3    H2 1495   1.303   2.413   4.879
  497TIP3   OH2 1496   3.496   0.076   2.098
  497TIP3    H1 1497   3.549   0.005   2.063
  497TIP3    H2 1498   3.414   0.034   2.126
  498TIP3   OH2 1499   2.246   2.333   2.245
  498TIP3    H1 1500   2.294   2.370   2.171
  498TIP3    H2 1501   2.239   2.240   2.226
  499TIP3   OH2 1502   5.244   0.948   2.464
  499TIP3    H1 1503   5.163   0.952   2.515
  499TIP3    H2 1504   5.292   0.873   2.501
  500TIP3   OH2 1505   5.897   5.324   2.169
  500TIP3    H1 1506   5.831   5.257   2.183
  500TIP3    H2 1507   5.848   5.405   2.156
  501TIP3   OH2 1508   2.641   4.196   3.089
  501TIP3    H1 1509   2.704   4.153   3.147
  501TIP3    H2 1510   2.573   4.130   3.074
  502TIP3   OH2 1511   3.341   3.173   2.464
  502TIP3    H1 1512   3.333   3.081   2.439
  502TIP3    H2 1513   3.312   3.175   2.555
  503TIP3   OH2 1514   2.595   2.130   0.643
  503TIP3    H1 1515   2.568   2.083   0.722
  503TIP3    H2 1516   2.619   2.217   0.675
  504TIP3   OH2 1517   4.745   2.765   4.552
  504TIP3    H1 1518   4.774   2.688   4.600
  504TIP3    H2 1519   4.649   2.763   4.560
  505TIP3   OH2 1520   2.589   3.311   2.687
  505TIP3    H1 1521   2.550   3.269   2.764
  505TIP3    H2 1522   2.669   3.352   2.720
  506TIP3   OH2 1523   6.066   0.180   1.389
  506TIP3    H1 1524   6.064   0.127   1.309
  506TIP3    H2 1525   6.062   0.270   1.358
  507TIP3   OH2 1526   4.822   1.492   3.969
  507TIP3    H1 1527   4.886   1.502   3.899
  507TIP3    H2 1528   4.753   1.555   3.949
  508TIP3   OH2 1529   2.283   2.062   3.136
  508TIP3    H1 1530   2.215   2.011   3.181
  508TIP3    H2 1531   2.365   2.026   3.169
  509TIP3   OH2 1532   4.653   3.668   0.266
  509TIP3    H1 1533   4.625   3.679   0.357
  509TIP3    H2 1534   4.642   3.574   0.249
  510TIP3   OH2 1535   2.443   3.546   0.388
  510TIP3    H1 1536   2.409   3.530   0.300
  510TIP3    H2 1537   2.395   3.622   0.419
  511TIP3   OH2 1538   3.710   3.738   4.973
  511TIP3    H1 1539   3.709   3.711   5.065
  511TIP3    H2 1540   3.779   3.804   4.968
  512TIP3   OH2 1541   2.932   5.049   1.869
  512TIP3    H1 1542   2.920   5.144   1.873
  512TIP3    H2 1543   2.935   5.021   1.961
  513TIP3   OH2 1544   2.626   0.060   3.320
  513TIP3    H1 1545   2.559   0.124   3.344
  513TIP3    H2 1546   2.609  -0.016   3.376
  514TIP3   OH2 1547   1.263   3.885   2.217
  514TIP3    H1 1548   1.216   3.896   2.134
  514TIP3    H2 1549   1.348   3.848   2.192
  515TIP3   OH2 1550   4.680   4.758   2.202
  515TIP3    H1 1551   4.764   4.738   2.245
  515TIP3    H2 1552   4.704   4.793   2.117
  516TIP3   OH2 1553   5.874   5.800   0.942
  516TIP3    H1 1554   5.850   5.814   1.034
  516TIP3    H2 1555   5.855   5.708   0.926
  517TIP3   OH2 1556   0.930   5.457   2.869
  517TIP3    H1 1557   0.962   5.536   2.826
  517TIP3    H2 1558   0.994   5.439   2.938
  518TIP3   OH2 1559   0.013   1.170   2.957
  518TIP3    H1 1560   0.037   1.210   3.041
  518TIP3    H2 1561   0.068   1.092   2.952
  519TIP3   OH2 1562   5.176   3.736   4.807
  519TIP3    H1 1563   5.091   3.768   4.778
  519TIP3    H2 1564   5.239   3.792   4.763
  520TIP3   OH2 1565   6.270   1.618   1.348
  520TIP3    H1 1566   6.277   1.523   1.349
  520TIP3    H2 1567   6.218   1.638   1.270
  521TIP3   OH2 1568   0.567   0.847   1.224
  521TIP3    H1 1569   0.502   0.853   1.294
  521TIP3    H2 1570   0.620   0.770   1.248
  522TIP3   OH2 1571   2.268   2.568   3.783
  522TIP3    H1 1572   2.296   2.492   3.732
  522TIP3    H2 1573   2.179   2.547   3.811
  523TIP3   OH2 1574   1.598   1.159   4.486
  523TIP3    H1 1575   1.554   1.175   4.403
  523TIP3    H2 1576   1.528   1.151   4.550
  524TIP3   OH2 1577   0.305   4.348   0.271
  524TIP3    H1 1578   0.347   4.433   0.278
  524TIP3    H2 1579   0.246   4.356   0.196
  525TIP3   OH2 1580   4.819   0.485   1.265
  525TIP3    H1 1581   4.876   0.538   1.210
  525TIP3    H2 1582   4.834   0.395   1.236
  526TIP3   OH2 1583   3.073   1.333   3.803
  526TIP3    H1 1584   3.129   1.278   3.748
  526TIP3    H2 1585   3.077   1.419   3.761
  527TIP3   OH2 1586   6.268   3.948   3.058
  527TIP3    H1 1587   6.234   3.956   3.147
  527TIP3    H2 1588   6.233   4.024   3.011
  528TIP3   OH2 1589   5.560   2.366   2.781
  528TIP3    H1 1590   5.581   2.357   2.874
  528TIP3    H2 1591   5.639   2.334   2.735
  529TIP3   OH2 1592   4.723   0.059   2.620
  529TIP3    H1 1593   4.685   0.120   2.683
  529TIP3    H2 1594   4.813   0.046   2.650
  530TIP3   OH2 1595   4.054   5.831   1.146
  530TIP3    H1 1596   3.971   5.878   1.140
  530TIP3    H2 1597   4.072   5.823   1.239
  531TIP3   OH2 1598   5.036   4.602   2.773
  531TIP3    H1 1599   4.981   4.660   2.826
  531TIP3    H2 1600   5.003   4.514   2.792
  532TIP3   OH2 1601   3.676   4.478   0.860
  532TIP3    H1 1602   3.740   4.544   0.884
  532TIP3    H2 1603   3.688   4.408   0.924
  533TIP3   OH2 1604   0.246   4.905   4.315
  533TIP3    H1 1605   0.252   4.824   4.365
  533TIP3    H2 1606   0.275   4.882   4.227
  534TIP3   OH2 1607   4.591   1.312   1.902
  534TIP3    H1 1608   4.593   1.245   1.972
  534TIP3    H2 1609   4.515   1.289   1.849
  535TIP3   OH2 1610   4.003   5.533   1.056
  535TIP3    H1 1611   4.075   5.593   1.073
  535TIP3    H2 1612   3.927   5.589   1.045
  536TIP3   OH2 1613   2.288   2.107   2.865
  536TIP3    H1 1614   2.381   2.083   2.860
  536TIP3    H2 1615   2.254   2.056   2.938
  537TIP3   OH2 1616   2.177   2.835   4.261
  537TIP3    H1 1617   2.089   2.849   4.296
  537TIP3    H2 1618   2.230   2.903   4.302
  538TIP3   OH2 1619   1.447  -0.040   2.750
  538TIP3    H1 1620   1.512   0.030   2.746
  538TIP3    H2 1621   1.375  -0.009   2.695
  539TIP3   OH2 1622   1.600   2.704   4.912
  539TIP3    H1 1623   1.657   2.703   4.989
  539TIP3    H2 1624   1.550   2.786   4.920
  540TIP3   OH2 1625   4.785   5.494   2.271
  540TIP3    H1 1626   4.804   5.522   2.182
  540TIP3    H2 1627   4.690   5.504   2.280
  541TIP3   OH2 1628   5.002   0.258   4.530
  541TIP3    H1 1629   5.009   0.309   4.610
  541TIP3    H2 1630   5.055   0.306   4.466
  542TIP3   OH2 1631   1.816   0.740   4.537
  542TIP3    H1 1632   1.784   0.796   4.608
  542TIP3    H2 1633   1.751   0.749   4.468
  543TIP3   OH2 1634   4.231   1.653   3.392
  543TIP3    H1 1635   4.160   1.605   3.434
  543TIP3    H2 1636   4.203   1.744   3.392
  544TIP3   OH2 1637   4.323   3.039   4.008
  544TIP3    H1 1638   4.294   3.088   4.085
  544TIP3    H2 1639   4.407   3.002   4.033
  545TIP3   OH2 1640   2.401   0.865   4.555
  545TIP3    H1 1641   2.322   0.906   4.522
  545TIP3    H2 1642   2.467   0.934   4.554
  546TIP3   OH2 1643   6.101   3.794   2.798
  546TIP3    H1 1644   6.013   3.828   2.810
  546TIP3    H2 1645   6.152   3.835   2.868
  547TIP3   OH2 1646   6.210   3.492   1.288
  547TIP3    H1 1647   6.201   3.448   1.204
  547TIP3    H2 1648   6.241   3.423   1.348
  548TIP3   OH2 1649   3.517   1.196   1.753
  548TIP3    H1 1650   3.578   1.200   1.679
  548TIP3    H2 1651   3.436   1.161   1.715
  549TIP3   OH2 1652   5.175   5.832   0.218
  549TIP3    H1 1653   5.082   5.813   0.221
  549TIP3    H2 1654   5.181   5.926   0.236
  550TIP3   OH2 1655   1.074   2.233   2.627
  550TIP3    H1 1656   1.110   2.296   2.690
  550TIP3    H2 1657   1.150   2.186   2.594
  551TIP3   OH2 1658   5.608   4.900   0.941
  551TIP3    H1 1659   5.655   4.818   0.924
  551TIP3    H2 1660   5.559   4.916   0.860
  552TIP3   OH2 1661   1.843   3.999   3.258
  552TIP3    H1 1662   1.777   4.017   3.325
  552TIP3    H2 1663   1.909   3.946   3.303
  553TIP3   OH2 1664   6.104   2.214   0.916
  553TIP3    H1 1665   6.023   2.264   0.905
  553TIP3    H2 1666   6.075   2.131   0.953
  554TIP3   OH2 1667   0.891   2.639   2.401
  554TIP3    H1 1668   0.918   2.726   2.371
  554TIP3    H2 1669   0.805   2.653   2.441
  555TIP3   OH2 1670   5.156   1.762   2.507
  555TIP3    H1 1671   5.102   1.684   2.493
  555TIP3    H2 1672   5.229   1.752   2.445
  556TIP3   OH2 1673   3.826   4.525   1.341
  556TIP3    H1 1674   3.840   4.618   1.361
  556TIP3    H2 1675   3.902   4.481   1.378
  557TIP3   OH2 1676   5.861   2.291   1.846
  557TIP3    H1 1677   5.827   2.326   1.928
  557TIP3    H2 1678   5.856   2.365   1.785
  558TIP3   OH2 1679   1.105   2.702   2.050
  558TIP3    H1 1680   1.044   2.766   2.085
  558TIP3    H2 1681   1.148   2.746   1.977
  559TIP3   OH2 1682   2.620   1.669   0.395
  559TIP3    H1 1683   2.664   1.724   0.330
  559TIP3    H2 1684   2.546   1.630   0.347
  560TIP3   OH2 1685   3.862   4.361   4.107
  560TIP3    H1 1686   3.889   4.270   4.116
  560TIP3    H2 1687   3.768   4.356   4.089
  561TIP3   OH2 1688   6.182   2.670   4.896
  561TIP3    H1 1689   6.106   2.708   4.940
  561TIP3    H2 1690   6.156   2.665   4.804
  562TIP3   OH2 1691   0.532   5.594   3.530
  562TIP3    H1 1692   0.580   5.619   3.609
  562TIP3    H2 1693   0.440   5.604   3.553
  563TIP3   OH2 1694   4.145   5.388   4.599
  563TIP3    H1 1695   4.231   5.398   4.556
  563TIP3    H2 1696   4.163   5.334   4.675
  564TIP3   OH2 1697   6.160   5.563   1.847
  564TIP3    H1 1698   6.098   5.636   1.848
  564TIP3    H2 1699   6.199   5.566   1.759
  565TIP3   OH2 1700   5.018   0.245   3.393
  565TIP3    H1 1701   4.953   0.216   3.457
  565TIP3    H2 1702   4.975   0.316   3.345
  566TIP3   OH2 1703   5.909   5.267   3.218
  566TIP3    H1 1704   5.900   5.358   3.248
  566TIP3    H2 1705   5.930   5.275   3.125
  567TIP3   OH2 1706   5.541   5.651   3.570
  567TIP3    H1 1707   5.462   5.663   3.624
  567TIP3    H2 1708   5.610   5.633   3.633
  568TIP3   OH2 1709   1.826   2.252   2.333
  568TIP3    H1 1710   1.898   2.246   2.397
  568TIP3    H2 1711   1.750   2.276   2.386
  569TIP3   OH2 1712   0.312   3.144   4.846
  569TIP3    H1 1713   0.315   3.062   4.797
  569TIP3    H2 1714   0.381   3.135   4.911
  570TIP3   OH2 1715   3.977   2.806   1.570
  570TIP3    H1 1716   3.920   2.843   1.502
  570TIP3    H2 1717   4.062   2.794   1.527
  571TIP3   OH2 1718   0.276   1.266   4.961
  571TIP3    H1 1719   0.352   1.235   4.912
  571TIP3    H2 1720   0.272   1.360   4.943
  572TIP3   OH2 1721   3.619   2.063   1.790
  572TIP3    H1 1722   3.632   1.968   1.790
  572TIP3    H2 1723   3.576   2.082   1.873
  573TIP3   OH2 1724   3.743   0.103   1.464
  573TIP3    H1 1725   3.813   0.042   1.485
  573TIP3    H2 1726   3.666   0.067   1.507
  574TIP3   OH2 1727   4.100   5.501   2.317
  574TIP3    H1 1728   4.013   5.541   2.309
  574TIP3    H2 1729   4.129   5.524   2.405
  575TIP3   OH2 1730   2.164   4.092   3.390
  575TIP3    H1 1731   2.095   4.154   3.365
  575TIP3    H2 1732   2.236   4.111   3.330
  576TIP3   OH2 1733   4.655   3.109   0.455
  576TIP3    H1 1734   4.725   3.125   0.392
  576TIP3    H2 1735   4.615   3.195   0.468
  577TIP3   OH2 1736   5.823   5.130   4.462
  577TIP3    H1 1737   5.770   5.209   4.454
  577TIP3    H2 1738   5.777   5.076   4.526
  578TIP3   OH2 1739   4.647   1.685   3.978
  578TIP3    H1 1740   4.607   1.770   3.964
  578TIP3    H2 1741   4.721   1.703   4.036
  579TIP3   OH2 1742   4.771   4.504   4.104
  579TIP3    H1 1743   4.792   4.591   4.071
  579TIP3    H2 1744   4.826   4.445   4.053
  580TIP3   OH2 1745   2.705   2.368   0.723
  580TIP3    H1 1746   2.757   2.431   0.771
  580TIP3    H2 1747   2.704   2.401   0.633
  581TIP3   OH2 1748   3.235   0.191   2.349
  581TIP3    H1 1749   3.158   0.228   2.305
  581TIP3    H2 1750   3.244   0.104   2.311
  582TIP3   OH2 1751   2.665   5.812   1.998
  582TIP3    H1 1752   2.645   5.899   2.033
  582TIP3    H2 1753   2.673   5.756   2.076
  583TIP3   OH2 1754   6.141   2.190   0.641
  583TIP3    H1 1755   6.103   2.197   0.729
  583TIP3    H2 1756   6.082   2.132   0.594
  584TIP3   OH2 1757   4.481   4.051   2.519
  584TIP3    H1 1758   4.532   4.125   2.487
  584TIP3    H2 1759   4.546   3.981   2.532
  585TIP3   OH2 1760   2.631   2.709   3.539
  585TIP3    H1 1761   2.571   2.766   3.491
  585TIP3    H2 1762   2.714   2.717   3.493
  586TIP3   OH2 1763   2.169   0.834   3.310
  586TIP3    H1 1764   2.164   0.743   3.281
  586TIP3    H2 1765   2.240   0.872   3.259
  587TIP3   OH2 1766   0.663   5.733   0.859
  587TIP3    H1 1767   0.649   5.725   0.764
  587TIP3    H2 1768   0.581   5.704   0.898
  588TIP3   OH2 1769   5.093   5.281   2.931
  588TIP3    H1 1770   5.167   5.279   2.870
  588TIP3    H2 1771   5.046   5.200   2.913
  589TIP3   OH2 1772   4.294   0.435   4.132
  589TIP3    H1 1773   4.274   0.373   4.062
  589TIP3    H2 1774   4.389   0.438   4.135
  590TIP3   OH2 1775   1.416   3.758   0.826
  590TIP3    H1 1776   1.331   3.744   0.868
  590TIP3    H2 1777   1.396   3.811   0.749
  591TIP3   OH2 1778   4.473   5.505   3.153
  591TIP3    H1 1779   4.532   5.432   3.138
  591TIP3    H2 1780   4.387   5.473   3.128
  592TIP3   OH2 1781   6.004   2.911   2.836
  592TIP3    H1 1782   5.969   2.962   2.909
  592TIP3    H2 1783   5.928   2.865   2.800
  593TIP3   OH2 1784   0.316   0.721   4.214
  593TIP3    H1 1785   0.260   0.645   4.224
  593TIP3    H2 1786   0.284   0.783   4.280
  594TIP3   OH2 1787   1.357   3.596   4.304
  594TIP3    H1 1788   1.362   3.626   4.213
  594TIP3    H2 1789   1.418   3.653   4.351
  595TIP3   OH2 1790   3.056   1.897   0.511
  595TIP3    H1 1791   3.007   1.832   0.460
  595TIP3    H2 1792   2.990   1.964   0.531
  596TIP3   OH2 1793   2.342   4.717   2.377
  596TIP3    H1 1794   2.363   4.716   2.284
  596TIP3    H2 1795   2.343   4.625   2.403
  597TIP3   OH2 1796   3.460   5.255   1.085
  597TIP3    H1 1797   3.539   5.230   1.132
  597TIP3    H2 1798   3.488   5.261   0.993
  598TIP3   OH2 1799   6.029   5.269   4.532
  598TIP3    H1 1800   5.951   5.229   4.495
  598TIP3    H2 1801   6.085   5.195   4.556
  599TIP3   OH2 1802   0.583   5.505   5.145
  599TIP3    H1 1803   0.669   5.480   5.112
  599TIP3    H2 1804   0.567   5.591   5.108
  600TIP3   OH2 1805   1.518   3.743   3.503
  600TIP3    H1 1806   1.592   3.746   3.563
  600TIP3    H2 1807   1.442   3.760   3.559
  601TIP3   OH2 1808   1.507   0.627   0.336
  601TIP3    H1 1809   1.413   0.648   0.334
  601TIP3    H2 1810   1.512   0.544   0.383
  602TIP3   OH2 1811   0.475   4.725   2.545
  602TIP3    H1 1812   0.535   4.689   2.479
  602TIP3    H2 1813   0.396   4.672   2.536
  603TIP3   OH2 1814   5.027   2.608   1.154
  603TIP3    H1 1815   4.997   2.541   1.216
  603TIP3    H2 1816   5.065   2.558   1.082
  604TIP3   OH2 1817   1.395   1.009   1.416
  604TIP3    H1 1818   1.444   0.977   1.492
  604TIP3    H2 1819   1.463   1.030   1.351
  605TIP3   OH2 1820   4.175   5.605   1.634
  605TIP3    H1 1821   4.228   5.582   1.710
  605TIP3    H2 1822   4.219   5.681   1.595
  606TIP3   OH2 1823   1.936   3.687   0.313
  606TIP3    H1 1824   1.978   3.750   0.255
  606TIP3    H2 1825   1.899   3.621   0.254
  607TIP3   OH2 1826   4.496   0.434   4.418
  607TIP3    H1 1827   4.483   0.398   4.506
  607TIP3    H2 1828   4.434   0.507   4.412
  608TIP3   OH2 1829   3.034   2.679   0.482
  608TIP3    H1 1830   3.066   2.736   0.412
  608TIP3    H2 1831   2.940   2.695   0.485
  609TIP3   OH2 1832   6.011   2.849   5.014
  609TIP3    H1 1833   5.919   2.855   4.987
  609TIP3    H2 1834   6.051   2.929   4.978
  610TIP3   OH2 1835   6.080   4.567   2.845
  610TIP3    H1 1836   6.023   4.597   2.916
  610TIP3    H2 1837   6.020   4.542   2.775
  611TIP3   OH2 1838   4.664   4.304   2.457
  611TIP3    H1 1839   4.700   4.320   2.370
  611TIP3    H2 1840   4.740   4.281   2.511
  612TIP3   OH2 1841   0.663   3.266   3.849
  612TIP3    H1 1842   0.614   3.349   3.847
  612TIP3    H2 1843   0.753   3.291   3.869
  613TIP3   OH2 1844   5.255   4.203   2.762
  613TIP3    H1 1845   5.204   4.190   2.682
  613TIP3    H2 1846   5.269   4.297   2.766
  614TIP3   OH2 1847   0.943   3.288   4.527
  614TIP3    H1 1848   1.021   3.344   4.520
  614TIP3    H2 1849   0.882   3.339   4.579
  615TIP3   OH2 1850   0.617   2.170   1.351
  615TIP3    H1 1851   0.570   2.193   1.431
  615TIP3    H2 1852   0.659   2.252   1.323
  616TIP3   OH2 1853   0.567   2.902   1.285
  616TIP3    H1 1854   0.610   2.861   1.361
  616TIP3    H2 1855   0.628   2.888   1.213
  617TIP3   OH2 1856   0.703   5.435   3.302
  617TIP3    H1 1857   0.744   5.519   3.280
  617TIP3    H2 1858   0.763   5.369   3.267
  618TIP3   OH2 1859   2.366   1.720   4.202
  618TIP3    H1 1860   2.439   1.712   4.140
  618TIP3    H2 1861   2.300   1.660   4.169
  619TIP3   OH2 1862   3.150   4.673   2.500
  619TIP3    H1 1863   3.120   4.682   2.410
  619TIP3    H2 1864   3.192   4.587   2.503
  620TIP3   OH2 1865   0.295   0.072   4.484
  620TIP3    H1 1866   0.372   0.018   4.502
  620TIP3    H2 1867   0.317   0.158   4.518
  621TIP3   OH2 1868   4.611   1.092   0.814
  621TIP3    H1 1869   4.663   1.158   0.768
  621TIP3    H2 1870   4.549   1.060   0.749
  622TIP3   OH2 1871   3.551   4.558   3.119
  622TIP3    H1 1872   3.542   4.622   3.049
  622TIP3    H2 1873   3.463   4.546   3.153
  623TIP3   OH2 1874   0.233   1.653   2.361
  623TIP3    H1 1875   0.311   1.667   2.415
  623TIP3    H2 1876   0.185   1.585   2.408
  624TIP3   OH2 1877   1.256   5.381   1.198
  624TIP3    H1 1878   1.260   5.376   1.102
  624TIP3    H2 1879   1.302   5.303   1.228
  625TIP3   OH2 1880   2.511   3.767   0.043
  625TIP3    H1 1881   2.504   3.802  -0.046
  625TIP3    H2 1882   2.570   3.827   0.088
  626TIP3   OH2 1883   2.870   3.882   4.183
  626TIP3    H1 1884   2.901   3.855   4.269
  626TIP3    H2 1885   2.775   3.884   4.190
  627TIP3   OH2 1886   5.466   0.465   3.348
  627TIP3    H1 1887   5.542   0.473   3.405
  627TIP3    H2 1888   5.407   0.405   3.394
  628TIP3   OH2 1889   2.234   3.597   5.073
  628TIP3    H1 1890   2.313   3.623   5.120
  628TIP3    H2 1891   2.256   3.609   4.981
  629TIP3   OH2 1892   1.844   1.262   3.796
  629TIP3    H1 1893   1.760   1.217   3.806
  629TIP3    H2 1894   1.908   1.191   3.789
  630TIP3   OH2 1895   4.030   3.152   2.093
  630TIP3    H1 1896   4.122   3.146   2.067
  630TIP3    H2 1897   3.991   3.211   2.028
  631TIP3   OH2 1898   5.847   1.039   1.143
  631TIP3    H1 1899   5.881   1.122   1.178
  631TIP3    H2 1900   5.818   1.061   1.055
  632TIP3   OH2 1901   2.843   4.343   4.527
  632TIP3    H1 1902   2.807   4.255   4.516
  632TIP3    H2 1903   2.916   4.331   4.588
  633TIP3   OH2 1904   1.423   5.234   0.220
  633TIP3    H1 1905   1.479   5.178   0.273
  633TIP3    H2 1906   1.483   5.293   0.174
  634TIP3   OH2 1907   2.598   0.991   4.737
  634TIP3    H1 1908   2.666   0.945   4.687
  634TIP3    H2 1909   2.642   1.070   4.768
  635TIP3   OH2 1910   5.077   5.211   4.729
  635TIP3    H1 1911   5.129   5.160   4.667
  635TIP3    H2 1912   4.996   5.231   4.682
  636TIP3   OH2 1913   5.142   2.144   4.672
  636TIP3    H1 1914   5.046   2.141   4.673
  636TIP3    H2 1915   5.168   2.069   4.619
  637TIP3   OH2 1916   5.694   2.325   3.995
  637TIP3    H1 1917   5.602   2.309   4.018
  637TIP3    H2 1918   5.722   2.244   3.953
  638TIP3   OH2 1919   4.509   5.365   2.889
  638TIP3    H1 1920   4.597   5.346   2.923
  638TIP3    H2 1921   4.507   5.461   2.881
  639TIP3   OH2 1922   1.280   5.825   1.017
  639TIP3    H1 1923   1.271   5.915   0.985
  639TIP3    H2 1924   1.190   5.794   1.027
  640TIP3   OH2 1925   0.910   1.256   0.738
  640TIP3    H1 1926   0.977   1.279   0.802
  640TIP3    H2 1927   0.884   1.167   0.761
  641TIP3   OH2 1928   4.554   5.803   4.707
  641TIP3    H1 1929   4.591   5.891   4.703
  641TIP3    H2 1930   4.509   5.792   4.623
  642TIP3   OH2 1931   1.484   5.584   2.279
  642TIP3    H1 1932   1.470   5.490   2.290
  642TIP3    H2 1933   1.485   5.619   2.368
  643TIP3   OH2 1934   0.222   1.186   1.223
  643TIP3    H1 1935   0.239   1.213   1.132
  643TIP3    H2 1936   0.139   1.229   1.245
  644TIP3   OH2 1937   1.284   3.659   4.884
  644TIP3    H1 1938   1.253   3.750   4.886
  644TIP3    H2 1939   1.377   3.666   4.859
  645TIP3   OH2 1940   6.051   5.935   0.779
  645TIP3    H1 1941   6.044   6.029   0.798
  645TIP3    H2 1942   5.984   5.895   0.834
  646TIP3   OH2 1943   5.878   2.126   2.370
  646TIP3    H1 1944   5.929   2.202   2.343
  646TIP3    H2 1945   5.938   2.052   2.360
  647TIP3   OH2 1946   2.142   4.627   0.810
  647TIP3    H1 1947   2.083   4.603   0.738
  647TIP3    H2 1948   2.208   4.559   0.810
  648TIP3   OH2 1949   5.228   1.275   2.976
  648TIP3    H1 1950   5.254   1.191   2.938
  648TIP3    H2 1951   5.249   1.339   2.909
  649TIP3   OH2 1952   1.398   0.583   3.711
  649TIP3    H1 1953   1.479   0.543   3.743
  649TIP3    H2 1954   1.357   0.516   3.657
  650TIP3   OH2 1955   2.284   0.045   3.357
  650TIP3    H1 1956   2.314  -0.019   3.293
  650TIP3    H2 1957   2.215   0.094   3.313
  651TIP3   OH2 1958   4.410   2.416   5.031
  651TIP3    H1 1959   4.339   2.352   5.029
  651TIP3    H2 1960   4.449   2.411   4.944
  652TIP3   OH2 1961  -0.013   3.243   1.371
  652TIP3    H1 1962   0.067   3.225   1.322
  652TIP3    H2 1963   0.002   3.205   1.457
  653TIP3   OH2 1964   3.263   2.253   4.550
  653TIP3    H1 1965   3.247   2.160   4.538
  653TIP3    H2 1966   3.191   2.284   4.604
  654TIP3   OH2 1967   3.569   3.589   4.043
  654TIP3    H1 1968   3.497   3.538   4.006
  654TIP3    H2 1969   3.622   3.524   4.090
  655TIP3   OH2 1970   2.851   2.111   0.499
  655TIP3    H1 1971   2.884   2.188   0.545
  655TIP3    H2 1972   2.764   2.097   0.535
  656TIP3   OH2 1973   3.267   3.294   2.749
  656TIP3    H1 1974   3.224   3.362   2.698
  656TIP3    H2 1975   3.314   3.342   2.817
  657TIP3   OH2 1976   5.064   0.840   0.301
  657TIP3    H1 1977   5.029   0.817   0.215
  657TIP3    H2 1978   5.067   0.756   0.348
  658TIP3   OH2 1979   4.826   4.578   4.383
  658TIP3    H1 1980   4.839   4.549   4.293
  658TIP3    H2 1981   4.910   4.617   4.407
  659TIP3   OH2 1982   0.821   2.132   2.848
  659TIP3    H1 1983   0.911   2.138   2.817
  659TIP3    H2 1984   0.825   2.072   2.923
  660TIP3   OH2 1985   0.066   5.269   4.306
  660TIP3    H1 1986  -0.008   5.273   4.245
  660TIP3    H2 1987   0.112   5.352   4.293
  661TIP3   OH2 1988   2.131   2.478   2.467
  661TIP3    H1 1989   2.133   2.419   2.391
  661TIP3    H2 1990   2.220   2.477   2.501
  662TIP3   OH2 1991   3.322   2.550   4.601
  662TIP3    H1 1992   3.359   2.513   4.521
  662TIP3    H2 1993   3.228   2.541   4.590
  663TIP3   OH2 1994   0.717   0.638   3.984
  663TIP3    H1 1995   0.733   0.724   4.022
  663TIP3    H2 1996   0.624   0.636   3.965
  664TIP3   OH2 1997   3.301   4.325   1.785
  664TIP3    H1 1998   3.377   4.285   1.742
  664TIP3    H2 1999   3.226   4.296   1.732
  665TIP3   OH2 2000   6.029   0.155   4.222
  665TIP3    H1 2001   6.031   0.082   4.160
  665TIP3    H2 2002   6.048   0.115   4.307
  666TIP3   OH2 2003   1.651   4.042   1.385
  666TIP3    H1 2004   1.716   4.020   1.452
  666TIP3    H2 2005   1.618   3.957   1.355
  667TIP3   OH2 2006   1.387   2.164   1.766
  667TIP3    H1 2007   1.322   2.217   1.812
  667TIP3    H2 2008   1.369   2.074   1.795
  668TIP3   OH2 2009   2.935   1.200   1.749
  668TIP3    H1 2010   2.951   1.294   1.754
  668TIP3    H2 2011   3.023   1.161   1.746
  669TIP3   OH2 2012   1.773   4.561   1.159
  669TIP3    H1 2013   1.742   4.512   1.082
  669TIP3    H2 2014   1.868   4.564   1.148
  670TIP3   OH2 2015   6.337   2.165   4.874
  670TIP3    H1 2016   6.360   2.094   4.814
  670TIP3    H2 2017   6.320   2.122   4.958
  671TIP3   OH2 2018   1.654   1.619   1.989
  671TIP3    H1 2019   1.651   1.524   1.976
  671TIP3    H2 2020   1.617   1.655   1.908
  672TIP3   OH2 2021   6.304   5.793   3.047
  672TIP3    H1 2022   6.240   5.726   3.069
  672TIP3    H2 2023   6.257   5.854   2.991
  673TIP3   OH2 2024   1.915   5.644   2.332
  673TIP3    H1 2025   1.874   5.609   2.253
  673TIP3    H2 2026   1.868   5.726   2.349
  674TIP3   OH2 2027   2.399   2.445   1.236
  674TIP3    H1 2028   2.341   2.488   1.299
  674TIP3    H2 2029   2.402   2.505   1.162
  675TIP3   OH2 2030   6.073   1.747   2.043
  675TIP3    H1 2031   6.149   1.704   2.082
  675TIP3    H2 2032   6.067   1.831   2.089
  676TIP3   OH2 2033   0.715   2.940   2.331
  676TIP3    H1 2034   0.652   2.949   2.402
  676TIP3    H2 2035   0.799   2.924   2.374
  677TIP3   OH2 2036   0.514   1.400   2.149
  677TIP3    H1 2037   0.552   1.416   2.062
  677TIP3    H2 2038   0.421   1.421   2.138
  678TIP3   OH2 2039   1.776   3.096   0.460
  678TIP3    H1 2040   1.757   3.039   0.386
  678TIP3    H2 2041   1.848   3.052   0.506
  679TIP3   OH2 2042   5.702   1.158   0.926
  679TIP3    H1 2043   5.716   1.247   0.958
  679TIP3    H2 2044   5.613   1.158   0.890
  680TIP3   OH2 2045   4.094   2.985   2.367
  680TIP3    H1 2046   4.085   3.061   2.309
  680TIP3    H2 2047   4.148   3.017   2.440
  681TIP3   OH2 2048   1.206   2.514   3.638
  681TIP3    H1 2049   1.153   2.540   3.714
  681TIP3    H2 2050   1.233   2.424   3.658
  682TIP3   OH2 2051   1.540   4.461   3.658
  682TIP3    H1 2052   1.619   4.462   3.604
  682TIP3    H2 2053   1.469   4.483   3.597
  683TIP3   OH2 2054   0.221   3.505   4.312
  683TIP3    H1 2055   0.130   3.507   4.339
  683TIP3    H2 2056   0.271   3.504   4.394
  684TIP3   OH2 2057   3.758   2.332   3.228
  684TIP3    H1 2058   3.727   2.243   3.213
  684TIP3    H2 2059   3.770   2.369   3.141
  685TIP3   OH2 2060   2.420   0.759   1.159
  685TIP3    H1 2061   2.368   0.681   1.144
  685TIP3    H2 2062   2.511   0.728   1.159
  686TIP3   OH2 2063   2.182   4.606   3.545
  686TIP3    H1 2064   2.215   4.664   3.613
  686TIP3    H2 2065   2.256   4.593   3.486
  687TIP3   OH2 2066   2.461   2.596   2.741
  687TIP3    H1 2067   2.543   2.646   2.742
  687TIP3    H2 2068   2.486   2.508   2.772
  688TIP3   OH2 2069   4.361   5.385   3.500
  688TIP3    H1 2070   4.447   5.383   3.459
  688TIP3    H2 2071   4.315   5.309   3.463
  689TIP3   OH2 2072   0.429   5.678   0.988
  689TIP3    H1 2073   0.382   5.761   1.002
  689TIP3    H2 2074   0.377   5.613   1.035
  690TIP3   OH2 2075   4.500   3.101   0.748
  690TIP3    H1 2076   4.456   3.091   0.664
  690TIP3    H2 2077   4.576   3.157   0.730
  691TIP3   OH2 2078   4.481   2.203   3.299
  691TIP3    H1 2079   4.571   2.204   3.331
  691TIP3    H2 2080   4.445   2.120   3.332
  692TIP3   OH2 2081   0.386   4.632   2.218
  692TIP3    H1 2082   0.442   4.571   2.268
  692TIP3    H2 2083   0.445   4.702   2.192
  693TIP3   OH2 2084   0.226   5.426   4.636
  693TIP3    H1 2085   0.177   5.385   4.707
  693TIP3    H2 2086   0.200   5.518   4.640
  694TIP3   OH2 2087   5.557   2.884   4.906
  694TIP3    H1 2088   5.470   2.919   4.925
  694TIP3    H2 2089   5.547   2.789   4.911
  695TIP3   OH2 2090   2.265   0.772   2.149
  695TIP3    H1 2091   2.250   0.860   2.183
  695TIP3    H2 2092   2.230   0.774   2.060
  696TIP3   OH2 2093   3.101   3.628   0.444
  696TIP3    H1 2094   3.183   3.676   0.435
  696TIP3    H2 2095   3.117   3.545   0.400
  697TIP3   OH2 2096   2.720   4.932   4.567
  697TIP3    H1 2097   2.772   4.857   4.596
  697TIP3    H2 2098   2.721   4.993   4.641
  698TIP3   OH2 2099   5.015   4.835   0.812
  698TIP3    H1 2100   4.927   4.806   0.837
  698TIP3    H2 2101   5.046   4.886   0.887
  699TIP3   OH2 2102   2.908   3.970   3.774
  699TIP3    H1 2103   2.955   3.895   3.811
  699TIP3    H2 2104   2.872   4.015   3.850
  700TIP3   OH2 2105   3.815   3.137   4.596
  700TIP3    H1 2106   3.786   3.116   4.685
  700TIP3    H2 2107   3.737   3.167   4.551
  701TIP3   OH2 2108   2.123   3.441   2.229
  701TIP3    H1 2109   2.115   3.446   2.134
  701TIP3    H2 2110   2.083   3.522   2.261
  702TIP3   OH2 2111   3.278   5.130   3.957
  702TIP3    H1 2112   3.201   5.132   4.014
  702TIP3    H2 2113   3.245   5.098   3.873
  703TIP3   OH2 2114   3.604   4.855   3.340
  703TIP3    H1 2115   3.583   4.869   3.432
  703TIP3    H2 2116   3.522   4.822   3.302
  704TIP3   OH2 2117   0.681   2.785   4.798
  704TIP3    H1 2118   0.707   2.867   4.842
  704TIP3    H2 2119   0.588   2.776   4.819
  705TIP3   OH2 2120   1.935   2.513   4.223
  705TIP3    H1 2121   1.953   2.515   4.317
  705TIP3    H2 2122   1.863   2.449   4.214
  706TIP3   OH2 2123   0.469   4.476   2.851
  706TIP3    H1 2124   0.422   4.393   2.843
  706TIP3    H2 2125   0.527   4.477   2.775
  707TIP3   OH2 2126   4.407   5.082   1.689
  707TIP3    H1 2127   4.323   5.044   1.714
  707TIP3    H2 2128   4.443   5.020   1.626
  708TIP3   OH2 2129   0.100   3.623   1.001
  708TIP3    H1 2130   0.061   3.643   1.087
  708TIP3    H2 2131   0.183   3.580   1.022
  709TIP3   OH2 2132   6.093   5.301   5.179
  709TIP3    H1 2133   6.072   5.381   5.131
  709TIP3    H2 2134   6.185   5.283   5.156
  710TIP3   OH2 2135   1.699   0.879   0.322
  710TIP3    H1 2136   1.656   0.796   0.341
  710TIP3    H2 2137   1.629   0.944   0.323
  711TIP3   OH2 2138   4.928   4.451   2.365
  711TIP3    H1 2139   4.924   4.547   2.363
  711TIP3    H2 2140   5.000   4.431   2.425
  712TIP3   OH2 2141   3.363   0.044   4.636
  712TIP3    H1 2142   3.312   0.092   4.701
  712TIP3    H2 2143   3.304   0.033   4.562
  713TIP3   OH2 2144   2.196  -0.022   1.979
  713TIP3    H1 2145   2.164   0.068   1.984
  713TIP3    H2 2146   2.254  -0.023   1.903
  714TIP3   OH2 2147   3.432   3.596   2.571
  714TIP3    H1 2148   3.508   3.541   2.554
  714TIP3    H2 2149   3.463   3.664   2.630
  715TIP3   OH2 2150   0.937   3.896   0.874
  715TIP3    H1 2151   0.941   3.967   0.938
  715TIP3    H2 2152   0.848   3.861   0.883
  716TIP3   OH2 2153   1.895   1.515   4.581
  716TIP3    H1 2154   1.890   1.580   4.650
  716TIP3    H2 2155   1.848   1.439   4.616
  717TIP3   OH2 2156   3.398   4.528   0.849
  717TIP3    H1 2157   3.379   4.443   0.887
  717TIP3    H2 2158   3.492   4.539   0.863
  718TIP3   OH2 2159   1.720   1.727   1.398
  718TIP3    H1 2160   1.716   1.822   1.410
  718TIP3    H2 2161   1.801   1.713   1.350
  719TIP3   OH2 2162   0.098   3.146   1.628
  719TIP3    H1 2163   0.045   3.069   1.609
  719TIP3    H2 2164   0.070   3.174   1.715
  720TIP3   OH2 2165   5.390   4.414   2.996
  720TIP3    H1 2166   5.450   4.445   3.064
  720TIP3    H2 2167   5.346   4.338   3.037
  721TIP3   OH2 2168   0.210   2.062   2.039
  721TIP3    H1 2169   0.272   2.006   2.086
  721TIP3    H2 2170   0.126   2.016   2.047
  722TIP3   OH2 2171   0.226   4.986   1.339
  722TIP3    H1 2172   0.183   5.029   1.265
  722TIP3    H2 2173   0.319   4.989   1.317
  723TIP3   OH2 2174   0.579   4.980   2.599
  723TIP3    H1 2175   0.525   4.902   2.580
  723TIP3    H2 2176   0.669   4.949   2.590
  724TIP3   OH2 2177   1.793   5.161   1.343
  724TIP3    H1 2178   1.817   5.100   1.413
  724TIP3    H2 2179   1.876   5.182   1.300
  725TIP3   OH2 2180   5.270   1.438   0.815
  725TIP3    H1 2181   5.262   1.529   0.844
  725TIP3    H2 2182   5.185   1.400   0.836
  726TIP3   OH2 2183   2.324   4.116   1.305
  726TIP3    H1 2184   2.253   4.178   1.319
  726TIP3    H2 2185   2.390   4.166   1.257
  727TIP3   OH2 2186   2.551   3.885   1.069
  727TIP3    H1 2187   2.641   3.853   1.070
  727TIP3    H2 2188   2.540   3.925   0.983
  728TIP3   OH2 2189   5.034   0.737   0.688
  728TIP3    H1 2190   5.121   0.705   0.665
  728TIP3    H2 2191   5.016   0.698   0.774
  729TIP3   OH2 2192   0.223   0.989   2.926
  729TIP3    H1 2193   0.294   0.977   2.988
  729TIP3    H2 2194   0.266   1.024   2.847
  730TIP3   OH2 2195   5.549   4.447   0.715
  730TIP3    H1 2196   5.531   4.389   0.789
  730TIP3    H2 2197   5.585   4.388   0.648
  731TIP3   OH2 2198   3.218   3.585   2.238
  731TIP3    H1 2199   3.222   3.655   2.303
  731TIP3    H2 2200   3.124   3.567   2.228
  732TIP3   OH2 2201   1.429   0.663   4.248
  732TIP3    H1 2202   1.374   0.651   4.171
  732TIP3    H2 2203   1.402   0.747   4.285
  733TIP3   OH2 2204   2.257   3.650   2.845
  733TIP3    H1 2205   2.193   3.579   2.852
  733TIP3    H2 2206   2.204   3.727   2.825
  734TIP3   OH2 2207   0.939   1.565   4.167
  734TIP3    H1 2208   0.873   1.597   4.229
  734TIP3    H2 2209   0.912   1.600   4.083
  735TIP3   OH2 2210   5.579   3.736   3.490
  735TIP3    H1 2211   5.658   3.774   3.451
  735TIP3    H2 2212   5.557   3.795   3.561
  736TIP3   OH2 2213   0.162   3.441   2.240
  736TIP3    H1 2214   0.170   3.531   2.269
  736TIP3    H2 2215   0.178   3.444   2.145
  737TIP3   OH2 2216   1.309   2.374   0.353
  737TIP3    H1 2217   1.397   2.352   0.323
  737TIP3    H2 2218   1.260   2.392   0.273
  738TIP3   OH2 2219   4.193   0.728   2.085
  738TIP3    H1 2220   4.136   0.700   2.014
  738TIP3    H2 2221   4.278   0.741   2.043
  739TIP3   OH2 2222   0.754   5.736   4.137
  739TIP3    H1 2223   0.800   5.765   4.058
  739TIP3    H2 2224   0.728   5.646   4.117
  740TIP3   OH2 2225   5.943   4.940   2.761
  740TIP3    H1 2226   5.915   4.884   2.689
  740TIP3    H2 2227   5.883   4.920   2.832
  741TIP3   OH2 2228   0.476   5.242   1.405
  741TIP3    H1 2229   0.386   5.276   1.400
  741TIP3    H2 2230   0.523   5.289   1.336
  742TIP3   OH2 2231   4.295   0.641   4.323
  742TIP3    H1 2232   4.274   0.581   4.251
  742TIP3    H2 2233   4.339   0.715   4.280
  743TIP3   OH2 2234   0.444   2.776   3.664
  743TIP3    H1 2235   0.534   2.773   3.695
  743TIP3    H2 2236   0.452   2.788   3.569
  744TIP3   OH2 2237   4.032   4.586   0.682
  744TIP3    H1 2238   3.952   4.553   0.641
  744TIP3    H2 2239   4.035   4.679   0.657
  745TIP3   OH2 2240   1.128   5.025   0.906
  745TIP3    H1 2241   1.159   5.014   0.995
  745TIP3    H2 2242   1.207   5.042   0.855
  746TIP3   OH2 2243   2.648   5.564   1.778
  746TIP3    H1 2244   2.565   5.523   1.757
  746TIP3    H2 2245   2.674   5.524   1.862
  747TIP3   OH2 2246   1.531  -0.031   2.394
  747TIP3    H1 2247   1.489   0.005   2.473
  747TIP3    H2 2248   1.575   0.044   2.354
  748TIP3   OH2 2249   3.639   5.242   0.475
  748TIP3    H1 2250   3.679   5.326   0.450
  748TIP3    H2 2251   3.559   5.266   0.522
  749TIP3   OH2 2252   3.650   3.045   1.952
  749TIP3    H1 2253   3.562   3.026   1.918
  749TIP3    H2 2254   3.656   3.141   1.948
  750TIP3   OH2 2255   5.739   0.022   1.331
  750TIP3    H1 2256   5.797  -0.048   1.361
  750TIP3    H2 2257   5.750   0.023   1.236
  751TIP3   OH2 2258   0.715   4.922   2.898
  751TIP3    H1 2259   0.712   4.827   2.907
  751TIP3    H2 2260   0.637   4.945   2.848
  752TIP3   OH2 2261   4.150   4.709   0.149
  752TIP3    H1 2262   4.071   4.656   0.161
  752TIP3    H2 2263   4.119   4.800   0.156
  753TIP3   OH2 2264   1.896   2.526   2.835
  753TIP3    H1 2265   1.990   2.532   2.819
  753TIP3    H2 2266   1.876   2.433   2.825
  754TIP3   OH2 2267   1.348   0.723   2.662
  754TIP3    H1 2268   1.373   0.780   2.589
  754TIP3    H2 2269   1.271   0.765   2.699
  755TIP3   OH2 2270   3.137   2.342   2.440
  755TIP3    H1 2271   3.103   2.253   2.452
  755TIP3    H2 2272   3.188   2.359   2.519
  756TIP3   OH2 2273   2.099   2.305   2.887
  756TIP3    H1 2274   2.145   2.229   2.850
  756TIP3    H2 2275   2.159   2.378   2.875
  757TIP3   OH2 2276   1.918   2.773   0.416
  757TIP3    H1 2277   1.963   2.693   0.390
  757TIP3    H2 2278   1.906   2.822   0.335
  758TIP3   OH2 2279   2.281   5.306   1.519
  758TIP3    H1 2280   2.212   5.341   1.462
  758TIP3    H2 2281   2.295   5.375   1.584
  759TIP3   OH2 2282   3.075   4.892   4.498
  759TIP3    H1 2283   3.053   4.810   4.543
  759TIP3    H2 2284   3.048   4.961   4.560
  760TIP3   OH2 2285   1.553   0.670   2.254
  760TIP3    H1 2286   1.568   0.758   2.220
  760TIP3    H2 2287   1.510   0.623   2.182
  761TIP3   OH2 2288   0.118   1.967   1.035
  761TIP3    H1 2289   0.193   2.024   1.023
  761TIP3    H2 2290   0.042   2.026   1.033
  762TIP3   OH2 2291   2.618   2.033   2.130
  762TIP3    H1 2292   2.574   1.996   2.206
  762TIP3    H2 2293   2.710   2.037   2.154
  763TIP3   OH2 2294   3.259   0.820   1.829
  763TIP3    H1 2295   3.341   0.830   1.876
  763TIP3    H2 2296   3.279   0.756   1.760
  764TIP3   OH2 2297   1.472   3.307   3.184
  764TIP3    H1 2298   1.492   3.230   3.130
  764TIP3    H2 2299   1.556   3.330   3.224
  765TIP3   OH2 2300   4.894   4.183   0.157
  765TIP3    H1 2301   4.816   4.239   0.161
  765TIP3    H2 2302   4.865   4.105   0.108
  766TIP3   OH2 2303   0.826   1.739   3.159
  766TIP3    H1 2304   0.838   1.656   3.114
  766TIP3    H2 2305   0.859   1.723   3.248
  767TIP3   OH2 2306   5.759   1.647   3.748
  767TIP3    H1 2307   5.827   1.580   3.756
  767TIP3    H2 2308   5.800   1.728   3.777
  768TIP3   OH2 2309   2.843   4.152   0.210
  768TIP3    H1 2310   2.800   4.224   0.257
  768TIP3    H2 2311   2.892   4.195   0.140
  769TIP3   OH2 2312   4.125   4.588   2.381
  769TIP3    H1 2313   4.106   4.622   2.469
  769TIP3    H2 2314   4.129   4.493   2.393
  770TIP3   OH2 2315   4.660   3.982   0.917
  770TIP3    H1 2316   4.723   3.980   0.845
  770TIP3    H2 2317   4.709   3.947   0.991
  771TIP3   OH2 2318   0.731   5.641   3.812
  771TIP3    H1 2319   0.804   5.627   3.751
  771TIP3    H2 2320   0.758   5.718   3.863
  772TIP3   OH2 2321   5.105   4.676   3.572
  772TIP3    H1 2322   5.061   4.677   3.486
  772TIP3    H2 2323   5.175   4.740   3.564
  773TIP3   OH2 2324   0.080   3.126   3.126
  773TIP3    H1 2325   0.025   3.068   3.179
  773TIP3    H2 2326   0.084   3.207   3.176
  774TIP3   OH2 2327   0.810   4.117   3.778
  774TIP3    H1 2328   0.857   4.065   3.844
  774TIP3    H2 2329   0.875   4.135   3.710
  775TIP3   OH2 2330   3.110   0.599   2.944
  775TIP3    H1 2331   3.162   0.524   2.973
  775TIP3    H2 2332   3.110   0.593   2.849
  776TIP3   OH2 2333   1.677   4.758   2.629
  776TIP3    H1 2334   1.733   4.680   2.632
  776TIP3    H2 2335   1.594   4.727   2.592
  777TIP3   OH2 2336   1.191   4.371   3.415
  777TIP3    H1 2337   1.128   4.338   3.480
  777TIP3    H2 2338   1.252   4.299   3.402
  778TIP3   OH2 2339   3.176   3.624   4.946
  778TIP3    H1 2340   3.130   3.561   5.001
  778TIP3    H2 2341   3.268   3.596   4.949
  779TIP3   OH2 2342   1.075   0.767   5.083
  779TIP3    H1 2343   1.156   0.802   5.121
  779TIP3    H2 2344   1.042   0.705   5.149
  780TIP3   OH2 2345   2.163   1.632   3.546
  780TIP3    H1 2346   2.093   1.575   3.576
  780TIP3    H2 2347   2.190   1.596   3.461
  781TIP3   OH2 2348   4.310   0.587   0.801
  781TIP3    H1 2349   4.253   0.603   0.726
  781TIP3    H2 2350   4.352   0.671   0.818
  782TIP3   OH2 2351   2.259   1.161   3.712
  782TIP3    H1 2352   2.263   1.143   3.806
  782TIP3    H2 2353   2.225   1.081   3.673
  783TIP3   OH2 2354   0.329   4.385   1.350
  783TIP3    H1 2355   0.413   4.342   1.333
  783TIP3    H2 2356   0.292   4.338   1.424
  784TIP3   OH2 2357   5.432   2.175   0.261
  784TIP3    H1 2358   5.428   2.131   0.177
  784TIP3    H2 2359   5.422   2.104   0.326
  785TIP3   OH2 2360   0.034   3.180   0.478
  785TIP3    H1 2361   0.128   3.177   0.462
  785TIP3    H2 2362   0.013   3.274   0.479
  786TIP3   OH2 2363   3.071   1.526   1.791
  786TIP3    H1 2364   3.053   1.520   1.697
  786TIP3    H2 2365   2.987   1.550   1.830
  787TIP3   OH2 2366   0.696   4.118   1.811
  787TIP3    H1 2367   0.632   4.079   1.871
  787TIP3    H2 2368   0.707   4.208   1.842
  788TIP3   OH2 2369   0.959   2.601   3.244
  788TIP3    H1 2370   0.868   2.605   3.272
  788TIP3    H2 2371   0.966   2.666   3.174
  789TIP3   OH2 2372   1.694   3.825   1.565
  789TIP3    H1 2373   1.774   3.776   1.546
  789TIP3    H2 2374   1.630   3.791   1.502
  790TIP3   OH2 2375   1.153   5.102   3.828
  790TIP3    H1 2376   1.088   5.171   3.813
  790TIP3    H2 2377   1.153   5.051   3.747
  791TIP3   OH2 2378   0.711   0.268   2.856
  791TIP3    H1 2379   0.737   0.202   2.791
  791TIP3    H2 2380   0.642   0.319   2.812
  792TIP3   OH2 2381   4.327   2.899   1.555
  792TIP3    H1 2382   4.315   2.992   1.534
  792TIP3    H2 2383   4.303   2.853   1.474
  793TIP3   OH2 2384   3.961   0.775   4.043
  793TIP3    H1 2385   3.923   0.782   4.131
  793TIP3    H2 2386   3.916   0.701   4.002
  794TIP3   OH2 2387   0.285   5.541   2.748
  794TIP3    H1 2388   0.267   5.543   2.654
  794TIP3    H2 2389   0.205   5.575   2.788
  795TIP3   OH2 2390   4.099   5.757   4.658
  795TIP3    H1 2391   4.050   5.827   4.701
  795TIP3    H2 2392   4.112   5.691   4.726
  796TIP3   OH2 2393   5.295   4.892   3.862
  796TIP3    H1 2394   5.366   4.948   3.831
  796TIP3    H2 2395   5.276   4.835   3.788
  797TIP3   OH2 2396   1.403   5.655   4.137
  797TIP3    H1 2397   1.438   5.728   4.087
  797TIP3    H2 2398   1.454   5.654   4.218
  798TIP3   OH2 2399   1.856   1.716   0.806
  798TIP3    H1 2400   1.808   1.662   0.743
  798TIP3    H2 2401   1.909   1.775   0.752
  799TIP3   OH2 2402   3.600   3.231   2.477
  799TIP3    H1 2403   3.505   3.247   2.476
  799TIP3    H2 2404   3.638   3.316   2.502
  800TIP3   OH2 2405   4.481   3.032   1.022
  800TIP3    H1 2406   4.574   3.037   1.045
  800TIP3    H2 2407   4.478   3.060   0.930
  801TIP3   OH2 2408   2.971   4.951   2.130
  801TIP3    H1 2409   3.048   4.895   2.117
  801TIP3    H2 2410   2.926   4.913   2.205
  802TIP3   OH2 2411   0.186   0.928   2.307
  802TIP3    H1 2412   0.234   0.963   2.233
  802TIP3    H2 2413   0.237   0.852   2.335
  803TIP3   OH2 2414   4.242   5.214   3.292
  803TIP3    H1 2415   4.164   5.258   3.259
  803TIP3    H2 2416   4.296   5.198   3.215
  804TIP3   OH2 2417   3.809   4.296   0.200
  804TIP3    H1 2418   3.731   4.285   0.146
  804TIP3    H2 2419   3.855   4.371   0.162
  805TIP3   OH2 2420   0.290   4.880   1.929
  805TIP3    H1 2421   0.359   4.833   1.975
  805TIP3    H2 2422   0.317   4.879   1.837
  806TIP3   OH2 2423   4.356   3.983   0.891
  806TIP3    H1 2424   4.309   4.021   0.966
  806TIP3    H2 2425   4.443   4.023   0.894
  807TIP3   OH2 2426   6.052   2.647   2.595
  807TIP3    H1 2427   6.073   2.739   2.579
  807TIP3    H2 2428   6.117   2.619   2.659
  808TIP3   OH2 2429   4.297   1.265   1.818
  808TIP3    H1 2430   4.297   1.353   1.856
  808TIP3    H2 2431   4.213   1.259   1.773
  809TIP3   OH2 2432   5.277   1.014   2.893
  809TIP3    H1 2433   5.340   1.038   2.825
  809TIP3    H2 2434   5.305   0.927   2.923
  810TIP3   OH2 2435   3.075   0.495   1.021
  810TIP3    H1 2436   3.069   0.415   1.072
  810TIP3    H2 2437   3.156   0.487   0.971
  811TIP3   OH2 2438   5.266   5.212   0.818
  811TIP3    H1 2439   5.172   5.203   0.807
  811TIP3    H2 2440   5.301   5.215   0.729
  812TIP3   OH2 2441   1.208   2.840   4.668
  812TIP3    H1 2442   1.152   2.910   4.636
  812TIP3    H2 2443   1.150   2.784   4.719
  813TIP3   OH2 2444   4.560   2.343   3.672
  813TIP3    H1 2445   4.545   2.274   3.607
  813TIP3    H2 2446   4.653   2.366   3.662
  814TIP3   OH2 2447   1.616   3.915   4.025
  814TIP3    H1 2448   1.637   3.964   3.945
  814TIP3    H2 2449   1.672   3.954   4.092
  815TIP3   OH2 2450   2.135   4.921   2.859
  815TIP3    H1 2451   2.119   4.835   2.820
  815TIP3    H2 2452   2.213   4.909   2.913
  816TIP3   OH2 2453   4.612   1.678   2.546
  816TIP3    H1 2454   4.688   1.676   2.604
  816TIP3    H2 2455   4.613   1.593   2.502
  817TIP3   OH2 2456   3.599   2.017   2.879
  817TIP3    H1 2457   3.572   1.945   2.936
  817TIP3    H2 2458   3.620   1.976   2.795
  818TIP3   OH2 2459   3.875   1.051   2.774
  818TIP3    H1 2460   3.796   1.094   2.805
  818TIP3    H2 2461   3.941   1.072   2.840
  819TIP3   OH2 2462   1.641   3.361   3.717
  819TIP3    H1 2463   1.594   3.394   3.641
  819TIP3    H2 2464   1.730   3.395   3.708
  820TIP3   OH2 2465   1.594   2.015   3.854
  820TIP3    H1 2466   1.630   1.939   3.900
  820TIP3    H2 2467   1.523   2.046   3.910
  821TIP3   OH2 2468   4.468   5.566   4.117
  821TIP3    H1 2469   4.387   5.554   4.069
  821TIP3    H2 2470   4.524   5.616   4.057
  822TIP3   OH2 2471   3.688   3.336   5.187
  822TIP3    H1 2472   3.622   3.272   5.211
  822TIP3    H2 2473   3.691   3.334   5.092
  823TIP3   OH2 2474   2.097   1.044   3.048
  823TIP3    H1 2475   2.018   1.083   3.084
  823TIP3    H2 2476   2.070   0.959   3.014
  824TIP3   OH2 2477   5.600   1.936   2.724
  824TIP3    H1 2478   5.506   1.944   2.705
  824TIP3    H2 2479   5.619   1.844   2.706
  825TIP3   OH2 2480   3.465   4.294   5.143
  825TIP3    H1 2481   3.506   4.250   5.068
  825TIP3    H2 2482   3.375   4.311   5.115
  826TIP3   OH2 2483   0.881   3.557   4.900
  826TIP3    H1 2484   0.926   3.525   4.978
  826TIP3    H2 2485   0.942   3.541   4.829
  827TIP3   OH2 2486   4.755   1.917   0.284
  827TIP3    H1 2487   4.771   1.948   0.194
  827TIP3    H2 2488   4.838   1.930   0.329
  828TIP3   OH2 2489   2.799   2.553   2.604
  828TIP3    H1 2490   2.763   2.486   2.546
  828TIP3    H2 2491   2.856   2.605   2.547
  829TIP3   OH2 2492   1.136   2.646   0.296
  829TIP3    H1 2493   1.203   2.685   0.352
  829TIP3    H2 2494   1.184   2.580   0.244
  830TIP3   OH2 2495   0.415   4.910   5.145
  830TIP3    H1 2496   0.477   4.982   5.158
  830TIP3    H2 2497   0.340   4.950   5.102
  831TIP3   OH2 2498   0.677   3.318   4.154
  831TIP3    H1 2499   0.637   3.385   4.099
  831TIP3    H2 2500   0.646   3.235   4.118
  832TIP3   OH2 2501   4.468   0.890   0.052
  832TIP3    H1 2502   4.532   0.919   0.116
  832TIP3    H2 2503   4.462   0.796   0.064
  833TIP3   OH2 2504   2.257   3.228   4.995
  833TIP3    H1 2505   2.219   3.293   4.936
  833TIP3    H2 2506   2.251   3.146   4.947
  834TIP3   OH2 2507   0.908   5.874   0.929
  834TIP3    H1 2508   0.943   5.877   1.018
  834TIP3    H2 2509   0.824   5.829   0.938
  835TIP3   OH2 2510   0.819   0.193   3.090
  835TIP3    H1 2511   0.767   0.227   3.017
  835TIP3    H2 2512   0.800   0.253   3.163
  836TIP3   OH2 2513   2.490   1.231   2.461
  836TIP3    H1 2514   2.529   1.175   2.528
  836TIP3    H2 2515   2.404   1.254   2.496
  837TIP3   OH2 2516   3.840   1.035   3.970
  837TIP3    H1 2517   3.871   0.967   4.030
  837TIP3    H2 2518   3.918   1.086   3.949
  838TIP3   OH2 2519   0.080   1.714   3.540
  838TIP3    H1 2520  -0.013   1.734   3.556
  838TIP3    H2 2521   0.128   1.777   3.592
  839TIP3   OH2 2522   4.835   5.011   0.227
  839TIP3    H1 2523   4.771   4.960   0.276
  839TIP3    H2 2524   4.899   4.945   0.197
  840TIP3   OH2 2525   2.693   5.565   3.143
  840TIP3    H1 2526   2.605   5.557   3.107
  840TIP3    H2 2527   2.731   5.478   3.132
  841TIP3   OH2 2528   5.958   2.200   0.174
  841TIP3    H1 2529   5.985   2.291   0.166
  841TIP3    H2 2530   5.869   2.204   0.210
  842TIP3   OH2 2531   0.020   2.186   0.312
  842TIP3    H1 2532   0.113   2.184   0.335
  842TIP3    H2 2533  -0.020   2.119   0.368
  843TIP3   OH2 2534   5.530   1.039   2.394
  843TIP3    H1 2535   5.597   0.972   2.407
  843TIP3    H2 2536   5.453   1.004   2.439
  844TIP3   OH2 2537   4.595   4.990   1.434
  844TIP3    H1 2538   4.634   4.978   1.348
  844TIP3    H2 2539   4.501   4.978   1.420
  845TIP3   OH2 2540   3.390   5.366   2.757
  845TIP3    H1 2541   3.461   5.305   2.737
  845TIP3    H2 2542   3.396   5.433   2.689
  846TIP3   OH2 2543   5.665   1.322   3.767
  846TIP3    H1 2544   5.679   1.331   3.673
  846TIP3    H2 2545   5.751   1.299   3.803
  847TIP3   OH2 2546   5.599   0.529   2.851
  847TIP3    H1 2547   5.549   0.456   2.813
  847TIP3    H2 2548   5.608   0.506   2.943
  848TIP3   OH2 2549   0.969   2.904   2.396
  848TIP3    H1 2550   0.999   2.938   2.312
  848TIP3    H2 2551   1.012   2.958   2.462
  849TIP3   OH2 2552   2.122   1.469   1.304
  849TIP3    H1 2553   2.171   1.393   1.273
  849TIP3    H2 2554   2.089   1.442   1.390
  850TIP3   OH2 2555   1.940   2.939   1.041
  850TIP3    H1 2556   1.969   2.848   1.037
  850TIP3    H2 2557   1.960   2.966   1.131
  851TIP3   OH2 2558   6.337   1.970   1.481
  851TIP3    H1 2559   6.324   1.980   1.575
  851TIP3    H2 2560   6.368   2.055   1.451
  852TIP3   OH2 2561   2.981   5.062   0.588
  852TIP3    H1 2562   3.047   5.008   0.545
  852TIP3    H2 2563   3.023   5.094   0.668
  853TIP3   OH2 2564   2.663   0.975   1.381
  853TIP3    H1 2565   2.683   0.964   1.474
  853TIP3    H2 2566   2.569   0.961   1.375
  854TIP3   OH2 2567   6.191   4.076   0.409
  854TIP3    H1 2568   6.186   4.005   0.345
  854TIP3    H2 2569   6.282   4.078   0.436
  855TIP3   OH2 2570   4.639   0.144   1.652
  855TIP3    H1 2571   4.734   0.145   1.641
  855TIP3    H2 2572   4.626   0.144   1.746
  856TIP3   OH2 2573   4.459   0.939   2.560
  856TIP3    H1 2574   4.390   0.937   2.494
  856TIP3    H2 2575   4.413   0.961   2.642
  857TIP3   OH2 2576   0.135   3.407   2.618
  857TIP3    H1 2577   0.183   3.481   2.582
  857TIP3    H2 2578   0.086   3.443   2.691
  858TIP3   OH2 2579   1.144   4.994   4.614
  858TIP3    H1 2580   1.185   5.064   4.564
  858TIP3    H2 2581   1.194   4.989   4.695
  859TIP3   OH2 2582   1.420   0.975   2.170
  859TIP3    H1 2583   1.369   1.040   2.121
  859TIP3    H2 2584   1.502   0.967   2.121
  860TIP3   OH2 2585   0.799   2.163   3.970
  860TIP3    H1 2586   0.820   2.246   3.929
  860TIP3    H2 2587   0.809   2.098   3.900
  861TIP3   OH2 2588   6.219   3.884   1.319
  861TIP3    H1 2589   6.143   3.830   1.340
  861TIP3    H2 2590   6.279   3.869   1.392
  862TIP3   OH2 2591   0.503   2.467   1.557
  862TIP3    H1 2592   0.486   2.545   1.609
  862TIP3    H2 2593   0.503   2.499   1.466
  863TIP3   OH2 2594   2.141   4.349   3.645
  863TIP3    H1 2595   2.196   4.372   3.719
  863TIP3    H2 2596   2.118   4.432   3.604
  864TIP3   OH2 2597   4.575   2.899   1.340
  864TIP3    H1 2598   4.586   2.845   1.261
  864TIP3    H2 2599   4.574   2.836   1.412
  865TIP3   OH2 2600   5.589   0.826   3.879
  865TIP3    H1 2601   5.548   0.846   3.795
  865TIP3    H2 2602   5.668   0.777   3.856
  866TIP3   OH2 2603   1.704   0.010   3.743
  866TIP3    H1 2604   1.670  -0.060   3.688
  866TIP3    H2 2605   1.757   0.064   3.683
  867TIP3   OH2 2606   4.039   3.004   2.712
  867TIP3    H1 2607   4.057   3.057   2.790
  867TIP3    H2 2608   4.125   2.993   2.670
  868TIP3   OH2 2609   2.908   2.935   3.342
  868TIP3    H1 2610   2.928   2.862   3.401
  868TIP3    H2 2611   2.989   2.949   3.293
  869TIP3   OH2 2612   0.327   0.652   2.372
  869TIP3    H1 2613   0.381   0.596   2.429
  869TIP3    H2 2614   0.341   0.618   2.284
  870TIP3   OH2 2615   1.510   3.890   4.711
  870TIP3    H1 2616   1.595   3.897   4.754
  870TIP3    H2 2617   1.446   3.910   4.780
  871TIP3   OH2 2618   0.516   1.827   1.102
  871TIP3    H1 2619   0.494   1.853   1.012
  871TIP3    H2 2620   0.480   1.897   1.156
  872TIP3   OH2 2621   1.337   4.560   2.236
  872TIP3    H1 2622   1.424   4.598   2.231
  872TIP3    H2 2623   1.346   4.473   2.197
  873TIP3   OH2 2624   1.216   4.681   3.872
  873TIP3    H1 2625   1.269   4.727   3.807
  873TIP3    H2 2626   1.250   4.592   3.872
  874TIP3   OH2 2627   4.314   5.660   3.418
  874TIP3    H1 2628   4.219   5.663   3.417
  874TIP3    H2 2629   4.335   5.573   3.452
  875TIP3   OH2 2630   3.763   1.114   2.190
  875TIP3    H1 2631   3.758   1.206   2.217
  875TIP3    H2 2632   3.696   1.105   2.123
  876TIP3   OH2 2633   4.811   1.885   4.159
  876TIP3    H1 2634   4.750   1.843   4.220
  876TIP3    H2 2635   4.824   1.973   4.195
  877TIP3   OH2 2636   3.191   3.197   0.902
  877TIP3    H1 2637   3.275   3.236   0.926
  877TIP3    H2 2638   3.189   3.114   0.949
  878TIP3   OH2 2639   2.623   4.412   0.635
  878TIP3    H1 2640   2.662   4.376   0.555
  878TIP3    H2 2641   2.604   4.335   0.689
  879TIP3   OH2 2642   0.409   3.038   1.610
  879TIP3    H1 2643   0.385   3.012   1.699
  879TIP3    H2 2644   0.335   3.090   1.579
  880TIP3   OH2 2645   1.437   2.264   4.150
  880TIP3    H1 2646   1.400   2.198   4.093
  880TIP3    H2 2647   1.362   2.316   4.179
  881TIP3   OH2 2648   1.051   5.137   4.281
  881TIP3    H1 2649   1.130   5.087   4.302
  881TIP3    H2 2650   0.982   5.070   4.275
  882TIP3   OH2 2651   2.997   0.699   3.379
  882TIP3    H1 2652   3.080   0.738   3.406
  882TIP3    H2 2653   2.933   0.769   3.392
  883TIP3   OH2 2654   3.899   4.795   0.460
  883TIP3    H1 2655   3.973   4.810   0.519
  883TIP3    H2 2656   3.889   4.878   0.413
  884TIP3   OH2 2657   3.422   1.908   4.424
  884TIP3    H1 2658   3.474   1.912   4.504
  884TIP3    H2 2659   3.443   1.824   4.384
  885TIP3   OH2 2660   5.696   4.179   0.773
  885TIP3    H1 2661   5.685   4.149   0.682
  885TIP3    H2 2662   5.693   4.098   0.825
  886TIP3   OH2 2663   3.160   0.386   0.600
  886TIP3    H1 2664   3.157   0.323   0.672
  886TIP3    H2 2665   3.248   0.424   0.605
  887TIP3   OH2 2666   3.376   4.873   4.194
  887TIP3    H1 2667   3.318   4.814   4.242
  887TIP3    H2 2668   3.323   4.952   4.181
  888TIP3   OH2 2669   5.322   2.421   3.485
  888TIP3    H1 2670   5.236   2.461   3.502
  888TIP3    H2 2671   5.375   2.492   3.450
  889TIP3   OH2 2672   1.622   4.479   3.909
  889TIP3    H1 2673   1.593   4.486   3.818
  889TIP3    H2 2674   1.555   4.426   3.951
  890TIP3   OH2 2675   1.587   0.380   3.145
  890TIP3    H1 2676   1.654   0.364   3.211
  890TIP3    H2 2677   1.633   0.375   3.062
  891TIP3   OH2 2678   1.397   2.661   4.602
  891TIP3    H1 2679   1.364   2.737   4.650
  891TIP3    H2 2680   1.338   2.653   4.527
  892TIP3   OH2 2681   1.084   0.949   4.277
  892TIP3    H1 2682   1.022   0.878   4.295
  892TIP3    H2 2683   1.032   1.029   4.287
  893TIP3   OH2 2684   5.078   4.671   1.692
  893TIP3    H1 2685   5.151   4.609   1.697
  893TIP3    H2 2686   5.035   4.665   1.777
  894TIP3   OH2 2687   3.450   0.952   1.160
  894TIP3    H1 2688   3.437   1.016   1.090
  894TIP3    H2 2689   3.541   0.922   1.149
  895TIP3   OH2 2690   3.674   3.653   1.916
  895TIP3    H1 2691   3.767   3.677   1.914
  895TIP3    H2 2692   3.656   3.636   2.009
  896TIP3   OH2 2693   0.334   4.174   0.990
  896TIP3    H1 2694   0.243   4.201   0.982
  896TIP3    H2 2695   0.332   4.099   1.049
  897TIP3   OH2 2696   6.143   4.736   3.385
  897TIP3    H1 2697   6.058   4.761   3.348
  897TIP3    H2 2698   6.192   4.702   3.310
  898TIP3   OH2 2699   1.844   2.529   3.956
  898TIP3    H1 2700   1.787   2.454   3.940
  898TIP3    H2 2701   1.840   2.543   4.050
  899TIP3   OH2 2702   0.882   5.617   3.149
  899TIP3    H1 2703   0.935   5.696   3.143
  899TIP3    H2 2704   0.941   5.546   3.126
  900TIP3   OH2 2705   0.779   1.638   4.804
  900TIP3    H1 2706   0.748   1.691   4.730
  900TIP3    H2 2707   0.716   1.566   4.811
  901TIP3   OH2 2708   2.756   0.086   3.056
  901TIP3    H1 2709   2.692   0.107   3.124
  901TIP3    H2 2710   2.788  -0.001   3.079
  902TIP3   OH2 2711   1.457   5.691   2.539
  902TIP3    H1 2712   1.536   5.739   2.518
  902TIP3    H2 2713   1.400   5.754   2.583
  903TIP3   OH2 2714   2.300   5.057   5.171
  903TIP3    H1 2715   2.329   5.129   5.115
  903TIP3    H2 2716   2.380   5.006   5.186
  904TIP3   OH2 2717   5.908   3.685   3.811
  904TIP3    H1 2718   5.851   3.658   3.738
  904TIP3    H2 2719   5.994   3.695   3.771
  905TIP3   OH2 2720   5.738   3.885   3.958
  905TIP3    H1 2721   5.775   3.879   3.870
  905TIP3    H2 2722   5.708   3.976   3.966
  906TIP3   OH2 2723   2.562   0.337   3.196
  906TIP3    H1 2724   2.635   0.283   3.165
  906TIP3    H2 2725   2.555   0.316   3.289
  907TIP3   OH2 2726   4.258   1.201   4.860
  907TIP3    H1 2727   4.171   1.240   4.851
  907TIP3    H2 2728   4.289   1.190   4.770
  908TIP3   OH2 2729   6.084   1.369   4.731
  908TIP3    H1 2730   5.998   1.408   4.717
  908TIP3    H2 2731   6.089   1.297   4.669
  909TIP3   OH2 2732   1.018   3.053   4.023
  909TIP3    H1 2733   1.060   3.004   3.951
  909TIP3    H2 2734   0.930   3.016   4.028
  910TIP3   OH2 2735   2.373   0.612   2.546
  910TIP3    H1 2736   2.377   0.548   2.616
  910TIP3    H2 2737   2.347   0.694   2.589
  911TIP3   OH2 2738   4.004   5.378   3.421
  911TIP3    H1 2739   4.018   5.357   3.513
  911TIP3    H2 2740   4.009   5.474   3.417
  912TIP3   OH2 2741   4.940   5.631   1.398
  912TIP3    H1 2742   4.899   5.705   1.443
  912TIP3    H2 2743   5.016   5.609   1.453
  913TIP3   OH2 2744   4.870   3.935   1.184
  913TIP3    H1 2745   4.876   4.029   1.201
  913TIP3    H2 2746   4.956   3.901   1.209
  914TIP3   OH2 2747   2.097   1.201   3.415
  914TIP3    H1 2748   2.120   1.224   3.505
  914TIP3    H2 2749   2.054   1.116   3.422
  915TIP3   OH2 2750   3.514   0.512   1.232
  915TIP3    H1 2751   3.537   0.598   1.267
  915TIP3    H2 2752   3.561   0.450   1.288
  916TIP3   OH2 2753   2.488   4.491   2.692
  916TIP3    H1 2754   2.546   4.524   2.623
  916TIP3    H2 2755   2.457   4.407   2.658
  917TIP3   OH2 2756   4.269   3.116   0.567
  917TIP3    H1 2757   4.258   3.155   0.480
  917TIP3    H2 2758   4.238   3.183   0.627
  918TIP3   OH2 2759   2.289   3.687   1.692
  918TIP3    H1 2760   2.310   3.779   1.704
  918TIP3    H2 2761   2.312   3.669   1.601
  919TIP3   OH2 2762   5.943   0.898   4.466
  919TIP3    H1 2763   5.911   0.821   4.514
  919TIP3    H2 2764   5.865   0.952   4.453
  920TIP3   OH2 2765   1.989   2.663   0.671
  920TIP3    H1 2766   2.066   2.709   0.704
  920TIP3    H2 2767   1.952   2.722   0.605
  921TIP3   OH2 2768   2.164   5.782   1.165
  921TIP3    H1 2769   2.114   5.770   1.245
  921TIP3    H2 2770   2.234   5.718   1.170
  922TIP3   OH2 2771   0.758   2.971   0.739
  922TIP3    H1 2772   0.818   2.973   0.813
  922TIP3    H2 2773   0.672   2.984   0.777
  923TIP3   OH2 2774   5.146   2.446   2.819
  923TIP3    H1 2775   5.219   2.462   2.759
  923TIP3    H2 2776   5.074   2.499   2.784
  924TIP3   OH2 2777   3.309   4.033   4.644
  924TIP3    H1 2778   3.342   3.965   4.586
  924TIP3    H2 2779   3.252   4.086   4.588
  925TIP3   OH2 2780   1.447   3.340   0.849
  925TIP3    H1 2781   1.409   3.265   0.804
  925TIP3    H2 2782   1.413   3.416   0.802
  926TIP3   OH2 2783   0.892   2.311   1.315
  926TIP3    H1 2784   0.965   2.366   1.287
  926TIP3    H2 2785   0.837   2.368   1.368
  927TIP3   OH2 2786   3.897   0.530   4.535
  927TIP3    H1 2787   3.805   0.512   4.517
  927TIP3    H2 2788   3.902   0.540   4.630
  928TIP3   OH2 2789   0.997   4.160   4.974
  928TIP3    H1 2790   1.029   4.248   4.995
  928TIP3    H2 2791   1.006   4.154   4.879
  929TIP3   OH2 2792   4.105   5.400   0.784
  929TIP3    H1 2793   4.116   5.306   0.797
  929TIP3    H2 2794   4.054   5.429   0.860
  930TIP3   OH2 2795   6.084   2.984   4.020
  930TIP3    H1 2796   6.171   2.995   4.059
  930TIP3    H2 2797   6.050   3.073   4.012
  931TIP3   OH2 2798   2.666   0.154   1.518
  931TIP3    H1 2799   2.755   0.138   1.487
  931TIP3    H2 2800   2.625   0.068   1.517
  932TIP3   OH2 2801   1.506   1.815   0.593
  932TIP3    H1 2802   1.423   1.862   0.604
  932TIP3    H2 2803   1.559   1.872   0.537
  933TIP3   OH2 2804   2.547   0.958   4.050
  933TIP3    H1 2805   2.533   0.916   4.134
  933TIP3    H2 2806   2.604   1.032   4.069
  934TIP3   OH2 2807   2.033   3.046   3.427
  934TIP3    H1 2808   2.070   3.125   3.466
  934TIP3    H2 2809   1.976   3.010   3.495
  935TIP3   OH2 2810   4.078   0.354   4.921
  935TIP3    H1 2811   4.029   0.344   4.840
  935TIP3    H2 2812   4.105   0.446   4.923
  936TIP3   OH2 2813   5.561   0.803   4.842
  936TIP3    H1 2814   5.549   0.781   4.935
  936TIP3    H2 2815   5.557   0.899   4.840
  937TIP3   OH2 2816   2.739   0.755   1.981
  937TIP3    H1 2817   2.663   0.784   2.032
  937TIP3    H2 2818   2.787   0.835   1.962
  938TIP3   OH2 2819   1.180   1.875   4.669
  938TIP3    H1 2820   1.249   1.810   4.682
  938TIP3    H2 2821   1.170   1.882   4.574
  939TIP3   OH2 2822   6.125   3.578   2.596
  939TIP3    H1 2823   6.140   3.630   2.675
  939TIP3    H2 2824   6.155   3.633   2.524
  940TIP3   OH2 2825   0.326   1.132   3.344
  940TIP3    H1 2826   0.406   1.119   3.292
  940TIP3    H2 2827   0.354   1.183   3.420
  941TIP3   OH2 2828   3.262   5.314   0.135
  941TIP3    H1 2829   3.339   5.320   0.078
  941TIP3    H2 2830   3.203   5.383   0.104
  942TIP3   OH2 2831   0.909   3.265   0.339
  942TIP3    H1 2832   0.932   3.172   0.346
  942TIP3    H2 2833   0.921   3.300   0.427
  943TIP3   OH2 2834   4.446   2.190   2.304
  943TIP3    H1 2835   4.401   2.167   2.385
  943TIP3    H2 2836   4.537   2.162   2.318
  944TIP3   OH2 2837   0.599   1.738   0.477
  944TIP3    H1 2838   0.682   1.697   0.457
  944TIP3    H2 2839   0.621   1.814   0.530
  945TIP3   OH2 2840   5.124   1.741   0.182
  945TIP3    H1 2841   5.138   1.741   0.087
  945TIP3    H2 2842   5.115   1.834   0.205
  946TIP3   OH2 2843   4.156   1.324   0.646
  946TIP3    H1 2844   4.157   1.230   0.625
  946TIP3    H2 2845   4.165   1.368   0.562
  947TIP3   OH2 2846   3.829   2.019   4.321
  947TIP3    H1 2847   3.879   1.960   4.378
  947TIP3    H2 2848   3.785   1.961   4.259
  948TIP3   OH2 2849   6.013   1.388   3.493
  948TIP3    H1 2850   5.951   1.316   3.498
  948TIP3    H2 2851   5.980   1.452   3.556
  949TIP3   OH2 2852   5.948   4.486   1.900
  949TIP3    H1 2853   6.039   4.516   1.903
  949TIP3    H2 2854   5.954   4.392   1.888
  950TIP3   OH2 2855   3.718   2.419   4.854
  950TIP3    H1 2856   3.631   2.440   4.820
  950TIP3    H2 2857   3.729   2.476   4.930
  951TIP3   OH2 2858   5.085   5.144   1.210
  951TIP3    H1 2859   5.044   5.180   1.131
  951TIP3    H2 2860   5.022   5.160   1.280
  952TIP3   OH2 2861   4.338   0.344   0.636
  952TIP3    H1 2862   4.376   0.416   0.585
  952TIP3    H2 2863   4.320   0.382   0.722
  953TIP3   OH2 2864   5.323   3.622   1.535
  953TIP3    H1 2865   5.351   3.699   1.485
  953TIP3    H2 2866   5.230   3.637   1.552
  954TIP3   OH2 2867   0.736   3.267   2.959
  954TIP3    H1 2868   0.739   3.307   3.046
  954TIP3    H2 2869   0.813   3.210   2.956
  955TIP3   OH2 2870   5.286   0.525   4.087
  955TIP3    H1 2871   5.249   0.612   4.104
  955TIP3    H2 2872   5.372   0.528   4.129
  956TIP3   OH2 2873   3.438   5.125   1.855
  956TIP3    H1 2874   3.388   5.202   1.884
  956TIP3    H2 2875   3.383   5.051   1.879
  957TIP3   OH2 2876   0.549   5.343   3.762
  957TIP3    H1 2877   0.555   5.248   3.771
  957TIP3    H2 2878   0.455   5.362   3.760
  958TIP3   OH2 2879   0.867   1.924   0.276
  958TIP3    H1 2880   0.862   1.938   0.182
  958TIP3    H2 2881   0.939   1.863   0.288
  959TIP3   OH2 2882   3.428   1.341   3.306
  959TIP3    H1 2883   3.474   1.269   3.261
  959TIP3    H2 2884   3.403   1.304   3.390
  960TIP3   OH2 2885   0.918   0.940   3.389
  960TIP3    H1 2886   0.931   0.847   3.407
  960TIP3    H2 2887   0.851   0.967   3.452
  961TIP3   OH2 2888   2.121   4.672   4.907
  961TIP3    H1 2889   2.132   4.635   4.819
  961TIP3    H2 2890   2.208   4.664   4.947
  962TIP3   OH2 2891   0.719   5.862   0.202
  962TIP3    H1 2892   0.633   5.838   0.168
  962TIP3    H2 2893   0.722   5.957   0.195
  963TIP3   OH2 2894   3.298   1.026   4.629
  963TIP3    H1 2895   3.319   0.992   4.542
  963TIP3    H2 2896   3.211   1.066   4.618
  964TIP3   OH2 2897   2.540   0.355   2.181
  964TIP3    H1 2898   2.550   0.383   2.090
  964TIP3    H2 2899   2.446   0.345   2.193
  965TIP3   OH2 2900   1.557   1.677   2.773
  965TIP3    H1 2901   1.629   1.667   2.835
  965TIP3    H2 2902   1.479   1.690   2.828
  966TIP3   OH2 2903   5.631   5.169   0.409
  966TIP3    H1 2904   5.607   5.102   0.346
  966TIP3    H2 2905   5.682   5.233   0.358
  967TIP3   OH2 2906   5.549   3.686   2.082
  967TIP3    H1 2907   5.541   3.646   1.996
  967TIP3    H2 2908   5.591   3.771   2.065
  968TIP3   OH2 2909   3.780   1.394   3.494
  968TIP3    H1 2910   3.731   1.335   3.436
  968TIP3    H2 2911   3.754   1.366   3.582
  969TIP3   OH2 2912   0.200   4.267   0.538
  969TIP3    H1 2913   0.239   4.309   0.461
  969TIP3    H2 2914   0.208   4.332   0.608
  970TIP3   OH2 2915   0.590   3.466   3.613
  970TIP3    H1 2916   0.564   3.522   3.540
  970TIP3    H2 2917   0.684   3.478   3.621
  971TIP3   OH2 2918   4.948   5.828   2.747
  971TIP3    H1 2919   4.969   5.916   2.714
  971TIP3    H2 2920   4.862   5.838   2.787
  972TIP3   OH2 2921   1.928   5.611   1.189
  972TIP3    H1 2922   1.864   5.681   1.172
  972TIP3    H2 2923   1.965   5.633   1.274
  973TIP3   OH2 2924   0.475   3.438   3.963
  973TIP3    H1 2925   0.413   3.500   4.003
  973TIP3    H2 2926   0.452   3.354   4.002
  974TIP3   OH2 2927   5.643   1.658   1.905
  974TIP3    H1 2928   5.736   1.637   1.909
  974TIP3    H2 2929   5.607   1.626   1.988
  975TIP3   OH2 2930   2.519   0.768   4.981
  975TIP3    H1 2931   2.479   0.715   4.912
  975TIP3    H2 2932   2.583   0.822   4.935
  976TIP3   OH2 2933   3.410   3.053   4.257
  976TIP3    H1 2934   3.359   3.126   4.221
  976TIP3    H2 2935   3.378   3.045   4.347
  977TIP3   OH2 2936   2.107   0.108   2.870
  977TIP3    H1 2937   2.063   0.117   2.786
  977TIP3    H2 2938   2.201   0.114   2.849
  978TIP3   OH2 2939   1.245   3.932   4.831
  978TIP3    H1 2940   1.176   3.997   4.815
  978TIP3    H2 2941   1.274   3.950   4.921
  979TIP3   OH2 2942   1.421   1.709   4.587
  979TIP3    H1 2943   1.399   1.653   4.662
  979TIP3    H2 2944   1.510   1.739   4.605
  980TIP3   OH2 2945   1.577   2.430   1.447
  980TIP3    H1 2946   1.547   2.521   1.441
  980TIP3    H2 2947   1.625   2.415   1.365
  981TIP3   OH2 2948   1.168   2.991   2.577
  981TIP3    H1 2949   1.249   2.973   2.530
  981TIP3    H2 2950   1.166   2.927   2.648
  982TIP3   OH2 2951   5.239   1.682   4.123
  982TIP3    H1 2952   5.193   1.607   4.160
  982TIP3    H2 2953   5.289   1.646   4.050
  983TIP3   OH2 2954   5.483   5.578   2.055
  983TIP3    H1 2955   5.446   5.557   1.969
  983TIP3    H2 2956   5.454   5.668   2.071
  984TIP3   OH2 2957   0.379   3.447   0.237
  984TIP3    H1 2958   0.439   3.384   0.197
  984TIP3    H2 2959   0.405   3.450   0.329
  985TIP3   OH2 2960   5.602   0.458   3.103
  985TIP3    H1 2961   5.692   0.445   3.132
  985TIP3    H2 2962   5.550   0.457   3.183
  986TIP3   OH2 2963   6.269   5.182   3.022
  986TIP3    H1 2964   6.357   5.170   2.987
  986TIP3    H2 2965   6.267   5.273   3.052
  987TIP3   OH2 2966   3.687   0.862   1.059
  987TIP3    H1 2967   3.717   0.822   0.977
  987TIP3    H2 2968   3.762   0.916   1.088
  988TIP3   OH2 2969   3.391   2.488   2.503
  988TIP3    H1 2970   3.352   2.444   2.578
  988TIP3    H2 2971   3.465   2.432   2.479
  989TIP3   OH2 2972   2.795   0.095   0.633
  989TIP3    H1 2973   2.870   0.077   0.576
  989TIP3    H2 2974   2.807   0.185   0.662
  990TIP3   OH2 2975   3.345   2.203   3.428
  990TIP3    H1 2976   3.434   2.223   3.457
  990TIP3    H2 2977   3.334   2.251   3.346
  991TIP3   OH2 2978   2.587   3.575   1.773
  991TIP3    H1 2979   2.583   3.650   1.832
  991TIP3    H2 2980   2.632   3.608   1.695
  992TIP3   OH2 2981   1.531   4.741   1.753
  992TIP3    H1 2982   1.510   4.695   1.835
  992TIP3    H2 2983   1.446   4.771   1.721
  993TIP3   OH2 2984   4.483   4.357   1.471
  993TIP3    H1 2985   4.568   4.386   1.438
  993TIP3    H2 2986   4.454   4.291   1.407
  994TIP3   OH2 2987   0.213   0.929   4.381
  994TIP3    H1 2988   0.173   0.916   4.466
  994TIP3    H2 2989   0.264   1.010   4.390
  995TIP3   OH2 2990   1.330   0.553   1.659
  995TIP3    H1 2991   1.297   0.523   1.574
  995TIP3    H2 2992   1.381   0.631   1.639
  996TIP3   OH2 2993   5.842   1.150   4.235
  996TIP3    H1 2994   5.926   1.154   4.189
  996TIP3    H2 2995   5.791   1.085   4.187
  997TIP3   OH2 2996   4.909   4.206   2.230
  997TIP3    H1 2997   4.943   4.270   2.293
  997TIP3    H2 2998   4.834   4.250   2.190
  998TIP3   OH2 2999   6.336   3.451   4.744
  998TIP3    H1 3000   6.334   3.446   4.840
  998TIP3    H2 3001   6.399   3.383   4.718
  999TIP3   OH2 3002   1.394   3.509   2.705
  999TIP3    H1 3003   1.464   3.466   2.755
  999TIP3    H2 3004   1.433   3.530   2.621
 1000TIP3   OH2 3005   4.674   1.889   2.173
 1000TIP3    H1 3006   4.597   1.833   2.177
 1000TIP3    H2 3007   4.726   1.854   2.101
 1001TIP3   OH2 3008   2.405   3.939   4.848
 1001TIP3    H1 3009   2.491   3.978   4.832
 1001TIP3    H2 3010   2.418   3.845   4.838
 1002TIP3   OH2 3011   4.964   5.393   4.449
 1002TIP3    H1 3012   5.015   5.319   4.416
 1002TIP3    H2 3013   5.009   5.470   4.414
 1003TIP3   OH2 3014   0.550   3.421   2.302
 1003TIP3    H1 3015   0.619   3.416   2.368
 1003TIP3    H2 3016   0.480   3.471   2.345
 1004TIP3   OH2 3017   3.001   5.256   1.109
 1004TIP3    H1 3018   3.077   5.200   1.127
 1004TIP3    H2 3019   3.039   5.340   1.085
 1005TIP3   OH2 3020   1.945   2.898   2.020
 1005TIP3    H1 3021   1.958   2.933   2.108
 1005TIP3    H2 3022   1.940   2.803   2.033
 1006TIP3   OH2 3023   5.960   5.014   2.342
 1006TIP3    H1 3024   6.001   5.014   2.256
 1006TIP3    H2 3025   5.969   4.924   2.373
 1007TIP3   OH2 3026   3.867   2.060   2.338
 1007TIP3    H1 3027   3.788   2.025   2.297
 1007TIP3    H2 3028   3.836   2.132   2.393
 1008TIP3   OH2 3029   2.247   3.903   1.068
 1008TIP3    H1 3030   2.342   3.907   1.072
 1008TIP3    H2 3031   2.218   3.924   1.156
 1009TIP3   OH2 3032   3.649   1.264   2.834
 1009TIP3    H1 3033   3.742   1.286   2.834
 1009TIP3    H2 3034   3.611   1.322   2.768
 1010TIP3   OH2 3035   4.382   3.294   2.610
 1010TIP3    H1 3036   4.477   3.307   2.605
 1010TIP3    H2 3037   4.355   3.347   2.685
 1011TIP3   OH2 3038   5.849   2.935   3.103
 1011TIP3    H1 3039   5.884   2.966   3.187
 1011TIP3    H2 3040   5.807   3.011   3.064
 1012TIP3   OH2 3041   4.257   5.615   3.893
 1012TIP3    H1 3042   4.276   5.596   3.801
 1012TIP3    H2 3043   4.214   5.701   3.891
 1013TIP3   OH2 3044   1.429   0.975   2.820
 1013TIP3    H1 3045   1.496   0.924   2.774
 1013TIP3    H2 3046   1.357   0.914   2.834
 1014TIP3   OH2 3047   3.515   2.200   4.722
 1014TIP3    H1 3048   3.442   2.240   4.674
 1014TIP3    H2 3049   3.535   2.262   4.792
 1015TIP3   OH2 3050   5.099   0.806   4.301
 1015TIP3    H1 3051   5.025   0.746   4.291
 1015TIP3    H2 3052   5.109   0.845   4.214
 1016TIP3   OH2 3053   1.883   2.624   1.780
 1016TIP3    H1 3054   1.899   2.653   1.690
 1016TIP3    H2 3055   1.807   2.566   1.773
 1017TIP3   OH2 3056   4.276   0.665   3.457
 1017TIP3    H1 3057   4.265   0.752   3.495
 1017TIP3    H2 3058   4.199   0.653   3.402
 1018TIP3   OH2 3059   5.121   4.987   3.126
 1018TIP3    H1 3060   5.105   4.922   3.195
 1018TIP3    H2 3061   5.059   4.963   3.057
 1019TIP3   OH2 3062   1.335   2.953   4.441
 1019TIP3    H1 3063   1.313   2.863   4.466
 1019TIP3    H2 3064   1.304   2.961   4.351
 1020TIP3   OH2 3065   0.332   2.928   3.145
 1020TIP3    H1 3066   0.267   2.867   3.108
 1020TIP3    H2 3067   0.295   3.015   3.129
 1021TIP3   OH2 3068   5.368   2.614   1.742
 1021TIP3    H1 3069   5.276   2.592   1.729
 1021TIP3    H2 3070   5.406   2.614   1.654
 1022TIP3   OH2 3071   5.113   4.120   4.109
 1022TIP3    H1 3072   5.149   4.192   4.055
 1022TIP3    H2 3073   5.040   4.160   4.156
 1023TIP3   OH2 3074   3.286   0.446   3.084
 1023TIP3    H1 3075   3.230   0.387   3.135
 1023TIP3    H2 3076   3.306   0.517   3.144
 1024TIP3   OH2 3077   1.772   0.980   0.892
 1024TIP3    H1 3078   1.830   0.952   0.963
 1024TIP3    H2 3079   1.811   0.943   0.813
 1025TIP3   OH2 3080   5.314   4.558   4.147
 1025TIP3    H1 3081   5.390   4.615   4.163
 1025TIP3    H2 3082   5.250   4.615   4.105
 1026TIP3   OH2 3083   5.753   5.629   1.742
 1026TIP3    H1 3084   5.810   5.701   1.713
 1026TIP3    H2 3085   5.668   5.670   1.756
 1027TIP3   OH2 3086   4.500   0.984   3.750
 1027TIP3    H1 3087   4.481   0.976   3.657
 1027TIP3    H2 3088   4.477   1.075   3.772
 1028TIP3   OH2 3089   3.027   2.180   4.363
 1028TIP3    H1 3090   2.980   2.113   4.314
 1028TIP3    H2 3091   3.103   2.134   4.399
 1029TIP3   OH2 3092   0.498   4.979   1.319
 1029TIP3    H1 3093   0.543   4.968   1.235
 1029TIP3    H2 3094   0.504   5.072   1.337
 1030TIP3   OH2 3095   6.183   5.246   0.387
 1030TIP3    H1 3096   6.110   5.244   0.449
 1030TIP3    H2 3097   6.143   5.226   0.303
 1031TIP3   OH2 3098   2.088   4.916   4.731
 1031TIP3    H1 3099   2.144   4.887   4.802
 1031TIP3    H2 3100   2.013   4.856   4.733
 1032TIP3   OH2 3101   6.287   0.461   0.507
 1032TIP3    H1 3102   6.359   0.469   0.445
 1032TIP3    H2 3103   6.269   0.550   0.536
 1033TIP3   OH2 3104   0.203   1.820   4.015
 1033TIP3    H1 3105   0.116   1.797   3.983
 1033TIP3    H2 3106   0.250   1.851   3.937
 1034TIP3   OH2 3107   2.891   2.954   0.680
 1034TIP3    H1 3108   2.926   2.996   0.601
 1034TIP3    H2 3109   2.966   2.947   0.739
 1035TIP3   OH2 3110   1.732   1.990   0.502
 1035TIP3    H1 3111   1.758   2.080   0.485
 1035TIP3    H2 3112   1.748   1.945   0.419
 1036TIP3   OH2 3113   3.131   1.765   2.865
 1036TIP3    H1 3114   3.090   1.686   2.830
 1036TIP3    H2 3115   3.217   1.736   2.896
 1037TIP3   OH2 3116   4.288   0.118   3.309
 1037TIP3    H1 3117   4.353   0.144   3.375
 1037TIP3    H2 3118   4.248   0.201   3.281
 1038TIP3   OH2 3119   3.351   0.642   0.427
 1038TIP3    H1 3120   3.376   0.557   0.461
 1038TIP3    H2 3121   3.421   0.701   0.454
 1039TIP3   OH2 3122   2.695   2.030   4.928
 1039TIP3    H1 3123   2.639   2.066   4.997
 1039TIP3    H2 3124   2.638   1.972   4.878
 1040TIP3   OH2 3125   0.725  -0.040   1.277
 1040TIP3    H1 3126   0.700   0.052   1.282
 1040TIP3    H2 3127   0.814  -0.043   1.312
 1041TIP3   OH2 3128   0.570   0.091   3.981
 1041TIP3    H1 3129   0.557   0.006   4.023
 1041TIP3    H2 3130   0.481   0.127   3.972
 1042TIP3   OH2 3131   5.743   2.077   3.893
 1042TIP3    H1 3132   5.822   2.030   3.867
 1042TIP3    H2 3133   5.683   2.009   3.924
 1043TIP3   OH2 3134   3.279   0.050   1.885
 1043TIP3    H1 3135   3.204   0.017   1.934
 1043TIP3    H2 3136   3.241   0.093   1.809
 1044TIP3   OH2 3137   5.338   5.774   3.182
 1044TIP3    H1 3138   5.390   5.705   3.224
 1044TIP3    H2 3139   5.247   5.747   3.195
 1045TIP3   OH2 3140   2.954   2.466   0.291
 1045TIP3    H1 3141   2.950   2.415   0.372
 1045TIP3    H2 3142   2.959   2.557   0.320
 1046TIP3   OH2 3143   2.188   0.042   3.620
 1046TIP3    H1 3144   2.228   0.124   3.646
 1046TIP3    H2 3145   2.233   0.017   3.540
 1047TIP3   OH2 3146   3.081   4.063   4.112
 1047TIP3    H1 3147   3.000   4.111   4.128
 1047TIP3    H2 3148   3.052   3.973   4.093
 1048TIP3   OH2 3149   0.643   0.089   3.330
 1048TIP3    H1 3150   0.721   0.067   3.278
 1048TIP3    H2 3151   0.647   0.030   3.405
 1049TIP3   OH2 3152   5.104   4.969   4.554
 1049TIP3    H1 3153   5.141   4.905   4.613
 1049TIP3    H2 3154   5.136   4.944   4.467
 1050TIP3   OH2 3155   1.416   3.989   2.568
 1050TIP3    H1 3156   1.325   3.964   2.586
 1050TIP3    H2 3157   1.409   4.065   2.510
 1051TIP3   OH2 3158   4.870   1.764   3.673
 1051TIP3    H1 3159   4.874   1.854   3.706
 1051TIP3    H2 3160   4.845   1.773   3.581
 1052TIP3   OH2 3161   0.225   2.993   2.471
 1052TIP3    H1 3162   0.267   3.045   2.403
 1052TIP3    H2 3163   0.252   3.035   2.553
 1053TIP3   OH2 3164   3.699   0.119   0.690
 1053TIP3    H1 3165   3.614   0.133   0.648
 1053TIP3    H2 3166   3.692   0.163   0.775
 1054TIP3   OH2 3167   0.662   0.165   4.585
 1054TIP3    H1 3168   0.734   0.104   4.573
 1054TIP3    H2 3169   0.693   0.227   4.651
 1055TIP3   OH2 3170   0.464   5.277   4.582
 1055TIP3    H1 3171   0.381   5.323   4.574
 1055TIP3    H2 3172   0.498   5.272   4.492
 1056TIP3   OH2 3173   3.949   4.666   3.022
 1056TIP3    H1 3174   3.970   4.754   3.052
 1056TIP3    H2 3175   3.897   4.628   3.093
 1057TIP3   OH2 3176   0.984   0.252   4.047
 1057TIP3    H1 3177   0.893   0.283   4.053
 1057TIP3    H2 3178   1.023   0.306   3.978
 1058TIP3   OH2 3179   4.869   0.031   2.208
 1058TIP3    H1 3180   4.903   0.108   2.253
 1058TIP3    H2 3181   4.784   0.014   2.250
 1059TIP3   OH2 3182   4.075   1.737   1.762
 1059TIP3    H1 3183   4.026   1.728   1.680
 1059TIP3    H2 3184   4.023   1.796   1.816
 1060TIP3   OH2 3185   0.033   0.718   0.939
 1060TIP3    H1 3186   0.103   0.709   0.874
 1060TIP3    H2 3187   0.070   0.681   1.019
 1061TIP3   OH2 3188   4.370   1.522   2.330
 1061TIP3    H1 3189   4.402   1.596   2.278
 1061TIP3    H2 3190   4.290   1.555   2.372
 1062TIP3   OH2 3191   0.304   3.186   4.446
 1062TIP3    H1 3192   0.269   3.238   4.373
 1062TIP3    H2 3193   0.261   3.223   4.524
 1063TIP3   OH2 3194   1.230   3.796   2.662
 1063TIP3    H1 3195   1.165   3.766   2.597
 1063TIP3    H2 3196   1.302   3.733   2.654
 1064TIP3   OH2 3197   5.938   5.917   3.299
 1064TIP3    H1 3198   5.869   5.981   3.317
 1064TIP3    H2 3199   5.891   5.837   3.277
 1065TIP3   OH2 3200   0.699   2.838   1.037
 1065TIP3    H1 3201   0.782   2.884   1.026
 1065TIP3    H2 3202   0.723   2.752   1.072
 1066TIP3   OH2 3203   5.646   4.059   2.314
 1066TIP3    H1 3204   5.678   3.969   2.306
 1066TIP3    H2 3205   5.584   4.055   2.387
 1067TIP3   OH2 3206   4.335   5.828   1.674
 1067TIP3    H1 3207   4.275   5.883   1.724
 1067TIP3    H2 3208   4.394   5.791   1.739
 1068TIP3   OH2 3209   2.935   2.699   5.145
 1068TIP3    H1 3210   2.887   2.646   5.208
 1068TIP3    H2 3211   2.926   2.789   5.176
 1069TIP3   OH2 3212   2.325   4.451   2.413
 1069TIP3    H1 3213   2.371   4.414   2.338
 1069TIP3    H2 3214   2.247   4.396   2.422
 1070TIP3   OH2 3215   3.821   1.819   4.738
 1070TIP3    H1 3216   3.900   1.820   4.792
 1070TIP3    H2 3217   3.853   1.801   4.650
 1071TIP3   OH2 3218   2.643   5.631   2.674
 1071TIP3    H1 3219   2.629   5.542   2.706
 1071TIP3    H2 3220   2.555   5.666   2.663
 1072TIP3   OH2 3221   5.568   3.359   0.615
 1072TIP3    H1 3222   5.613   3.357   0.531
 1072TIP3    H2 3223   5.600   3.439   0.657
 1073TIP3   OH2 3224   5.778   4.766   4.242
 1073TIP3    H1 3225   5.792   4.807   4.327
 1073TIP3    H2 3226   5.803   4.834   4.178
 1074TIP3   OH2 3227   3.553   3.756   1.171
 1074TIP3    H1 3228   3.460   3.776   1.157
 1074TIP3    H2 3229   3.557   3.724   1.261
 1075TIP3   OH2 3230   0.134   4.572   3.869
 1075TIP3    H1 3231   0.194   4.502   3.895
 1075TIP3    H2 3232   0.182   4.619   3.800
 1076TIP3   OH2 3233   1.374   1.044   3.939
 1076TIP3    H1 3234   1.373   0.971   3.877
 1076TIP3    H2 3235   1.293   1.034   3.989
 1077TIP3   OH2 3236   4.389   5.633   1.871
 1077TIP3    H1 3237   4.327   5.635   1.943
 1077TIP3    H2 3238   4.404   5.539   1.855
 1078TIP3   OH2 3239   0.731   5.240   2.955
 1078TIP3    H1 3240   0.810   5.238   3.010
 1078TIP3    H2 3241   0.671   5.179   2.998
 1079TIP3   OH2 3242   4.859   3.513   0.567
 1079TIP3    H1 3243   4.772   3.543   0.540
 1079TIP3    H2 3244   4.915   3.532   0.492
 1080TIP3   OH2 3245   2.294   5.423   4.304
 1080TIP3    H1 3246   2.323   5.339   4.339
 1080TIP3    H2 3247   2.292   5.410   4.209
 1081TIP3   OH2 3248   5.814   3.054   2.090
 1081TIP3    H1 3249   5.894   3.015   2.125
 1081TIP3    H2 3250   5.764   3.081   2.168
 1082TIP3   OH2 3251   5.292   2.760   0.345
 1082TIP3    H1 3252   5.249   2.702   0.282
 1082TIP3    H2 3253   5.327   2.831   0.292
 1083TIP3   OH2 3254   0.676   5.072   3.395
 1083TIP3    H1 3255   0.626   5.109   3.321
 1083TIP3    H2 3256   0.615   5.011   3.436
 1084TIP3   OH2 3257   5.711   2.292   4.345
 1084TIP3    H1 3258   5.712   2.359   4.276
 1084TIP3    H2 3259   5.619   2.272   4.358
 1085TIP3   OH2 3260   2.985   3.189   4.802
 1085TIP3    H1 3261   2.941   3.272   4.822
 1085TIP3    H2 3262   2.968   3.174   4.709
 1086TIP3   OH2 3263   3.303   3.271   4.723
 1086TIP3    H1 3264   3.235   3.327   4.684
 1086TIP3    H2 3265   3.280   3.268   4.816
 1087TIP3   OH2 3266   4.127   3.557   0.053
 1087TIP3    H1 3267   4.058   3.623   0.061
 1087TIP3    H2 3268   4.208   3.607   0.054
 1088TIP3   OH2 3269   2.360   0.157   1.051
 1088TIP3    H1 3270   2.343   0.249   1.030
 1088TIP3    H2 3271   2.273   0.119   1.062
 1089TIP3   OH2 3272   4.297   0.631   2.541
 1089TIP3    H1 3273   4.279   0.553   2.488
 1089TIP3    H2 3274   4.285   0.704   2.480
 1090TIP3   OH2 3275   1.113   3.771   4.382
 1090TIP3    H1 3276   1.158   3.700   4.336
 1090TIP3    H2 3277   1.182   3.835   4.400
 1091TIP3   OH2 3278   5.611   0.280   0.817
 1091TIP3    H1 3279   5.622   0.208   0.755
 1091TIP3    H2 3280   5.580   0.238   0.897
 1092TIP3   OH2 3281   5.648   2.420   3.314
 1092TIP3    H1 3282   5.716   2.402   3.379
 1092TIP3    H2 3283   5.596   2.491   3.352
 1093TIP3   OH2 3284   4.111   1.812   2.552
 1093TIP3    H1 3285   4.089   1.749   2.484
 1093TIP3    H2 3286   4.193   1.852   2.523
 1094TIP3   OH2 3287   1.872   0.817   3.582
 1094TIP3    H1 3288   1.934   0.744   3.584
 1094TIP3    H2 3289   1.814   0.802   3.656
 1095TIP3   OH2 3290   0.464   3.962   2.592
 1095TIP3    H1 3291   0.525   3.889   2.606
 1095TIP3    H2 3292   0.519   4.032   2.557
 1096TIP3   OH2 3293   6.318   3.672   0.231
 1096TIP3    H1 3294   6.329   3.594   0.286
 1096TIP3    H2 3295   6.283   3.639   0.149
 1097TIP3   OH2 3296   2.058   4.288   2.472
 1097TIP3    H1 3297   1.976   4.339   2.473
 1097TIP3    H2 3298   2.049   4.230   2.396
 1098TIP3   OH2 3299   6.304   5.890   5.042
 1098TIP3    H1 3300   6.329   5.975   5.080
 1098TIP3    H2 3301   6.380   5.834   5.058
 1099TIP3   OH2 3302   5.454   5.647   4.688
 1099TIP3    H1 3303   5.524   5.583   4.677
 1099TIP3    H2 3304   5.390   5.603   4.744
 1100TIP3   OH2 3305   4.796   2.476   5.084
 1100TIP3    H1 3306   4.880   2.462   5.126
 1100TIP3    H2 3307   4.753   2.391   5.086
 1101TIP3   OH2 3308   3.780   4.350   1.111
 1101TIP3    H1 3309   3.687   4.368   1.105
 1101TIP3    H2 3310   3.815   4.419   1.167
 1102TIP3   OH2 3311   0.813   5.720  -0.019
 1102TIP3    H1 3312   0.808   5.760   0.067
 1102TIP3    H2 3313   0.806   5.626  -0.003
 1103TIP3   OH2 3314   1.169   2.311   1.846
 1103TIP3    H1 3315   1.132   2.229   1.879
 1103TIP3    H2 3316   1.130   2.379   1.900
 1104TIP3   OH2 3317   0.607   0.874   4.343
 1104TIP3    H1 3318   0.561   0.897   4.262
 1104TIP3    H2 3319   0.698   0.861   4.316
 1105TIP3   OH2 3320   5.774   2.744   4.044
 1105TIP3    H1 3321   5.805   2.791   3.966
 1105TIP3    H2 3322   5.737   2.812   4.100
 1106TIP3   OH2 3323   2.053   4.065   3.116
 1106TIP3    H1 3324   2.103   3.986   3.136
 1106TIP3    H2 3325   1.985   4.067   3.184
 1107TIP3   OH2 3326   5.455   1.370   4.540
 1107TIP3    H1 3327   5.397   1.397   4.610
 1107TIP3    H2 3328   5.442   1.275   4.534
 1108TIP3   OH2 3329   0.504   3.052   2.907
 1108TIP3    H1 3330   0.584   3.078   2.860
 1108TIP3    H2 3331   0.480   2.968   2.867
 1109TIP3   OH2 3332   3.287   2.327   3.186
 1109TIP3    H1 3333   3.317   2.356   3.099
 1109TIP3    H2 3334   3.207   2.278   3.168
 1110TIP3   OH2 3335   1.916   3.456   2.524
 1110TIP3    H1 3336   1.990   3.396   2.510
 1110TIP3    H2 3337   1.881   3.431   2.609
 1111TIP3   OH2 3338   5.234   2.209   5.057
 1111TIP3    H1 3339   5.281   2.234   4.978
 1111TIP3    H2 3340   5.302   2.189   5.121
 1112TIP3   OH2 3341   0.715   2.534   3.373
 1112TIP3    H1 3342   0.632   2.579   3.386
 1112TIP3    H2 3343   0.763   2.548   3.455
 1113TIP3   OH2 3344   5.442   2.270   4.376
 1113TIP3    H1 3345   5.414   2.346   4.325
 1113TIP3    H2 3346   5.365   2.245   4.427
 1114TIP3   OH2 3347   2.188   3.181   3.765
 1114TIP3    H1 3348   2.102   3.189   3.806
 1114TIP3    H2 3349   2.184   3.242   3.692
 1115TIP3   OH2 3350   1.606   0.999   1.664
 1115TIP3    H1 3351   1.613   1.093   1.648
 1115TIP3    H2 3352   1.697   0.968   1.665
 1116TIP3   OH2 3353   5.490   1.003   1.787
 1116TIP3    H1 3354   5.423   1.028   1.850
 1116TIP3    H2 3355   5.563   1.063   1.804
 1117TIP3   OH2 3356   5.624   3.669   2.906
 1117TIP3    H1 3357   5.705   3.629   2.873
 1117TIP3    H2 3358   5.573   3.596   2.940
 1118TIP3   OH2 3359   0.276   4.708   4.861
 1118TIP3    H1 3360   0.209   4.702   4.793
 1118TIP3    H2 3361   0.226   4.712   4.943
 1119TIP3   OH2 3362   0.976   4.089   1.060
 1119TIP3    H1 3363   1.068   4.112   1.047
 1119TIP3    H2 3364   0.958   4.114   1.150
 1120TIP3   OH2 3365   4.512   0.763   0.356
 1120TIP3    H1 3366   4.435   0.732   0.308
 1120TIP3    H2 3367   4.497   0.733   0.446
 1121TIP3   OH2 3368   6.162   1.718   0.851
 1121TIP3    H1 3369   6.112   1.694   0.773
 1121TIP3    H2 3370   6.253   1.706   0.826
 1122TIP3   OH2 3371   3.207   1.751   2.244
 1122TIP3    H1 3372   3.298   1.763   2.268
 1122TIP3    H2 3373   3.204   1.664   2.203
 1123TIP3   OH2 3374   5.225   4.470   3.723
 1123TIP3    H1 3375   5.190   4.546   3.677
 1123TIP3    H2 3376   5.310   4.499   3.756
 1124TIP3   OH2 3377   4.767   5.333   0.653
 1124TIP3    H1 3378   4.734   5.282   0.579
 1124TIP3    H2 3379   4.695   5.334   0.716
 1125TIP3   OH2 3380   4.315   2.025   3.746
 1125TIP3    H1 3381   4.268   2.082   3.686
 1125TIP3    H2 3382   4.401   2.013   3.706
 1126TIP3   OH2 3383   0.317   3.610   4.085
 1126TIP3    H1 3384   0.296   3.700   4.107
 1126TIP3    H2 3385   0.292   3.559   4.162
 1127TIP3   OH2 3386   4.029   3.484   2.681
 1127TIP3    H1 3387   4.007   3.550   2.747
 1127TIP3    H2 3388   3.978   3.407   2.707
 1128TIP3   OH2 3389   1.572   1.138   0.212
 1128TIP3    H1 3390   1.570   1.195   0.288
 1128TIP3    H2 3391   1.594   1.196   0.139
 1129TIP3   OH2 3392   5.895   3.398   4.195
 1129TIP3    H1 3393   5.821   3.427   4.141
 1129TIP3    H2 3394   5.890   3.453   4.273
 1130TIP3   OH2 3395   1.095   4.581   3.555
 1130TIP3    H1 3396   1.046   4.640   3.497
 1130TIP3    H2 3397   1.173   4.557   3.504
 1131TIP3   OH2 3398   2.775   1.887   0.900
 1131TIP3    H1 3399   2.753   1.868   0.992
 1131TIP3    H2 3400   2.765   1.982   0.892
 1132TIP3   OH2 3401   4.762  -0.032   0.172
 1132TIP3    H1 3402   4.815  -0.049   0.250
 1132TIP3    H2 3403   4.760   0.063   0.165
 1133TIP3   OH2 3404   0.816   4.244   2.288
 1133TIP3    H1 3405   0.908   4.266   2.272
 1133TIP3    H2 3406   0.773   4.329   2.299
 1134TIP3   OH2 3407   3.442   1.676   2.996
 1134TIP3    H1 3408   3.393   1.674   3.079
 1134TIP3    H2 3409   3.522   1.724   3.017
 1135TIP3   OH2 3410   1.678   0.257   2.434
 1135TIP3    H1 3411   1.693   0.226   2.344
 1135TIP3    H2 3412   1.683   0.353   2.427
 1136TIP3   OH2 3413   2.359   4.810   1.627
 1136TIP3    H1 3414   2.378   4.896   1.589
 1136TIP3    H2 3415   2.415   4.750   1.578
 1137TIP3   OH2 3416   2.868   0.135   5.121
 1137TIP3    H1 3417   2.881   0.055   5.071
 1137TIP3    H2 3418   2.886   0.110   5.212
 1138TIP3   OH2 3419   1.736   1.963   4.948
 1138TIP3    H1 3420   1.704   1.873   4.954
 1138TIP3    H2 3421   1.826   1.954   4.917
 1139TIP3   OH2 3422   3.405   5.439   1.496
 1139TIP3    H1 3423   3.481   5.383   1.508
 1139TIP3    H2 3424   3.426   5.519   1.545
 1140TIP3   OH2 3425   1.894   1.254   4.074
 1140TIP3    H1 3426   1.916   1.163   4.092
 1140TIP3    H2 3427   1.843   1.252   3.993
 1141TIP3   OH2 3428   5.183   1.531   4.519
 1141TIP3    H1 3429   5.165   1.563   4.430
 1141TIP3    H2 3430   5.142   1.445   4.522
 1142TIP3   OH2 3431   3.601   5.890   2.887
 1142TIP3    H1 3432   3.509   5.868   2.877
 1142TIP3    H2 3433   3.648   5.813   2.855
 1143TIP3   OH2 3434   0.727   3.722   2.307
 1143TIP3    H1 3435   0.755   3.647   2.255
 1143TIP3    H2 3436   0.778   3.716   2.388
 1144TIP3   OH2 3437   0.307   4.055   3.825
 1144TIP3    H1 3438   0.397   4.080   3.845
 1144TIP3    H2 3439   0.281   3.998   3.897
 1145TIP3   OH2 3440   3.182   3.499   3.191
 1145TIP3    H1 3441   3.240   3.475   3.263
 1145TIP3    H2 3442   3.231   3.563   3.141
 1146TIP3   OH2 3443   6.004   0.484   1.582
 1146TIP3    H1 3444   6.098   0.476   1.601
 1146TIP3    H2 3445   5.965   0.512   1.664
 1147TIP3   OH2 3446   4.412   0.978   3.483
 1147TIP3    H1 3447   4.488   0.984   3.425
 1147TIP3    H2 3448   4.337   0.977   3.423
 1148TIP3   OH2 3449   6.038   0.878   2.681
 1148TIP3    H1 3450   6.029   0.957   2.628
 1148TIP3    H2 3451   6.036   0.806   2.617
 1149TIP3   OH2 3452   5.733   5.214   0.668
 1149TIP3    H1 3453   5.689   5.193   0.586
 1149TIP3    H2 3454   5.742   5.310   0.667
 1150TIP3   OH2 3455   1.367   4.593   3.455
 1150TIP3    H1 3456   1.346   4.507   3.419
 1150TIP3    H2 3457   1.335   4.655   3.389
 1151TIP3   OH2 3458   2.819   1.761   3.438
 1151TIP3    H1 3459   2.765   1.720   3.505
 1151TIP3    H2 3460   2.881   1.693   3.411
 1152TIP3   OH2 3461   2.386   5.502   4.642
 1152TIP3    H1 3462   2.430   5.544   4.568
 1152TIP3    H2 3463   2.343   5.425   4.604
 1153TIP3   OH2 3464   4.600   3.905   4.634
 1153TIP3    H1 3465   4.542   3.971   4.596
 1153TIP3    H2 3466   4.554   3.822   4.621
 1154TIP3   OH2 3467   2.764   4.000   1.998
 1154TIP3    H1 3468   2.854   3.966   1.999
 1154TIP3    H2 3469   2.713   3.933   1.953
 1155TIP3   OH2 3470   2.508   2.676   4.517
 1155TIP3    H1 3471   2.509   2.698   4.610
 1155TIP3    H2 3472   2.524   2.759   4.473
 1156TIP3   OH2 3473   0.871   2.624   3.582
 1156TIP3    H1 3474   0.927   2.702   3.574
 1156TIP3    H2 3475   0.816   2.642   3.657
 1157TIP3   OH2 3476   3.019   0.827   1.711
 1157TIP3    H1 3477   3.090   0.826   1.775
 1157TIP3    H2 3478   2.977   0.741   1.721
 1158TIP3   OH2 3479   1.420   0.671   0.828
 1158TIP3    H1 3480   1.494   0.721   0.862
 1158TIP3    H2 3481   1.387   0.724   0.755
 1159TIP3   OH2 3482   3.452   5.563   1.938
 1159TIP3    H1 3483   3.389   5.626   1.973
 1159TIP3    H2 3484   3.404   5.480   1.934
 1160TIP3   OH2 3485   5.382   2.218   2.589
 1160TIP3    H1 3486   5.313   2.153   2.600
 1160TIP3    H2 3487   5.446   2.197   2.657
 1161TIP3   OH2 3488   0.431   3.650   5.020
 1161TIP3    H1 3489   0.511   3.695   4.994
 1161TIP3    H2 3490   0.457   3.558   5.027
 1162TIP3   OH2 3491   1.403   4.125   1.226
 1162TIP3    H1 3492   1.357   4.107   1.307
 1162TIP3    H2 3493   1.495   4.114   1.247
 1163TIP3   OH2 3494   3.492   1.525   2.108
 1163TIP3    H1 3495   3.398   1.512   2.118
 1163TIP3    H2 3496   3.514   1.595   2.171
 1164TIP3   OH2 3497   2.042   1.766   4.205
 1164TIP3    H1 3498   2.081   1.688   4.166
 1164TIP3    H2 3499   1.960   1.735   4.244
 1165TIP3   OH2 3500   5.990   1.675   1.201
 1165TIP3    H1 3501   5.980   1.599   1.259
 1165TIP3    H2 3502   5.921   1.663   1.134
 1166TIP3   OH2 3503   5.526   2.634   3.423
 1166TIP3    H1 3504   5.486   2.645   3.509
 1166TIP3    H2 3505   5.512   2.718   3.379
 1167TIP3   OH2 3506   2.087   5.865   2.660
 1167TIP3    H1 3507   2.162   5.911   2.698
 1167TIP3    H2 3508   2.106   5.772   2.672
 1168TIP3   OH2 3509   4.693   2.083   1.105
 1168TIP3    H1 3510   4.757   2.114   1.042
 1168TIP3    H2 3511   4.692   2.151   1.173
 1169TIP3   OH2 3512   5.345   5.906   3.654
 1169TIP3    H1 3513   5.324   5.813   3.650
 1169TIP3    H2 3514   5.264   5.950   3.628
 1170TIP3   OH2 3515   4.123   1.551   2.461
 1170TIP3    H1 3516   4.040   1.509   2.484
 1170TIP3    H2 3517   4.184   1.524   2.530
 1171TIP3   OH2 3518   5.891   0.913   0.473
 1171TIP3    H1 3519   5.922   0.939   0.560
 1171TIP3    H2 3520   5.802   0.947   0.468
 1172TIP3   OH2 3521   1.830   4.167   4.518
 1172TIP3    H1 3522   1.799   4.141   4.605
 1172TIP3    H2 3523   1.870   4.088   4.482
 1173TIP3   OH2 3524   1.600   3.475   1.317
 1173TIP3    H1 3525   1.586   3.381   1.310
 1173TIP3    H2 3526   1.638   3.500   1.233
 1174TIP3   OH2 3527   5.099   4.346   1.364
 1174TIP3    H1 3528   5.082   4.258   1.397
 1174TIP3    H2 3529   5.051   4.403   1.424
 1175TIP3   OH2 3530   4.736   2.702   2.503
 1175TIP3    H1 3531   4.680   2.779   2.507
 1175TIP3    H2 3532   4.825   2.736   2.498
 1176TIP3   OH2 3533   1.035   1.409   4.732
 1176TIP3    H1 3534   0.992   1.341   4.679
 1176TIP3    H2 3535   0.991   1.405   4.816
 1177TIP3   OH2 3536   6.217   4.436   2.303
 1177TIP3    H1 3537   6.310   4.416   2.316
 1177TIP3    H2 3538   6.215   4.531   2.289
 1178TIP3   OH2 3539   2.452   4.035   2.414
 1178TIP3    H1 3540   2.513   4.082   2.357
 1178TIP3    H2 3541   2.416   4.102   2.472
 1179TIP3   OH2 3542   3.145   4.519   4.494
 1179TIP3    H1 3543   3.086   4.580   4.538
 1179TIP3    H2 3544   3.129   4.434   4.535
 1180TIP3   OH2 3545   0.175   3.693   3.575
 1180TIP3    H1 3546   0.172   3.683   3.670
 1180TIP3    H2 3547   0.152   3.785   3.560
 1181TIP3   OH2 3548   5.447   4.001   0.650
 1181TIP3    H1 3549   5.394   4.057   0.593
 1181TIP3    H2 3550   5.507   3.956   0.591
 1182TIP3   OH2 3551   4.946   0.470   4.680
 1182TIP3    H1 3552   5.026   0.471   4.732
 1182TIP3    H2 3553   4.955   0.545   4.622
 1183TIP3   OH2 3554   2.145   1.174   1.490
 1183TIP3    H1 3555   2.058   1.189   1.527
 1183TIP3    H2 3556   2.204   1.222   1.548
 1184TIP3   OH2 3557   6.309   2.402   2.551
 1184TIP3    H1 3558   6.376   2.333   2.545
 1184TIP3    H2 3559   6.320   2.438   2.639
 1185TIP3   OH2 3560   0.888   5.579   2.245
 1185TIP3    H1 3561   0.946   5.514   2.284
 1185TIP3    H2 3562   0.807   5.531   2.228
 1186TIP3   OH2 3563   1.119   3.867   4.095
 1186TIP3    H1 3564   1.081   3.780   4.083
 1186TIP3    H2 3565   1.192   3.853   4.155
 1187TIP3   OH2 3566   1.268   3.487   1.336
 1187TIP3    H1 3567   1.256   3.506   1.243
 1187TIP3    H2 3568   1.318   3.405   1.338
 1188TIP3   OH2 3569   4.896   1.835   2.970
 1188TIP3    H1 3570   4.897   1.930   2.981
 1188TIP3    H2 3571   4.958   1.802   3.035
 1189TIP3   OH2 3572   2.102   2.120   0.543
 1189TIP3    H1 3573   2.156   2.136   0.620
 1189TIP3    H2 3574   2.115   2.198   0.488
 1190TIP3   OH2 3575   1.340   0.214   1.539
 1190TIP3    H1 3576   1.310   0.125   1.552
 1190TIP3    H2 3577   1.414   0.206   1.479
 1191TIP3   OH2 3578   4.326   4.142   4.144
 1191TIP3    H1 3579   4.355   4.216   4.091
 1191TIP3    H2 3580   4.303   4.074   4.081
 1192TIP3   OH2 3581   4.323   2.154   0.171
 1192TIP3    H1 3582   4.366   2.230   0.212
 1192TIP3    H2 3583   4.348   2.080   0.227
 1193TIP3   OH2 3584   1.338   3.862   0.154
 1193TIP3    H1 3585   1.250   3.882   0.184
 1193TIP3    H2 3586   1.394   3.877   0.230
 1194TIP3   OH2 3587   1.697   1.308   1.609
 1194TIP3    H1 3588   1.744   1.272   1.533
 1194TIP3    H2 3589   1.629   1.363   1.571
 1195TIP3   OH2 3590   0.743   0.902   4.800
 1195TIP3    H1 3591   0.747   0.960   4.876
 1195TIP3    H2 3592   0.690   0.950   4.736
 1196TIP3   OH2 3593   6.096   4.856   3.633
 1196TIP3    H1 3594   6.129   4.945   3.646
 1196TIP3    H2 3595   6.102   4.842   3.539
 1197TIP3   OH2 3596   1.705   0.458   1.462
 1197TIP3    H1 3597   1.675   0.546   1.439
 1197TIP3    H2 3598   1.716   0.461   1.557
 1198TIP3   OH2 3599   4.347   3.582   3.694
 1198TIP3    H1 3600   4.329   3.669   3.657
 1198TIP3    H2 3601   4.375   3.530   3.619
 1199TIP3   OH2 3602   5.964   1.008   2.400
 1199TIP3    H1 3603   5.907   1.056   2.341
 1199TIP3    H2 3604   6.043   0.990   2.348
 1200TIP3   OH2 3605   3.366   3.887   0.923
 1200TIP3    H1 3606   3.312   3.964   0.903
 1200TIP3    H2 3607   3.440   3.921   0.972
 1201TIP3   OH2 3608   0.296   2.501   0.675
 1201TIP3    H1 3609   0.251   2.438   0.731
 1201TIP3    H2 3610   0.381   2.462   0.657
 1202TIP3   OH2 3611   0.119   1.276   2.298
 1202TIP3    H1 3612   0.170   1.255   2.376
 1202TIP3    H2 3613   0.041   1.221   2.305
 1203TIP3   OH2 3614   5.128   0.801   3.997
 1203TIP3    H1 3615   5.059   0.852   3.955
 1203TIP3    H2 3616   5.121   0.714   3.958
 1204TIP3   OH2 3617   5.689   4.566   1.758
 1204TIP3    H1 3618   5.620   4.547   1.822
 1204TIP3    H2 3619   5.771   4.548   1.805
 1205TIP3   OH2 3620   5.183   4.160   0.570
 1205TIP3    H1 3621   5.102   4.153   0.519
 1205TIP3    H2 3622   5.194   4.253   0.586
 1206TIP3   OH2 3623   2.701   5.012   1.633
 1206TIP3    H1 3624   2.739   5.077   1.692
 1206TIP3    H2 3625   2.615   5.047   1.610
 1207TIP3   OH2 3626   3.520   0.195   2.725
 1207TIP3    H1 3627   3.513   0.171   2.632
 1207TIP3    H2 3628   3.563   0.119   2.765
 1208TIP3   OH2 3629   0.249   5.139   4.760
 1208TIP3    H1 3630   0.321   5.201   4.753
 1208TIP3    H2 3631   0.225   5.120   4.669
 1209TIP3   OH2 3632   6.239   4.908   1.635
 1209TIP3    H1 3633   6.332   4.886   1.628
 1209TIP3    H2 3634   6.226   4.929   1.728
 1210TIP3   OH2 3635   1.029   0.530   1.737
 1210TIP3    H1 3636   0.957   0.590   1.756
 1210TIP3    H2 3637   1.084   0.533   1.814
 1211TIP3   OH2 3638   3.930   5.279   4.146
 1211TIP3    H1 3639   4.015   5.305   4.110
 1211TIP3    H2 3640   3.907   5.351   4.205
 1212TIP3   OH2 3641   0.687   0.242   2.105
 1212TIP3    H1 3642   0.709   0.172   2.166
 1212TIP3    H2 3643   0.767   0.294   2.098
 1213TIP3   OH2 3644   5.169   3.992   3.541
 1213TIP3    H1 3645   5.169   3.981   3.446
 1213TIP3    H2 3646   5.199   4.082   3.555
 1214TIP3   OH2 3647   3.056   4.723   3.859
 1214TIP3    H1 3648   3.128   4.734   3.797
 1214TIP3    H2 3649   3.048   4.628   3.870
 1215TIP3   OH2 3650   2.020   5.129   4.591
 1215TIP3    H1 3651   2.009   5.195   4.660
 1215TIP3    H2 3652   2.049   5.051   4.637
 1216TIP3   OH2 3653  -0.012   1.389   1.899
 1216TIP3    H1 3654   0.069   1.351   1.866
 1216TIP3    H2 3655  -0.055   1.425   1.822
 1217TIP3   OH2 3656   2.202   4.734   3.960
 1217TIP3    H1 3657   2.205   4.761   4.052
 1217TIP3    H2 3658   2.287   4.759   3.925
 1218TIP3   OH2 3659   0.588   0.212   1.357
 1218TIP3    H1 3660   0.666   0.264   1.377
 1218TIP3    H2 3661   0.537   0.214   1.438
 1219TIP3   OH2 3662   0.051   2.935   2.700
 1219TIP3    H1 3663   0.108   3.009   2.721
 1219TIP3    H2 3664   0.094   2.890   2.628
 1220TIP3   OH2 3665   1.686   5.181   1.643
 1220TIP3    H1 3666   1.781   5.181   1.631
 1220TIP3    H2 3667   1.661   5.273   1.635
 1221TIP3   OH2 3668   3.735   1.845   4.091
 1221TIP3    H1 3669   3.815   1.792   4.100
 1221TIP3    H2 3670   3.666   1.788   4.124
 1222TIP3   OH2 3671   4.343   3.205   1.172
 1222TIP3    H1 3672   4.402   3.268   1.212
 1222TIP3    H2 3673   4.400   3.137   1.137
 1223TIP3   OH2 3674   2.518   0.768   4.276
 1223TIP3    H1 3675   2.449   0.706   4.254
 1223TIP3    H2 3676   2.488   0.811   4.356
 1224TIP3   OH2 3677   4.400   5.078   2.289
 1224TIP3    H1 3678   4.403   5.048   2.198
 1224TIP3    H2 3679   4.439   5.165   2.286
 1225TIP3   OH2 3680   3.320   3.785   2.409
 1225TIP3    H1 3681   3.377   3.727   2.460
 1225TIP3    H2 3682   3.372   3.864   2.396
 1226TIP3   OH2 3683   4.133   0.827   3.850
 1226TIP3    H1 3684   4.196   0.755   3.851
 1226TIP3    H2 3685   4.077   0.810   3.926
 1227TIP3   OH2 3686   6.179   5.073   2.629
 1227TIP3    H1 3687   6.101   5.019   2.627
 1227TIP3    H2 3688   6.150   5.159   2.596
 1228TIP3   OH2 3689   2.814   3.948   2.431
 1228TIP3    H1 3690   2.810   3.913   2.342
 1228TIP3    H2 3691   2.769   3.883   2.485
 1229TIP3   OH2 3692   1.039   2.191   1.028
 1229TIP3    H1 3693   1.128   2.226   1.035
 1229TIP3    H2 3694   0.987   2.245   1.088
 1230TIP3   OH2 3695   5.234   1.206   4.182
 1230TIP3    H1 3696   5.181   1.128   4.167
 1230TIP3    H2 3697   5.321   1.173   4.204
 1231TIP3   OH2 3698   0.295   2.364   3.061
 1231TIP3    H1 3699   0.374   2.339   3.109
 1231TIP3    H2 3700   0.277   2.290   3.003
 1232TIP3   OH2 3701   4.382   3.454   0.734
 1232TIP3    H1 3702   4.342   3.418   0.813
 1232TIP3    H2 3703   4.385   3.548   0.749
 1233TIP3   OH2 3704   2.803   2.637   0.813
 1233TIP3    H1 3705   2.893   2.654   0.785
 1233TIP3    H2 3706   2.762   2.724   0.819
 1234TIP3   OH2 3707   0.595   2.688   0.697
 1234TIP3    H1 3708   0.656   2.760   0.712
 1234TIP3    H2 3709   0.645   2.609   0.723
 1235TIP3   OH2 3710   5.499   0.863   1.543
 1235TIP3    H1 3711   5.509   0.943   1.596
 1235TIP3    H2 3712   5.588   0.831   1.531
 1236TIP3   OH2 3713   3.814   3.106   2.284
 1236TIP3    H1 3714   3.882   3.092   2.218
 1236TIP3    H2 3715   3.816   3.201   2.300
 1237TIP3   OH2 3716   2.907   5.255   2.710
 1237TIP3    H1 3717   2.955   5.184   2.668
 1237TIP3    H2 3718   2.963   5.281   2.783
 1238TIP3   OH2 3719   3.235   1.254   3.505
 1238TIP3    H1 3720   3.293   1.218   3.571
 1238TIP3    H2 3721   3.183   1.178   3.475
 1239TIP3   OH2 3722   0.911   0.906   2.438
 1239TIP3    H1 3723   0.890   0.819   2.471
 1239TIP3    H2 3724   0.991   0.931   2.484
 1240TIP3   OH2 3725   0.256   1.570   4.080
 1240TIP3    H1 3726   0.242   1.664   4.068
 1240TIP3    H2 3727   0.295   1.562   4.167
 1241TIP3   OH2 3728   3.614   1.171   3.537
 1241TIP3    H1 3729   3.572   1.134   3.459
 1241TIP3    H2 3730   3.659   1.097   3.578
 1242TIP3   OH2 3731   5.590   3.594   4.295
 1242TIP3    H1 3732   5.678   3.607   4.330
 1242TIP3    H2 3733   5.588   3.646   4.215
 1243TIP3   OH2 3734   5.436   1.848   1.968
 1243TIP3    H1 3735   5.426   1.905   1.892
 1243TIP3    H2 3736   5.486   1.773   1.934
 1244TIP3   OH2 3737   1.634   5.323   0.858
 1244TIP3    H1 3738   1.593   5.406   0.881
 1244TIP3    H2 3739   1.701   5.310   0.926
 1245TIP3   OH2 3740   2.936   1.905   4.293
 1245TIP3    H1 3741   3.012   1.847   4.282
 1245TIP3    H2 3742   2.916   1.901   4.386
 1246TIP3   OH2 3743   4.457   5.563   3.688
 1246TIP3    H1 3744   4.488   5.533   3.773
 1246TIP3    H2 3745   4.424   5.483   3.646
 1247TIP3   OH2 3746   1.250   0.414   4.259
 1247TIP3    H1 3747   1.334   0.372   4.243
 1247TIP3    H2 3748   1.191   0.343   4.283
 1248TIP3   OH2 3749   5.417   3.423   3.935
 1248TIP3    H1 3750   5.508   3.424   3.965
 1248TIP3    H2 3751   5.418   3.467   3.850
 1249TIP3   OH2 3752   0.733   1.444   1.607
 1249TIP3    H1 3753   0.682   1.518   1.574
 1249TIP3    H2 3754   0.736   1.383   1.533
 1250TIP3   OH2 3755   1.782   1.034   5.072
 1250TIP3    H1 3756   1.826   0.972   5.013
 1250TIP3    H2 3757   1.720   0.980   5.121
 1251TIP3   OH2 3758   2.928   5.664   0.789
 1251TIP3    H1 3759   2.920   5.715   0.870
 1251TIP3    H2 3760   3.019   5.672   0.764
 1252TIP3   OH2 3761   2.719   2.128   3.040
 1252TIP3    H1 3762   2.803   2.083   3.048
 1252TIP3    H2 3763   2.704   2.167   3.126
 1253TIP3   OH2 3764   5.159   0.428   2.409
 1253TIP3    H1 3765   5.145   0.522   2.422
 1253TIP3    H2 3766   5.253   0.420   2.391
 1254TIP3   OH2 3767   3.897   2.531   4.573
 1254TIP3    H1 3768   3.836   2.493   4.637
 1254TIP3    H2 3769   3.864   2.620   4.559
 1255TIP3   OH2 3770   3.141   5.723   4.731
 1255TIP3    H1 3771   3.055   5.685   4.709
 1255TIP3    H2 3772   3.203   5.673   4.678
 1256TIP3   OH2 3773   3.669   1.533   3.784
 1256TIP3    H1 3774   3.714   1.599   3.731
 1256TIP3    H2 3775   3.655   1.575   3.869
 1257TIP3   OH2 3776   5.887   4.844   5.045
 1257TIP3    H1 3777   5.869   4.750   5.038
 1257TIP3    H2 3778   5.817   4.877   5.101
 1258TIP3   OH2 3779   3.672   5.465   0.803
 1258TIP3    H1 3780   3.725   5.532   0.847
 1258TIP3    H2 3781   3.658   5.500   0.715
 1259TIP3   OH2 3782   1.794   0.347   3.306
 1259TIP3    H1 3783   1.788   0.390   3.391
 1259TIP3    H2 3784   1.874   0.381   3.267
 1260TIP3   OH2 3785   0.391   0.997   5.068
 1260TIP3    H1 3786   0.463   1.059   5.076
 1260TIP3    H2 3787   0.319   1.049   5.033
 1261TIP3   OH2 3788   4.210   2.504   3.591
 1261TIP3    H1 3789   4.241   2.496   3.501
 1261TIP3    H2 3790   4.286   2.536   3.640
 1262TIP3   OH2 3791   5.654   1.862   1.029
 1262TIP3    H1 3792   5.576   1.877   0.976
 1262TIP3    H2 3793   5.705   1.943   1.019
 1263TIP3   OH2 3794   3.338   1.638   1.052
 1263TIP3    H1 3795   3.303   1.639   1.140
 1263TIP3    H2 3796   3.306   1.557   1.013
 1264TIP3   OH2 3797   4.417   1.719   4.799
 1264TIP3    H1 3798   4.465   1.707   4.717
 1264TIP3    H2 3799   4.389   1.631   4.824
 1265TIP3   OH2 3800   3.784   3.770   2.549
 1265TIP3    H1 3801   3.851   3.803   2.607
 1265TIP3    H2 3802   3.798   3.817   2.466
 1266TIP3   OH2 3803   2.861   1.904   4.571
 1266TIP3    H1 3804   2.906   1.848   4.633
 1266TIP3    H2 3805   2.845   1.985   4.619
 1267TIP3   OH2 3806   5.625   3.125   4.738
 1267TIP3    H1 3807   5.605   3.043   4.783
 1267TIP3    H2 3808   5.565   3.188   4.775
 1268TIP3   OH2 3809   0.493   4.630   3.095
 1268TIP3    H1 3810   0.478   4.562   3.031
 1268TIP3    H2 3811   0.522   4.706   3.044
 1269TIP3   OH2 3812   5.839   4.230   2.144
 1269TIP3    H1 3813   5.797   4.156   2.187
 1269TIP3    H2 3814   5.897   4.191   2.079
 1270TIP3   OH2 3815   1.013   5.464   3.878
 1270TIP3    H1 3816   0.926   5.501   3.887
 1270TIP3    H2 3817   0.999   5.372   3.856
 1271TIP3   OH2 3818   0.684   2.202   4.693
 1271TIP3    H1 3819   0.758   2.212   4.753
 1271TIP3    H2 3820   0.651   2.292   4.681
 1272TIP3   OH2 3821   0.252   5.298   2.053
 1272TIP3    H1 3822   0.180   5.356   2.030
 1272TIP3    H2 3823   0.212   5.211   2.058
 1273TIP3   OH2 3824   0.712   5.296   1.779
 1273TIP3    H1 3825   0.781   5.308   1.714
 1273TIP3    H2 3826   0.752   5.323   1.862
 1274TIP3   OH2 3827   0.990   1.337   1.027
 1274TIP3    H1 3828   1.065   1.371   0.978
 1274TIP3    H2 3829   0.981   1.395   1.102
 1275TIP3   OH2 3830   1.626   2.825   1.358
 1275TIP3    H1 3831   1.681   2.878   1.417
 1275TIP3    H2 3832   1.540   2.867   1.362
 1276TIP3   OH2 3833   3.346   1.534   0.227
 1276TIP3    H1 3834   3.259   1.506   0.253
 1276TIP3    H2 3835   3.387   1.454   0.191
 1277TIP3   OH2 3836   3.971   5.300   2.200
 1277TIP3    H1 3837   4.023   5.353   2.261
 1277TIP3    H2 3838   4.026   5.224   2.182
 1278TIP3   OH2 3839   2.563   3.246   0.865
 1278TIP3    H1 3840   2.492   3.279   0.809
 1278TIP3    H2 3841   2.524   3.237   0.951
 1279TIP3   OH2 3842   1.163   1.638   5.081
 1279TIP3    H1 3843   1.081   1.671   5.046
 1279TIP3    H2 3844   1.197   1.711   5.135
 1280TIP3   OH2 3845   2.828   3.420   4.858
 1280TIP3    H1 3846   2.841   3.486   4.926
 1280TIP3    H2 3847   2.774   3.353   4.900
 1281TIP3   OH2 3848   4.618   0.610   3.292
 1281TIP3    H1 3849   4.542   0.663   3.270
 1281TIP3    H2 3850   4.662   0.597   3.208
 1282TIP3   OH2 3851   1.163   0.370   5.054
 1282TIP3    H1 3852   1.169   0.306   4.984
 1282TIP3    H2 3853   1.111   0.442   5.017
 1283TIP3   OH2 3854   2.559   2.644   3.099
 1283TIP3    H1 3855   2.589   2.615   3.013
 1283TIP3    H2 3856   2.612   2.722   3.117
 1284TIP3   OH2 3857   2.683   3.502   3.023
 1284TIP3    H1 3858   2.705   3.446   3.097
 1284TIP3    H2 3859   2.674   3.589   3.062
 1285TIP3   OH2 3860   1.120   5.865   4.927
 1285TIP3    H1 3861   1.214   5.885   4.927
 1285TIP3    H2 3862   1.111   5.800   4.997
 1286TIP3   OH2 3863   2.277   5.084   3.987
 1286TIP3    H1 3864   2.227   5.038   3.920
 1286TIP3    H2 3865   2.238   5.056   4.070
 1287TIP3   OH2 3866   3.403   0.405   4.645
 1287TIP3    H1 3867   3.349   0.350   4.588
 1287TIP3    H2 3868   3.487   0.359   4.652
 1288TIP3   OH2 3869   3.750   2.786   0.525
 1288TIP3    H1 3870   3.805   2.815   0.597
 1288TIP3    H2 3871   3.692   2.860   0.507
 1289TIP3   OH2 3872   0.886   4.958   3.238
 1289TIP3    H1 3873   0.804   4.995   3.271
 1289TIP3    H2 3874   0.900   4.880   3.291
 1290TIP3   OH2 3875   4.384   2.355   1.188
 1290TIP3    H1 3876   4.361   2.341   1.096
 1290TIP3    H2 3877   4.345   2.281   1.233
 1291TIP3   OH2 3878   0.212   5.756   4.032
 1291TIP3    H1 3879   0.223   5.849   4.053
 1291TIP3    H2 3880   0.282   5.712   4.080
 1292TIP3   OH2 3881   2.898   4.668   3.360
 1292TIP3    H1 3882   2.852   4.654   3.277
 1292TIP3    H2 3883   2.969   4.604   3.358
 1293TIP3   OH2 3884   0.782   3.491   1.963
 1293TIP3    H1 3885   0.873   3.509   1.988
 1293TIP3    H2 3886   0.762   3.557   1.897
 1294TIP3   OH2 3887   1.226   3.325   0.320
 1294TIP3    H1 3888   1.273   3.241   0.309
 1294TIP3    H2 3889   1.207   3.330   0.413
 1295TIP3   OH2 3890   5.731   3.323   0.381
 1295TIP3    H1 3891   5.713   3.292   0.292
 1295TIP3    H2 3892   5.818   3.362   0.376
 1296TIP3   OH2 3893   0.157   3.148   0.117
 1296TIP3    H1 3894   0.233   3.140   0.175
 1296TIP3    H2 3895   0.105   3.069   0.135
 1297TIP3   OH2 3896   5.679   2.601   1.765
 1297TIP3    H1 3897   5.613   2.538   1.793
 1297TIP3    H2 3898   5.663   2.679   1.818
 1298TIP3   OH2 3899   6.145   1.462   2.070
 1298TIP3    H1 3900   6.231   1.446   2.030
 1298TIP3    H2 3901   6.159   1.445   2.163
 1299TIP3   OH2 3902   6.111   1.365   1.627
 1299TIP3    H1 3903   6.093   1.361   1.721
 1299TIP3    H2 3904   6.024   1.377   1.587
 1300TIP3   OH2 3905   1.527   5.951   2.861
 1300TIP3    H1 3906   1.549   5.942   2.769
 1300TIP3    H2 3907   1.588   5.893   2.907
 1301TIP3   OH2 3908   0.281   0.289   0.534
 1301TIP3    H1 3909   0.359   0.235   0.550
 1301TIP3    H2 3910   0.301   0.373   0.574
 1302TIP3   OH2 3911   2.191   0.077   0.782
 1302TIP3    H1 3912   2.266   0.125   0.747
 1302TIP3    H2 3913   2.132   0.069   0.707
 1303TIP3   OH2 3914   0.627   1.458   4.912
 1303TIP3    H1 3915   0.545   1.428   4.952
 1303TIP3    H2 3916   0.673   1.377   4.888
 1304TIP3   OH2 3917   1.953   5.010   1.814
 1304TIP3    H1 3918   1.972   5.013   1.721
 1304TIP3    H2 3919   1.861   4.985   1.819
 1305TIP3   OH2 3920   0.677   2.980   3.772
 1305TIP3    H1 3921   0.760   2.984   3.724
 1305TIP3    H2 3922   0.662   3.070   3.800
 1306TIP3   OH2 3923   4.867   5.989   0.836
 1306TIP3    H1 3924   4.931   6.016   0.902
 1306TIP3    H2 3925   4.882   5.895   0.825
 1307TIP3   OH2 3926   6.112   4.806   4.704
 1307TIP3    H1 3927   6.179   4.872   4.721
 1307TIP3    H2 3928   6.029   4.849   4.728
 1308TIP3   OH2 3929   5.004   1.716   2.131
 1308TIP3    H1 3930   5.045   1.792   2.171
 1308TIP3    H2 3931   4.927   1.750   2.087
 1309TIP3   OH2 3932   1.455   5.247   4.794
 1309TIP3    H1 3933   1.546   5.226   4.774
 1309TIP3    H2 3934   1.412   5.163   4.802
 1310TIP3   OH2 3935   5.904   3.121   4.272
 1310TIP3    H1 3936   5.925   3.117   4.365
 1310TIP3    H2 3937   5.901   3.215   4.252
 1311TIP3   OH2 3938   4.923   4.720   2.309
 1311TIP3    H1 3939   5.014   4.710   2.283
 1311TIP3    H2 3940   4.920   4.803   2.355
 1312TIP3   OH2 3941   1.528   1.074   0.756
 1312TIP3    H1 3942   1.532   1.169   0.766
 1312TIP3    H2 3943   1.614   1.043   0.782
 1313TIP3   OH2 3944   1.911   4.263   5.006
 1313TIP3    H1 3945   1.972   4.300   4.942
 1313TIP3    H2 3946   1.952   4.280   5.091
 1314TIP3   OH2 3947   4.411   1.287   2.455
 1314TIP3    H1 3948   4.342   1.263   2.516
 1314TIP3    H2 3949   4.401   1.382   2.444
 1315TIP3   OH2 3950   4.149   4.789   3.526
 1315TIP3    H1 3951   4.153   4.844   3.448
 1315TIP3    H2 3952   4.238   4.790   3.560
 1316TIP3   OH2 3953   3.086   4.387   1.091
 1316TIP3    H1 3954   3.059   4.416   1.004
 1316TIP3    H2 3955   3.177   4.360   1.080
 1317TIP3   OH2 3956   0.704   2.477   2.158
 1317TIP3    H1 3957   0.629   2.531   2.181
 1317TIP3    H2 3958   0.749   2.463   2.242
 1318TIP3   OH2 3959   4.560   5.750   2.487
 1318TIP3    H1 3960   4.530   5.733   2.576
 1318TIP3    H2 3961   4.641   5.800   2.498
 1319TIP3   OH2 3962   2.000   1.338   4.364
 1319TIP3    H1 3963   1.976   1.352   4.273
 1319TIP3    H2 3964   1.971   1.417   4.409
 1320TIP3   OH2 3965   6.059   4.269   1.168
 1320TIP3    H1 3966   5.994   4.336   1.189
 1320TIP3    H2 3967   6.028   4.231   1.086
 1321TIP3   OH2 3968   0.065   4.552   0.508
 1321TIP3    H1 3969   0.067   4.626   0.447
 1321TIP3    H2 3970   0.151   4.552   0.549
 1322TIP3   OH2 3971   1.165   4.230   2.970
 1322TIP3    H1 3972   1.224   4.159   2.997
 1322TIP3    H2 3973   1.094   4.227   3.034
 1323TIP3   OH2 3974   5.912   1.190   0.122
 1323TIP3    H1 3975   6.006   1.176   0.130
 1323TIP3    H2 3976   5.878   1.184   0.211
 1324TIP3   OH2 3977   6.236   2.350   3.305
 1324TIP3    H1 3978   6.243   2.259   3.334
 1324TIP3    H2 3979   6.143   2.372   3.313
 1325TIP3   OH2 3980   0.747   2.556   4.017
 1325TIP3    H1 3981   0.658   2.570   4.047
 1325TIP3    H2 3982   0.791   2.516   4.092
 1326TIP3   OH2 3983   1.655   3.364   4.711
 1326TIP3    H1 3984   1.741   3.406   4.718
 1326TIP3    H2 3985   1.669   3.275   4.742
 1327TIP3   OH2 3986   6.290   2.438   4.465
 1327TIP3    H1 3987   6.341   2.367   4.502
 1327TIP3    H2 3988   6.336   2.464   4.386
 1328TIP3   OH2 3989   5.538   1.443   4.252
 1328TIP3    H1 3990   5.487   1.369   4.286
 1328TIP3    H2 3991   5.488   1.520   4.277
 1329TIP3   OH2 3992   0.072   1.590   4.578
 1329TIP3    H1 3993   0.035   1.560   4.661
 1329TIP3    H2 3994   0.015   1.551   4.511
 1330TIP3   OH2 3995   3.528   2.161   5.061
 1330TIP3    H1 3996   3.456   2.103   5.037
 1330TIP3    H2 3997   3.498   2.248   5.033
 1331TIP3   OH2 3998   0.562   2.698   1.968
 1331TIP3    H1 3999   0.552   2.760   1.896
 1331TIP3    H2 4000   0.633   2.734   2.021
 1332TIP3   OH2 4001   2.090   4.481   0.574
 1332TIP3    H1 4002   2.049   4.396   0.583
 1332TIP3    H2 4003   2.129   4.480   0.487
 1333TIP3   OH2 4004   2.798   2.088   3.815
 1333TIP3    H1 4005   2.707   2.077   3.842
 1333TIP3    H2 4006   2.849   2.062   3.892
 1334TIP3   OH2 4007   1.515   4.506   1.930
 1334TIP3    H1 4008   1.440   4.446   1.933
 1334TIP3    H2 4009   1.592   4.449   1.930
 1335TIP3   OH2 4010   4.219   2.882   0.742
 1335TIP3    H1 4011   4.225   2.941   0.668
 1335TIP3    H2 4012   4.241   2.796   0.706
 1336TIP3   OH2 4013   2.476   3.339   5.108
 1336TIP3    H1 4014   2.462   3.357   5.201
 1336TIP3    H2 4015   2.389   3.319   5.075
 1337TIP3   OH2 4016   4.500   2.209   4.256
 1337TIP3    H1 4017   4.471   2.138   4.199
 1337TIP3    H2 4018   4.424   2.266   4.264
 1338TIP3   OH2 4019   2.261   3.281   3.077
 1338TIP3    H1 4020   2.287   3.193   3.105
 1338TIP3    H2 4021   2.294   3.339   3.146
 1339TIP3   OH2 4022   0.102   3.693   3.012
 1339TIP3    H1 4023   0.155   3.689   2.933
 1339TIP3    H2 4024   0.062   3.780   3.010
 1340TIP3   OH2 4025   5.158   5.309   4.105
 1340TIP3    H1 4026   5.137   5.227   4.150
 1340TIP3    H2 4027   5.193   5.282   4.020
 1341TIP3   OH2 4028   4.509   3.424   3.122
 1341TIP3    H1 4029   4.449   3.488   3.160
 1341TIP3    H2 4030   4.481   3.340   3.159
 1342TIP3   OH2 4031   1.196   2.353   2.318
 1342TIP3    H1 4032   1.252   2.291   2.271
 1342TIP3    H2 4033   1.190   2.316   2.407
 1343TIP3   OH2 4034   5.597   1.642   2.711
 1343TIP3    H1 4035   5.577   1.559   2.754
 1343TIP3    H2 4036   5.691   1.655   2.728
 1344TIP3   OH2 4037   2.555   2.169   1.789
 1344TIP3    H1 4038   2.578   2.078   1.808
 1344TIP3    H2 4039   2.622   2.221   1.833
 1345TIP3   OH2 4040   4.507   1.867   1.240
 1345TIP3    H1 4041   4.575   1.882   1.306
 1345TIP3    H2 4042   4.551   1.883   1.157
 1346TIP3   OH2 4043   5.810   5.951   0.334
 1346TIP3    H1 4044   5.752   5.991   0.268
 1346TIP3    H2 4045   5.863   6.024   0.366
 1347TIP3   OH2 4046   5.172   0.133   0.505
 1347TIP3    H1 4047   5.205   0.209   0.458
 1347TIP3    H2 4048   5.131   0.079   0.438
 1348TIP3   OH2 4049   2.056   4.430   4.169
 1348TIP3    H1 4050   2.033   4.469   4.084
 1348TIP3    H2 4051   2.113   4.495   4.210
 1349TIP3   OH2 4052   5.996   0.750   0.709
 1349TIP3    H1 4053   5.947   0.826   0.740
 1349TIP3    H2 4054   5.929   0.685   0.688
 1350TIP3   OH2 4055   5.879   5.373   2.947
 1350TIP3    H1 4056   5.797   5.355   2.900
 1350TIP3    H2 4057   5.938   5.303   2.919
 1351TIP3   OH2 4058   1.193   0.585   0.491
 1351TIP3    H1 4059   1.240   0.501   0.495
 1351TIP3    H2 4060   1.124   0.570   0.426
 1352TIP3   OH2 4061   5.472   4.822   3.190
 1352TIP3    H1 4062   5.521   4.874   3.127
 1352TIP3    H2 4063   5.425   4.886   3.243
 1353TIP3   OH2 4064   0.460   2.658   3.209
 1353TIP3    H1 4065   0.422   2.733   3.163
 1353TIP3    H2 4066   0.448   2.585   3.148
 1354TIP3   OH2 4067   4.501   3.336   0.485
 1354TIP3    H1 4068   4.520   3.428   0.467
 1354TIP3    H2 4069   4.490   3.332   0.580
 1355TIP3   OH2 4070   6.198   1.898   3.284
 1355TIP3    H1 4071   6.270   1.857   3.237
 1355TIP3    H2 4072   6.166   1.830   3.343
 1356TIP3   OH2 4073   5.740   3.103   3.609
 1356TIP3    H1 4074   5.697   3.156   3.542
 1356TIP3    H2 4075   5.796   3.164   3.657
 1357TIP3   OH2 4076   0.986   0.609   1.044
 1357TIP3    H1 4077   1.079   0.594   1.027
 1357TIP3    H2 4078   0.973   0.702   1.025
 1358TIP3   OH2 4079   0.920   4.261   4.151
 1358TIP3    H1 4080   0.844   4.286   4.203
 1358TIP3    H2 4081   0.952   4.181   4.194
 1359TIP3   OH2 4082   6.184   1.033   3.184
 1359TIP3    H1 4083   6.240   0.957   3.198
 1359TIP3    H2 4084   6.197   1.056   3.093
 1360TIP3   OH2 4085   5.045   1.420   0.577
 1360TIP3    H1 4086   5.118   1.461   0.531
 1360TIP3    H2 4087   5.085   1.377   0.653
 1361TIP3   OH2 4088   0.321   5.489   1.157
 1361TIP3    H1 4089   0.290   5.445   1.236
 1361TIP3    H2 4090   0.407   5.449   1.140
 1362TIP3   OH2 4091   3.117   1.235   2.940
 1362TIP3    H1 4092   3.175   1.296   2.985
 1362TIP3    H2 4093   3.054   1.291   2.895
 1363TIP3   OH2 4094   5.764   1.886   2.416
 1363TIP3    H1 4095   5.812   1.969   2.408
 1363TIP3    H2 4096   5.757   1.854   2.327
 1364TIP3   OH2 4097   1.639   4.376   5.100
 1364TIP3    H1 4098   1.630   4.318   5.175
 1364TIP3    H2 4099   1.722   4.352   5.060
 1365TIP3   OH2 4100   5.517   5.010   4.181
 1365TIP3    H1 4101   5.506   5.060   4.100
 1365TIP3    H2 4102   5.525   5.077   4.249
 1366TIP3   OH2 4103   1.073   4.141   2.178
 1366TIP3    H1 4104   1.051   4.149   2.085
 1366TIP3    H2 4105   1.020   4.069   2.210
 1367TIP3   OH2 4106   4.650   2.881   0.182
 1367TIP3    H1 4107   4.657   2.969   0.146
 1367TIP3    H2 4108   4.734   2.866   0.225
 1368TIP3   OH2 4109   4.151   2.137   2.025
 1368TIP3    H1 4110   4.125   2.045   2.034
 1368TIP3    H2 4111   4.138   2.174   2.113
 1369TIP3   OH2 4112   1.712   2.035   2.643
 1369TIP3    H1 4113   1.763   1.960   2.673
 1369TIP3    H2 4114   1.681   2.010   2.556
 1370TIP3   OH2 4115   5.161   1.731   2.769
 1370TIP3    H1 4116   5.069   1.708   2.784
 1370TIP3    H2 4117   5.164   1.762   2.679
 1371TIP3   OH2 4118   5.352   3.073   4.059
 1371TIP3    H1 4119   5.317   3.111   3.979
 1371TIP3    H2 4120   5.351   2.978   4.043
 1372TIP3   OH2 4121   4.502   0.554   2.726
 1372TIP3    H1 4122   4.454   0.573   2.806
 1372TIP3    H2 4123   4.438   0.566   2.656
 1373TIP3   OH2 4124   4.218   5.187   0.945
 1373TIP3    H1 4125   4.136   5.139   0.935
 1373TIP3    H2 4126   4.230   5.194   1.039
 1374TIP3   OH2 4127   4.593   2.063   2.966
 1374TIP3    H1 4128   4.620   1.997   3.029
 1374TIP3    H2 4129   4.669   2.119   2.955
 1375TIP3   OH2 4130   5.749   3.162   1.193
 1375TIP3    H1 4131   5.679   3.183   1.132
 1375TIP3    H2 4132   5.795   3.088   1.153
 1376TIP3   OH2 4133   4.763   3.532   2.578
 1376TIP3    H1 4134   4.677   3.502   2.550
 1376TIP3    H2 4135   4.787   3.600   2.515
 1377TIP3   OH2 4136   4.989   3.431   3.343
 1377TIP3    H1 4137   5.043   3.498   3.385
 1377TIP3    H2 4138   5.043   3.397   3.272
 1378TIP3   OH2 4139   2.426   5.787   2.629
 1378TIP3    H1 4140   2.358   5.772   2.564
 1378TIP3    H2 4141   2.417   5.880   2.652
 1379TIP3   OH2 4142   1.103   2.539   4.558
 1379TIP3    H1 4143   1.096   2.548   4.653
 1379TIP3    H2 4144   1.154   2.459   4.544
 1380TIP3   OH2 4145   1.556   3.956   1.765
 1380TIP3    H1 4146   1.615   3.926   1.834
 1380TIP3    H2 4147   1.593   3.920   1.684
 1381TIP3   OH2 4148   0.864   4.882   0.767
 1381TIP3    H1 4149   0.862   4.967   0.811
 1381TIP3    H2 4150   0.955   4.872   0.738
 1382TIP3   OH2 4151   3.025   1.944   3.323
 1382TIP3    H1 4152   2.962   1.875   3.346
 1382TIP3    H2 4153   3.096   1.933   3.386
 1383TIP3   OH2 4154   3.837   1.440   4.556
 1383TIP3    H1 4155   3.913   1.484   4.517
 1383TIP3    H2 4156   3.860   1.431   4.649
 1384TIP3   OH2 4157   4.256   5.883   2.805
 1384TIP3    H1 4158   4.213   5.798   2.814
 1384TIP3    H2 4159   4.184   5.945   2.797
 1385TIP3   OH2 4160   5.807   4.539   1.383
 1385TIP3    H1 4161   5.873   4.602   1.353
 1385TIP3    H2 4162   5.808   4.470   1.317
 1386TIP3   OH2 4163   0.409   5.945   0.319
 1386TIP3    H1 4164   0.328   5.939   0.369
 1386TIP3    H2 4165   0.456   6.018   0.360
 1387TIP3   OH2 4166   0.631   3.546   1.025
 1387TIP3    H1 4167   0.657   3.457   1.003
 1387TIP3    H2 4168   0.536   3.542   1.035
 1388TIP3   OH2 4169   0.329   3.910   4.126
 1388TIP3    H1 4170   0.315   3.935   4.217
 1388TIP3    H2 4171   0.424   3.909   4.116
 1389TIP3   OH2 4172   0.902   5.810   3.913
 1389TIP3    H1 4173   0.986   5.768   3.933
 1389TIP3    H2 4174   0.924   5.901   3.895
 1390TIP3   OH2 4175   2.613   3.475   4.403
 1390TIP3    H1 4176   2.527   3.433   4.399
 1390TIP3    H2 4177   2.666   3.417   4.457
 1391TIP3   OH2 4178   3.008   0.635   2.354
 1391TIP3    H1 4179   2.936   0.631   2.417
 1391TIP3    H2 4180   2.967   0.622   2.269
 1392TIP3   OH2 4181   2.313   3.328   0.721
 1392TIP3    H1 4182   2.230   3.361   0.687
 1392TIP3    H2 4183   2.343   3.266   0.654
 1393TIP3   OH2 4184   4.726   1.440   4.874
 1393TIP3    H1 4185   4.819   1.441   4.898
 1393TIP3    H2 4186   4.725   1.457   4.780
 1394TIP3   OH2 4187   2.123   4.257   1.422
 1394TIP3    H1 4188   2.145   4.342   1.462
 1394TIP3    H2 4189   2.029   4.261   1.408
 1395TIP3   OH2 4190   4.126   1.912   3.415
 1395TIP3    H1 4191   4.091   1.974   3.350
 1395TIP3    H2 4192   4.074   1.929   3.494
 1396TIP3   OH2 4193   1.379   5.134   0.823
 1396TIP3    H1 4194   1.438   5.192   0.872
 1396TIP3    H2 4195   1.368   5.177   0.738
 1397TIP3   OH2 4196   1.538   5.263   3.561
 1397TIP3    H1 4197   1.458   5.213   3.542
 1397TIP3    H2 4198   1.609   5.202   3.543
 1398TIP3   OH2 4199   2.264   1.826   0.570
 1398TIP3    H1 4200   2.296   1.887   0.637
 1398TIP3    H2 4201   2.261   1.878   0.490
 1399TIP3   OH2 4202   4.649   2.129   1.552
 1399TIP3    H1 4203   4.657   2.197   1.485
 1399TIP3    H2 4204   4.570   2.081   1.528
 1400TIP3   OH2 4205   5.280   0.705   4.697
 1400TIP3    H1 4206   5.313   0.620   4.726
 1400TIP3    H2 4207   5.358   0.757   4.683
 1401TIP3   OH2 4208   1.078   5.046   2.002
 1401TIP3    H1 4209   1.043   5.098   2.074
 1401TIP3    H2 4210   1.013   5.054   1.933
 1402TIP3   OH2 4211   5.808   2.760   2.732
 1402TIP3    H1 4212   5.744   2.723   2.793
 1402TIP3    H2 4213   5.844   2.684   2.686
 1403TIP3   OH2 4214   1.788   5.493   3.424
 1403TIP3    H1 4215   1.778   5.587   3.413
 1403TIP3    H2 4216   1.859   5.483   3.487
 1404TIP3   OH2 4217   5.207   2.134   3.708
 1404TIP3    H1 4218   5.206   2.124   3.804
 1404TIP3    H2 4219   5.293   2.172   3.689
 1405TIP3   OH2 4220   2.307   2.187   0.190
 1405TIP3    H1 4221   2.340   2.214   0.275
 1405TIP3    H2 4222   2.263   2.103   0.206
 1406TIP3   OH2 4223   0.666   2.752   1.491
 1406TIP3    H1 4224   0.658   2.748   1.587
 1406TIP3    H2 4225   0.761   2.750   1.475
 1407TIP3   OH2 4226   5.287   1.243   1.196
 1407TIP3    H1 4227   5.211   1.299   1.207
 1407TIP3    H2 4228   5.261   1.179   1.129
 1408TIP3   OH2 4229   0.646   2.882   1.759
 1408TIP3    H1 4230   0.715   2.919   1.814
 1408TIP3    H2 4231   0.627   2.951   1.695
 1409TIP3   OH2 4232   1.307   3.316   3.603
 1409TIP3    H1 4233   1.346   3.236   3.568
 1409TIP3    H2 4234   1.360   3.387   3.565
 1410TIP3   OH2 4235   5.880   3.363   0.852
 1410TIP3    H1 4236   5.867   3.451   0.816
 1410TIP3    H2 4237   5.855   3.372   0.944
 1411TIP3   OH2 4238   3.345   1.149   0.666
 1411TIP3    H1 4239   3.344   1.243   0.683
 1411TIP3    H2 4240   3.424   1.135   0.614
 1412TIP3   OH2 4241   2.576   1.163   2.716
 1412TIP3    H1 4242   2.521   1.122   2.782
 1412TIP3    H2 4243   2.663   1.125   2.731
 1413TIP3   OH2 4244   4.627   4.961   2.444
 1413TIP3    H1 4245   4.561   4.921   2.387
 1413TIP3    H2 4246   4.679   5.016   2.386
 1414TIP3   OH2 4247   2.126   2.157   1.446
 1414TIP3    H1 4248   2.136   2.123   1.357
 1414TIP3    H2 4249   2.031   2.164   1.457
 1415TIP3   OH2 4250   3.283   5.456   2.980
 1415TIP3    H1 4251   3.338   5.420   3.050
 1415TIP3    H2 4252   3.321   5.422   2.899
 1416TIP3   OH2 4253   1.531   1.376   4.095
 1416TIP3    H1 4254   1.514   1.470   4.090
 1416TIP3    H2 4255   1.545   1.349   4.004
 1417TIP3   OH2 4256   3.835   2.799   4.572
 1417TIP3    H1 4257   3.817   2.809   4.665
 1417TIP3    H2 4258   3.751   2.816   4.529
 1418TIP3   OH2 4259   4.559   1.592   0.953
 1418TIP3    H1 4260   4.547   1.513   1.006
 1418TIP3    H2 4261   4.473   1.607   0.913
 1419TIP3   OH2 4262   4.827   1.354   3.384
 1419TIP3    H1 4263   4.885   1.316   3.450
 1419TIP3    H2 4264   4.870   1.336   3.300
 1420TIP3   OH2 4265   0.324   3.717   2.818
 1420TIP3    H1 4266   0.365   3.641   2.859
 1420TIP3    H2 4267   0.344   3.790   2.877
 1421TIP3   OH2 4268   5.738   3.143   2.962
 1421TIP3    H1 4269   5.680   3.110   2.893
 1421TIP3    H2 4270   5.784   3.216   2.922
 1422TIP3   OH2 4271   6.246   5.484   3.651
 1422TIP3    H1 4272   6.325   5.447   3.611
 1422TIP3    H2 4273   6.209   5.412   3.701
 1423TIP3   OH2 4274   3.354   5.081   4.791
 1423TIP3    H1 4275   3.429   5.048   4.741
 1423TIP3    H2 4276   3.389   5.097   4.878
 1424TIP3   OH2 4277   5.512   3.772   4.070
 1424TIP3    H1 4278   5.565   3.823   4.009
 1424TIP3    H2 4279   5.422   3.801   4.054
 1425TIP3   OH2 4280   5.708   2.439   0.404
 1425TIP3    H1 4281   5.700   2.353   0.362
 1425TIP3    H2 4282   5.797   2.466   0.384
 1426TIP3   OH2 4283   3.059   1.476   2.795
 1426TIP3    H1 4284   3.140   1.441   2.759
 1426TIP3    H2 4285   3.015   1.518   2.721
 1427TIP3   OH2 4286   2.565   5.835   4.389
 1427TIP3    H1 4287   2.578   5.920   4.348
 1427TIP3    H2 4288   2.486   5.845   4.442
 1428TIP3   OH2 4289   4.995   1.434   2.972
 1428TIP3    H1 4290   5.042   1.354   2.995
 1428TIP3    H2 4291   4.905   1.407   2.959
 1429TIP3   OH2 4292   1.788   4.325   2.462
 1429TIP3    H1 4293   1.756   4.328   2.371
 1429TIP3    H2 4294   1.732   4.260   2.504
 1430TIP3   OH2 4295   2.807   5.437   2.244
 1430TIP3    H1 4296   2.888   5.468   2.284
 1430TIP3    H2 4297   2.802   5.345   2.270
 1431TIP3   OH2 4298   2.257   1.928   0.269
 1431TIP3    H1 4299   2.172   1.928   0.225
 1431TIP3    H2 4300   2.306   1.857   0.226
 1432TIP3   OH2 4301   1.548   5.401   1.584
 1432TIP3    H1 4302   1.575   5.490   1.562
 1432TIP3    H2 4303   1.455   5.409   1.605
 1433TIP3   OH2 4304   5.219   1.344   5.031
 1433TIP3    H1 4305   5.247   1.261   5.068
 1433TIP3    H2 4306   5.301   1.389   5.010
 1434TIP3   OH2 4307   3.402   3.400   3.381
 1434TIP3    H1 4308   3.460   3.474   3.397
 1434TIP3    H2 4309   3.390   3.360   3.467
 1435TIP3   OH2 4310   2.984   2.515   1.185
 1435TIP3    H1 4311   2.908   2.476   1.143
 1435TIP3    H2 4312   3.037   2.548   1.112
 1436TIP3   OH2 4313   0.102   0.681   1.391
 1436TIP3    H1 4314   0.021   0.641   1.360
 1436TIP3    H2 4315   0.167   0.659   1.325
 1437TIP3   OH2 4316   4.328   5.571   0.756
 1437TIP3    H1 4317   4.278   5.489   0.761
 1437TIP3    H2 4318   4.287   5.628   0.821
 1438TIP3   OH2 4319   0.561   5.834   0.579
 1438TIP3    H1 4320   0.587   5.925   0.592
 1438TIP3    H2 4321   0.628   5.798   0.520
 1439TIP3   OH2 4322   3.632   4.790   4.354
 1439TIP3    H1 4323   3.622   4.715   4.412
 1439TIP3    H2 4324   3.558   4.784   4.294
 1440TIP3   OH2 4325   2.165   1.566   2.543
 1440TIP3    H1 4326   2.161   1.534   2.453
 1440TIP3    H2 4327   2.250   1.610   2.549
 1441TIP3   OH2 4328   2.433   2.500   0.686
 1441TIP3    H1 4329   2.504   2.520   0.624
 1441TIP3    H2 4330   2.477   2.453   0.757
 1442TIP3   OH2 4331   3.489   5.933   4.892
 1442TIP3    H1 4332   3.564   5.922   4.950
 1442TIP3    H2 4333   3.526   5.934   4.804
 1443TIP3   OH2 4334   2.057   5.319   0.740
 1443TIP3    H1 4335   2.071   5.235   0.782
 1443TIP3    H2 4336   2.082   5.384   0.806
 1444TIP3   OH2 4337   3.777   4.272   1.586
 1444TIP3    H1 4338   3.803   4.210   1.654
 1444TIP3    H2 4339   3.859   4.306   1.551
 1445TIP3   OH2 4340   5.977   3.604   2.053
 1445TIP3    H1 4341   6.025   3.523   2.035
 1445TIP3    H2 4342   5.988   3.619   2.147
 1446TIP3   OH2 4343   4.182   1.065   2.883
 1446TIP3    H1 4344   4.260   1.012   2.865
 1446TIP3    H2 4345   4.166   1.112   2.802
 1447TIP3   OH2 4346   1.710   3.105   0.065
 1447TIP3    H1 4347   1.719   3.074   0.155
 1447TIP3    H2 4348   1.796   3.140   0.043
 1448TIP3   OH2 4349   5.675   4.576   2.607
 1448TIP3    H1 4350   5.646   4.485   2.598
 1448TIP3    H2 4351   5.619   4.625   2.546
 1449TIP3   OH2 4352   2.705   5.862   2.873
 1449TIP3    H1 4353   2.706   5.772   2.840
 1449TIP3    H2 4354   2.636   5.904   2.823
 1450TIP3   OH2 4355   5.663   0.238   2.002
 1450TIP3    H1 4356   5.596   0.279   1.947
 1450TIP3    H2 4357   5.744   0.245   1.952
 1451TIP3   OH2 4358   4.118   5.572   2.594
 1451TIP3    H1 4359   4.118   5.494   2.649
 1451TIP3    H2 4360   4.108   5.645   2.656
 1452TIP3   OH2 4361   3.107   0.825   3.960
 1452TIP3    H1 4362   3.183   0.798   4.012
 1452TIP3    H2 4363   3.094   0.917   3.981
 1453TIP3   OH2 4364   4.619   0.034   2.367
 1453TIP3    H1 4365   4.525   0.024   2.382
 1453TIP3    H2 4366   4.659   0.014   2.452
 1454TIP3   OH2 4367   2.845   2.044   1.850
 1454TIP3    H1 4368   2.792   2.114   1.888
 1454TIP3    H2 4369   2.935   2.072   1.865
 1455TIP3   OH2 4370   2.129   3.387   1.958
 1455TIP3    H1 4371   2.121   3.292   1.950
 1455TIP3    H2 4372   2.223   3.403   1.957
 1456TIP3   OH2 4373   1.514   0.640   1.382
 1456TIP3    H1 4374   1.459   0.562   1.393
 1456TIP3    H2 4375   1.471   0.690   1.313
 1457TIP3   OH2 4376   2.421   1.485   0.558
 1457TIP3    H1 4377   2.450   1.470   0.468
 1457TIP3    H2 4378   2.500   1.511   0.606
 1458TIP3   OH2 4379   5.129   3.464   0.114
 1458TIP3    H1 4380   5.180   3.391   0.150
 1458TIP3    H2 4381   5.103   3.435   0.027
 1459TIP3   OH2 4382   2.681   2.304   2.573
 1459TIP3    H1 4383   2.622   2.265   2.509
 1459TIP3    H2 4384   2.632   2.303   2.655
 1460TIP3   OH2 4385   2.023   0.610   3.666
 1460TIP3    H1 4386   1.988   0.559   3.739
 1460TIP3    H2 4387   2.109   0.640   3.697
 1461TIP3   OH2 4388   4.512   2.265   4.520
 1461TIP3    H1 4389   4.570   2.189   4.524
 1461TIP3    H2 4390   4.506   2.286   4.426
 1462TIP3   OH2 4391   2.262   4.218   0.509
 1462TIP3    H1 4392   2.166   4.211   0.509
 1462TIP3    H2 4393   2.290   4.155   0.575
 1463TIP3   OH2 4394   1.616   0.375   5.208
 1463TIP3    H1 4395   1.557   0.450   5.213
 1463TIP3    H2 4396   1.565   0.307   5.164
 1464TIP3   OH2 4397   4.571   5.787   2.052
 1464TIP3    H1 4398   4.507   5.759   1.987
 1464TIP3    H2 4399   4.520   5.835   2.117
 1465TIP3   OH2 4400   5.258   5.459   3.885
 1465TIP3    H1 4401   5.273   5.457   3.980
 1465TIP3    H2 4402   5.163   5.456   3.876
 1466TIP3   OH2 4403   0.079   5.139   0.485
 1466TIP3    H1 4404  -0.002   5.149   0.434
 1466TIP3    H2 4405   0.069   5.055   0.529
 1467TIP3   OH2 4406   0.421   1.732   3.464
 1467TIP3    H1 4407   0.498   1.762   3.513
 1467TIP3    H2 4408   0.419   1.788   3.386
 1468TIP3   OH2 4409   3.652   2.660   2.085
 1468TIP3    H1 4410   3.644   2.711   2.166
 1468TIP3    H2 4411   3.727   2.698   2.040
 1469TIP3   OH2 4412   3.391   2.588   3.908
 1469TIP3    H1 4413   3.483   2.565   3.913
 1469TIP3    H2 4414   3.351   2.545   3.984
 1470TIP3   OH2 4415   5.455   1.896   3.933
 1470TIP3    H1 4416   5.368   1.936   3.937
 1470TIP3    H2 4417   5.456   1.848   3.850
 1471TIP3   OH2 4418   3.405   5.161   3.497
 1471TIP3    H1 4419   3.391   5.066   3.504
 1471TIP3    H2 4420   3.498   5.173   3.519
 1472TIP3   OH2 4421   3.657   3.447   2.808
 1472TIP3    H1 4422   3.692   3.423   2.894
 1472TIP3    H2 4423   3.721   3.412   2.746
 1473TIP3   OH2 4424   5.316   1.692   1.389
 1473TIP3    H1 4425   5.321   1.597   1.384
 1473TIP3    H2 4426   5.407   1.721   1.381
 1474TIP3   OH2 4427   6.310   1.871   1.923
 1474TIP3    H1 4428   6.222   1.848   1.893
 1474TIP3    H2 4429   6.332   1.802   1.986
 1475TIP3   OH2 4430   4.798   5.926   2.183
 1475TIP3    H1 4431   4.850   5.964   2.112
 1475TIP3    H2 4432   4.754   5.851   2.144
 1476TIP3   OH2 4433   3.400   1.325   1.127
 1476TIP3    H1 4434   3.469   1.279   1.079
 1476TIP3    H2 4435   3.446   1.383   1.187
 1477TIP3   OH2 4436   3.001   2.359   0.562
 1477TIP3    H1 4437   3.047   2.299   0.622
 1477TIP3    H2 4438   3.032   2.446   0.587
 1478TIP3   OH2 4439   2.637   1.772   4.479
 1478TIP3    H1 4440   2.585   1.838   4.434
 1478TIP3    H2 4441   2.719   1.816   4.500
 1479TIP3   OH2 4442   2.379   4.752   4.489
 1479TIP3    H1 4443   2.346   4.805   4.562
 1479TIP3    H2 4444   2.405   4.669   4.529
 1480TIP3   OH2 4445   5.069  -0.012   0.281
 1480TIP3    H1 4446   5.059   0.072   0.236
 1480TIP3    H2 4447   5.142  -0.054   0.236
 1481TIP3   OH2 4448   2.111   4.988   3.775
 1481TIP3    H1 4449   2.101   5.078   3.744
 1481TIP3    H2 4450   2.054   4.936   3.718
 1482TIP3   OH2 4451   0.924   3.762   1.186
 1482TIP3    H1 4452   0.908   3.818   1.262
 1482TIP3    H2 4453   0.891   3.813   1.112
 1483TIP3   OH2 4454   0.526   0.228   0.193
 1483TIP3    H1 4455   0.442   0.272   0.182
 1483TIP3    H2 4456   0.515   0.143   0.149
 1484TIP3   OH2 4457   2.016   1.214   4.816
 1484TIP3    H1 4458   2.026   1.201   4.722
 1484TIP3    H2 4459   1.924   1.197   4.833
 1485TIP3   OH2 4460   1.392   2.962   1.016
 1485TIP3    H1 4461   1.472   3.003   0.983
 1485TIP3    H2 4462   1.409   2.868   1.013
 1486TIP3   OH2 4463   3.780   4.264   3.499
 1486TIP3    H1 4464   3.853   4.210   3.469
 1486TIP3    H2 4465   3.814   4.311   3.575
 1487TIP3   OH2 4466   0.433   4.122   4.602
 1487TIP3    H1 4467   0.473   4.049   4.650
 1487TIP3    H2 4468   0.372   4.161   4.664
 1488TIP3   OH2 4469   2.563   2.079   2.814
 1488TIP3    H1 4470   2.628   2.098   2.882
 1488TIP3    H2 4471   2.598   2.003   2.768
 1489TIP3   OH2 4472   4.165   2.815   3.002
 1489TIP3    H1 4473   4.156   2.835   3.095
 1489TIP3    H2 4474   4.097   2.749   2.984
 1490TIP3   OH2 4475   2.684   4.542   0.035
 1490TIP3    H1 4476   2.699   4.581   0.121
 1490TIP3    H2 4477   2.625   4.603  -0.010
 1491TIP3   OH2 4478   5.357   4.275   3.221
 1491TIP3    H1 4479   5.284   4.326   3.256
 1491TIP3    H2 4480   5.329   4.184   3.231
 1492TIP3   OH2 4481   0.566   0.610   5.076
 1492TIP3    H1 4482   0.537   0.657   5.155
 1492TIP3    H2 4483   0.657   0.586   5.094
 1493TIP3   OH2 4484   0.258   0.245   1.447
 1493TIP3    H1 4485   0.348   0.278   1.456
 1493TIP3    H2 4486   0.230   0.226   1.536
 1494TIP3   OH2 4487   4.423   5.903   2.288
 1494TIP3    H1 4488   4.480   5.867   2.356
 1494TIP3    H2 4489   4.335   5.875   2.313
 1495TIP3   OH2 4490   5.914   0.785   1.242
 1495TIP3    H1 4491   5.886   0.719   1.179
 1495TIP3    H2 4492   5.910   0.867   1.193
 1496TIP3   OH2 4493   1.425   5.654   5.130
 1496TIP3    H1 4494   1.513   5.687   5.108
 1496TIP3    H2 4495   1.414   5.577   5.075
 1497TIP3   OH2 4496   5.620   3.311   4.317
 1497TIP3    H1 4497   5.641   3.272   4.232
 1497TIP3    H2 4498   5.596   3.402   4.296
 1498TIP3   OH2 4499   3.550   5.653   0.185
 1498TIP3    H1 4500   3.525   5.606   0.106
 1498TIP3    H2 4501   3.468   5.687   0.220
 1499TIP3   OH2 4502   5.771   5.390   1.589
 1499TIP3    H1 4503   5.767   5.463   1.650
 1499TIP3    H2 4504   5.681   5.379   1.558
 1500TIP3   OH2 4505   4.824   3.015   0.674
 1500TIP3    H1 4506   4.773   3.042   0.597
 1500TIP3    H2 4507   4.881   3.090   0.693
 1501TIP3   OH2 4508   6.159   0.675   1.346
 1501TIP3    H1 4509   6.151   0.580   1.352
 1501TIP3    H2 4510   6.074   0.704   1.312
 1502TIP3   OH2 4511   4.825   5.898   2.472
 1502TIP3    H1 4512   4.830   5.943   2.387
 1502TIP3    H2 4513   4.854   5.964   2.535
 1503TIP3   OH2 4514   1.407   3.868   3.267
 1503TIP3    H1 4515   1.476   3.845   3.329
 1503TIP3    H2 4516   1.364   3.784   3.247
 1504TIP3   OH2 4517   2.380   0.155   2.980
 1504TIP3    H1 4518   2.416   0.228   2.928
 1504TIP3    H2 4519   2.368   0.192   3.067
 1505TIP3   OH2 4520   5.663   2.474   1.274
 1505TIP3    H1 4521   5.655   2.383   1.244
 1505TIP3    H2 4522   5.757   2.485   1.291
 1506TIP3   OH2 4523   5.444   3.545   5.080
 1506TIP3    H1 4524   5.440   3.557   4.985
 1506TIP3    H2 4525   5.473   3.629   5.114
 1507TIP3   OH2 4526   0.216   5.376   1.405
 1507TIP3    H1 4527   0.142   5.326   1.441
 1507TIP3    H2 4528   0.190   5.467   1.414
 1508TIP3   OH2 4529   1.773   3.061   1.892
 1508TIP3    H1 4530   1.822   2.992   1.936
 1508TIP3    H2 4531   1.696   3.075   1.947
 1509TIP3   OH2 4532   0.498   5.611   2.483
 1509TIP3    H1 4533   0.441   5.685   2.505
 1509TIP3    H2 4534   0.455   5.535   2.522
 1510TIP3   OH2 4535   5.291   4.960   0.965
 1510TIP3    H1 4536   5.274   5.052   0.985
 1510TIP3    H2 4537   5.311   4.959   0.872
 1511TIP3   OH2 4538   3.058   3.456   5.154
 1511TIP3    H1 4539   3.096   3.375   5.185
 1511TIP3    H2 4540   2.965   3.449   5.177
 1512TIP3   OH2 4541   4.052   5.124   4.992
 1512TIP3    H1 4542   4.021   5.213   5.009
 1512TIP3    H2 4543   4.090   5.096   5.076
 1513TIP3   OH2 4544   1.945   0.980   4.129
 1513TIP3    H1 4545   1.929   0.982   4.223
 1513TIP3    H2 4546   1.979   0.892   4.112
 1514TIP3   OH2 4547   5.084   1.313   2.500
 1514TIP3    H1 4548   5.147   1.367   2.546
 1514TIP3    H2 4549   5.135   1.269   2.431
 1515TIP3   OH2 4550   0.179   4.050   1.261
 1515TIP3    H1 4551   0.085   4.060   1.275
 1515TIP3    H2 4552   0.187   4.018   1.171
 1516TIP3   OH2 4553   4.848   5.307   4.084
 1516TIP3    H1 4554   4.919   5.283   4.144
 1516TIP3    H2 4555   4.776   5.332   4.142
 1517TIP3   OH2 4556   3.401   2.678   0.573
 1517TIP3    H1 4557   3.367   2.632   0.496
 1517TIP3    H2 4558   3.341   2.751   0.586
 1518TIP3   OH2 4559   2.940   4.411   2.759
 1518TIP3    H1 4560   3.008   4.387   2.696
 1518TIP3    H2 4561   2.894   4.485   2.719
 1519TIP3   OH2 4562   2.248   5.708   3.427
 1519TIP3    H1 4563   2.234   5.766   3.352
 1519TIP3    H2 4564   2.190   5.633   3.410
 1520TIP3   OH2 4565   2.515   1.395   0.993
 1520TIP3    H1 4566   2.428   1.418   0.959
 1520TIP3    H2 4567   2.549   1.332   0.930
 1521TIP3   OH2 4568   3.075   1.039   3.452
 1521TIP3    H1 4569   3.121   0.974   3.505
 1521TIP3    H2 4570   3.122   1.040   3.369
 1522TIP3   OH2 4571   1.102   5.217   1.532
 1522TIP3    H1 4572   1.080   5.293   1.587
 1522TIP3    H2 4573   1.036   5.219   1.463
 1523TIP3   OH2 4574   0.123   3.389   3.904
 1523TIP3    H1 4575   0.132   3.379   3.810
 1523TIP3    H2 4576   0.172   3.316   3.941
 1524TIP3   OH2 4577   4.055   2.091   3.211
 1524TIP3    H1 4578   4.106   2.084   3.130
 1524TIP3    H2 4579   3.967   2.062   3.186
 1525TIP3   OH2 4580   4.593   1.886   3.195
 1525TIP3    H1 4581   4.668   1.889   3.254
 1525TIP3    H2 4582   4.517   1.903   3.251
 1526TIP3   OH2 4583   5.853   3.296   3.289
 1526TIP3    H1 4584   5.858   3.357   3.216
 1526TIP3    H2 4585   5.807   3.220   3.254
 1527TIP3   OH2 4586   3.397   1.847   0.638
 1527TIP3    H1 4587   3.374   1.851   0.730
 1527TIP3    H2 4588   3.341   1.779   0.601
 1528TIP3   OH2 4589   0.648   3.304   0.122
 1528TIP3    H1 4590   0.733   3.328   0.086
 1528TIP3    H2 4591   0.655   3.325   0.215
 1529TIP3   OH2 4592   1.482   1.209   2.503
 1529TIP3    H1 4593   1.460   1.293   2.543
 1529TIP3    H2 4594   1.403   1.184   2.455
 1530TIP3   OH2 4595   2.205   5.178   2.775
 1530TIP3    H1 4596   2.173   5.101   2.823
 1530TIP3    H2 4597   2.130   5.205   2.722
 1531TIP3   OH2 4598   3.296   3.208   3.100
 1531TIP3    H1 4599   3.355   3.274   3.064
 1531TIP3    H2 4600   3.348   3.163   3.167
 1532TIP3   OH2 4601   1.469   2.252   2.590
 1532TIP3    H1 4602   1.442   2.342   2.570
 1532TIP3    H2 4603   1.398   2.198   2.555
 1533TIP3   OH2 4604   2.647   5.337   2.726
 1533TIP3    H1 4605   2.604   5.283   2.791
 1533TIP3    H2 4606   2.732   5.295   2.713
 1534TIP3   OH2 4607   4.656   5.670   3.928
 1534TIP3    H1 4608   4.621   5.756   3.951
 1534TIP3    H2 4609   4.748   5.674   3.956
 1535TIP3   OH2 4610   5.518   5.486   2.602
 1535TIP3    H1 4611   5.441   5.541   2.617
 1535TIP3    H2 4612   5.570   5.535   2.539
 1536TIP3   OH2 4613   0.596   3.409   0.420
 1536TIP3    H1 4614   0.635   3.356   0.491
 1536TIP3    H2 4615   0.600   3.499   0.453
 1537TIP3   OH2 4616   0.052   0.048   4.367
 1537TIP3    H1 4617   0.021  -0.022   4.424
 1537TIP3    H2 4618   0.143   0.061   4.391
 1538TIP3   OH2 4619   0.278   2.206   0.406
 1538TIP3    H1 4620   0.304   2.196   0.498
 1538TIP3    H2 4621   0.357   2.182   0.357
 1539TIP3   OH2 4622   3.398   0.207   4.918
 1539TIP3    H1 4623   3.315   0.202   4.872
 1539TIP3    H2 4624   3.446   0.129   4.890
 1540TIP3   OH2 4625   4.943   0.003   0.599
 1540TIP3    H1 4626   5.026   0.043   0.573
 1540TIP3    H2 4627   4.936   0.022   0.693
 1541TIP3   OH2 4628   4.881   5.509   0.079
 1541TIP3    H1 4629   4.896   5.423   0.118
 1541TIP3    H2 4630   4.828   5.491   0.001
 1542TIP3   OH2 4631   6.125   5.867   0.243
 1542TIP3    H1 4632   6.128   5.834   0.333
 1542TIP3    H2 4633   6.214   5.897   0.225
 1543TIP3   OH2 4634   0.103   4.611   1.770
 1543TIP3    H1 4635   0.177   4.644   1.718
 1543TIP3    H2 4636   0.103   4.666   1.848
 1544TIP3   OH2 4637   4.852   1.969   4.468
 1544TIP3    H1 4638   4.869   2.021   4.547
 1544TIP3    H2 4639   4.882   1.881   4.490
 1545TIP3   OH2 4640   1.432   4.991   3.331
 1545TIP3    H1 4641   1.503   4.928   3.334
 1545TIP3    H2 4642   1.391   4.977   3.245
 1546TIP3   OH2 4643   4.238   0.771   4.576
 1546TIP3    H1 4644   4.221   0.684   4.612
 1546TIP3    H2 4645   4.232   0.759   4.481
 1547TIP3   OH2 4646   0.056   1.380   2.779
 1547TIP3    H1 4647   0.144   1.414   2.794
 1547TIP3    H2 4648   0.056   1.293   2.820
 1548TIP3   OH2 4649   2.010   4.751   2.140
 1548TIP3    H1 4650   2.081   4.687   2.133
 1548TIP3    H2 4651   2.046   4.831   2.103
 1549TIP3   OH2 4652   5.883   2.214   1.474
 1549TIP3    H1 4653   5.975   2.191   1.463
 1549TIP3    H2 4654   5.885   2.300   1.516
 1550TIP3   OH2 4655   4.033   0.823   0.118
 1550TIP3    H1 4656   3.970   0.878   0.164
 1550TIP3    H2 4657   4.033   0.741   0.167
 1551TIP3   OH2 4658   2.751   1.533   1.046
 1551TIP3    H1 4659   2.673   1.477   1.045
 1551TIP3    H2 4660   2.716   1.622   1.052
 1552TIP3   OH2 4661   3.268   4.132   2.630
 1552TIP3    H1 4662   3.217   4.080   2.569
 1552TIP3    H2 4663   3.344   4.078   2.651
 1553TIP3   OH2 4664   1.245   2.910   0.474
 1553TIP3    H1 4665   1.170   2.957   0.510
 1553TIP3    H2 4666   1.278   2.859   0.548
 1554TIP3   OH2 4667   0.460   0.750   4.556
 1554TIP3    H1 4668   0.496   0.770   4.469
 1554TIP3    H2 4669   0.536   0.745   4.613
 1555TIP3   OH2 4670   1.761   1.329   5.112
 1555TIP3    H1 4671   1.776   1.236   5.128
 1555TIP3    H2 4672   1.836   1.372   5.152
 1556TIP3   OH2 4673   3.025   3.169   5.155
 1556TIP3    H1 4674   2.973   3.095   5.125
 1556TIP3    H2 4675   2.963   3.224   5.203
 1557TIP3   OH2 4676   4.146   2.190   1.066
 1557TIP3    H1 4677   4.157   2.201   1.160
 1557TIP3    H2 4678   4.067   2.240   1.044
 1558TIP3   OH2 4679   2.589   2.333   0.245
 1558TIP3    H1 4680   2.523   2.332   0.315
 1558TIP3    H2 4681   2.547   2.289   0.172
 1559TIP3   OH2 4682   6.106   5.288   1.707
 1559TIP3    H1 4683   6.184   5.235   1.689
 1559TIP3    H2 4684   6.127   5.333   1.789
 1560TIP3   OH2 4685   4.001   2.125   1.480
 1560TIP3    H1 4686   4.000   2.160   1.569
 1560TIP3    H2 4687   3.928   2.168   1.436
 1561TIP3   OH2 4688   5.665   5.885   1.330
 1561TIP3    H1 4689   5.602   5.904   1.260
 1561TIP3    H2 4690   5.700   5.799   1.308
 1562TIP3   OH2 4691   3.244   4.143   0.830
 1562TIP3    H1 4692   3.267   4.195   0.907
 1562TIP3    H2 4693   3.266   4.199   0.755
 1563TIP3   OH2 4694   3.666   3.572   4.410
 1563TIP3    H1 4695   3.675   3.514   4.334
 1563TIP3    H2 4696   3.572   3.588   4.417
 1564TIP3   OH2 4697   2.796   5.086   5.069
 1564TIP3    H1 4698   2.756   5.098   4.983
 1564TIP3    H2 4699   2.723   5.058   5.126
 1565TIP3   OH2 4700   4.165   4.408   4.739
 1565TIP3    H1 4701   4.147   4.458   4.819
 1565TIP3    H2 4702   4.156   4.472   4.668
 1566TIP3   OH2 4703   3.351   3.017   4.510
 1566TIP3    H1 4704   3.280   2.997   4.570
 1566TIP3    H2 4705   3.426   3.037   4.566
 1567TIP3   OH2 4706  -0.010   3.304   2.409
 1567TIP3    H1 4707   0.032   3.343   2.485
 1567TIP3    H2 4708   0.034   3.345   2.334
 1568TIP3   OH2 4709   2.955   1.587   3.206
 1568TIP3    H1 4710   2.909   1.554   3.129
 1568TIP3    H2 4711   2.991   1.509   3.248
 1569TIP3   OH2 4712   2.230   1.418   0.935
 1569TIP3    H1 4713   2.191   1.366   1.005
 1569TIP3    H2 4714   2.177   1.399   0.858
 1570TIP3   OH2 4715   4.304   3.594   0.405
 1570TIP3    H1 4716   4.311   3.501   0.384
 1570TIP3    H2 4717   4.230   3.600   0.465
 1571TIP3   OH2 4718   3.946   5.428   4.389
 1571TIP3    H1 4719   3.988   5.447   4.473
 1571TIP3    H2 4720   3.884   5.358   4.408
 1572TIP3   OH2 4721   2.891   4.250   1.927
 1572TIP3    H1 4722   2.916   4.237   1.835
 1572TIP3    H2 4723   2.833   4.177   1.946
 1573TIP3   OH2 4724   1.263   0.271   3.325
 1573TIP3    H1 4725   1.342   0.232   3.289
 1573TIP3    H2 4726   1.191   0.223   3.282
 1574TIP3   OH2 4727   1.480   2.229   3.354
 1574TIP3    H1 4728   1.433   2.242   3.435
 1574TIP3    H2 4729   1.421   2.261   3.286
 1575TIP3   OH2 4730   5.030   2.360   3.061
 1575TIP3    H1 4731   5.059   2.351   2.970
 1575TIP3    H2 4732   5.072   2.439   3.092
 1576TIP3   OH2 4733   2.987   5.153   1.557
 1576TIP3    H1 4734   3.022   5.142   1.645
 1576TIP3    H2 4735   3.061   5.183   1.505
 1577TIP3   OH2 4736   2.026   5.513   2.938
 1577TIP3    H1 4737   1.950   5.456   2.926
 1577TIP3    H2 4738   2.004   5.566   3.014
 1578TIP3   OH2 4739   0.560   2.920   2.577
 1578TIP3    H1 4740   0.512   2.882   2.651
 1578TIP3    H2 4741   0.540   3.014   2.581
 1579TIP3   OH2 4742   6.103   1.080   3.732
 1579TIP3    H1 4743   6.013   1.048   3.728
 1579TIP3    H2 4744   6.145   1.043   3.655
 1580TIP3   OH2 4745   1.486   5.914   1.633
 1580TIP3    H1 4746   1.462   5.893   1.724
 1580TIP3    H2 4747   1.402   5.922   1.588
 1581TIP3   OH2 4748   0.588   3.049   3.166
 1581TIP3    H1 4749   0.592   3.063   3.071
 1581TIP3    H2 4750   0.498   3.023   3.182
 1582TIP3   OH2 4751   0.065   0.045   4.676
 1582TIP3    H1 4752   0.146   0.046   4.626
 1582TIP3    H2 4753   0.078   0.111   4.745
 1583TIP3   OH2 4754   0.817   0.382   4.384
 1583TIP3    H1 4755   0.787   0.396   4.473
 1583TIP3    H2 4756   0.757   0.433   4.330
 1584TIP3   OH2 4757   2.712   4.380   0.308
 1584TIP3    H1 4758   2.619   4.362   0.324
 1584TIP3    H2 4759   2.717   4.475   0.302
 1585TIP3   OH2 4760   4.421   0.781   3.188
 1585TIP3    H1 4761   4.335   0.786   3.231
 1585TIP3    H2 4762   4.401   0.775   3.095
 1586TIP3   OH2 4763   5.503   3.074   2.507
 1586TIP3    H1 4764   5.478   3.007   2.443
 1586TIP3    H2 4765   5.434   3.140   2.501
 1587TIP3   OH2 4766   0.987   5.085   4.967
 1587TIP3    H1 4767   1.035   5.159   4.929
 1587TIP3    H2 4768   1.018   5.009   4.918
 1588TIP3   OH2 4769   0.580   0.834   0.478
 1588TIP3    H1 4770   0.596   0.901   0.545
 1588TIP3    H2 4771   0.569   0.884   0.397
 1589TIP3   OH2 4772   5.548   2.622   4.962
 1589TIP3    H1 4773   5.469   2.620   5.016
 1589TIP3    H2 4774   5.603   2.552   4.996
 1590TIP3   OH2 4775   4.337   1.764   1.686
 1590TIP3    H1 4776   4.374   1.676   1.677
 1590TIP3    H2 4777   4.251   1.750   1.724
 1591TIP3   OH2 4778   3.598   1.757   1.277
 1591TIP3    H1 4779   3.585   1.841   1.322
 1591TIP3    H2 4780   3.658   1.779   1.205
 1592TIP3   OH2 4781   3.801   2.821   2.754
 1592TIP3    H1 4782   3.781   2.890   2.690
 1592TIP3    H2 4783   3.889   2.843   2.785
 1593TIP3   OH2 4784   4.415   2.057   0.962
 1593TIP3    H1 4785   4.356   2.091   1.029
 1593TIP3    H2 4786   4.499   2.049   1.007
 1594TIP3   OH2 4787   1.852   2.530   2.486
 1594TIP3    H1 4788   1.836   2.441   2.519
 1594TIP3    H2 4789   1.947   2.539   2.488
 1595TIP3   OH2 4790   1.493   2.412   2.001
 1595TIP3    H1 4791   1.419   2.454   1.957
 1595TIP3    H2 4792   1.453   2.354   2.065
 1596TIP3   OH2 4793   2.463   5.202   2.073
 1596TIP3    H1 4794   2.441   5.145   1.999
 1596TIP3    H2 4795   2.378   5.230   2.107
 1597TIP3   OH2 4796   2.696   1.577   0.655
 1597TIP3    H1 4797   2.676   1.606   0.566
 1597TIP3    H2 4798   2.788   1.598   0.667
 1598TIP3   OH2 4799   4.816   4.979   4.971
 1598TIP3    H1 4800   4.873   5.040   5.018
 1598TIP3    H2 4801   4.853   4.976   4.883
 1599TIP3   OH2 4802   3.349   0.796   4.810
 1599TIP3    H1 4803   3.375   0.869   4.752
 1599TIP3    H2 4804   3.287   0.835   4.871
 1600TIP3   OH2 4805   3.988   3.486   3.359
 1600TIP3    H1 4806   3.907   3.434   3.358
 1600TIP3    H2 4807   3.997   3.515   3.449
 1601TIP3   OH2 4808   3.650   0.559   4.423
 1601TIP3    H1 4809   3.580   0.613   4.460
 1601TIP3    H2 4810   3.695   0.617   4.361
 1602TIP3   OH2 4811   3.615   1.157   0.594
 1602TIP3    H1 4812   3.701   1.163   0.637
 1602TIP3    H2 4813   3.636   1.146   0.501
 1603TIP3   OH2 4814   0.472   2.612   0.459
 1603TIP3    H1 4815   0.518   2.532   0.486
 1603TIP3    H2 4816   0.489   2.674   0.530
 1604TIP3   OH2 4817   2.352   4.890   2.647
 1604TIP3    H1 4818   2.304   4.822   2.693
 1604TIP3    H2 4819   2.378   4.952   2.715
 1605TIP3   OH2 4820   0.073   5.702   2.137
 1605TIP3    H1 4821   0.033   5.685   2.222
 1605TIP3    H2 4822   0.038   5.787   2.110
 1606TIP3   OH2 4823   4.445   4.330   2.998
 1606TIP3    H1 4824   4.358   4.333   3.038
 1606TIP3    H2 4825   4.440   4.259   2.935
 1607TIP3   OH2 4826   2.801   1.128   1.061
 1607TIP3    H1 4827   2.835   1.155   0.976
 1607TIP3    H2 4828   2.707   1.115   1.047
 1608TIP3   OH2 4829   4.548   5.345   2.025
 1608TIP3    H1 4830   4.505   5.358   2.109
 1608TIP3    H2 4831   4.604   5.269   2.038
 1609TIP3   OH2 4832   2.058   5.230   5.155
 1609TIP3    H1 4833   2.117   5.287   5.105
 1609TIP3    H2 4834   2.111   5.198   5.228
 1610TIP3   OH2 4835   5.527   3.421   0.944
 1610TIP3    H1 4836   5.573   3.490   0.894
 1610TIP3    H2 4837   5.458   3.468   0.991
 1611TIP3   OH2 4838   3.423   3.536   4.923
 1611TIP3    H1 4839   3.494   3.586   4.882
 1611TIP3    H2 4840   3.456   3.446   4.927
 1612TIP3   OH2 4841   3.348   4.853   4.554
 1612TIP3    H1 4842   3.275   4.907   4.523
 1612TIP3    H2 4843   3.419   4.915   4.569
 1613TIP3   OH2 4844   0.948   4.250   4.489
 1613TIP3    H1 4845   0.886   4.321   4.469
 1613TIP3    H2 4846   0.931   4.184   4.421
 1614TIP3   OH2 4847   3.430   0.883   3.074
 1614TIP3    H1 4848   3.439   0.798   3.029
 1614TIP3    H2 4849   3.401   0.860   3.162
 1615TIP3   OH2 4850   2.020   3.977   4.449
 1615TIP3    H1 4851   2.099   4.030   4.436
 1615TIP3    H2 4852   2.041   3.892   4.409
 1616TIP3   OH2 4853   2.388   5.278   0.736
 1616TIP3    H1 4854   2.378   5.333   0.813
 1616TIP3    H2 4855   2.361   5.191   0.765
 1617TIP3   OH2 4856   1.255   2.174   5.075
 1617TIP3    H1 4857   1.248   2.242   5.009
 1617TIP3    H2 4858   1.178   2.119   5.062
 1618TIP3   OH2 4859   5.362   1.563   3.885
 1618TIP3    H1 4860   5.361   1.577   3.790
 1618TIP3    H2 4861   5.389   1.472   3.896
 1619TIP3   OH2 4862   4.504   4.635   2.393
 1619TIP3    H1 4863   4.544   4.650   2.479
 1619TIP3    H2 4864   4.570   4.662   2.330
 1620TIP3   OH2 4865   2.703   4.691   4.163
 1620TIP3    H1 4866   2.708   4.680   4.258
 1620TIP3    H2 4867   2.660   4.776   4.152
 1621TIP3   OH2 4868   5.679   5.119   2.401
 1621TIP3    H1 4869   5.751   5.077   2.449
 1621TIP3    H2 4870   5.712   5.128   2.312
 1622TIP3   OH2 4871   5.432   2.265   4.088
 1622TIP3    H1 4872   5.412   2.357   4.107
 1622TIP3    H2 4873   5.441   2.224   4.174
 1623TIP3   OH2 4874   1.559   3.034   2.051
 1623TIP3    H1 4875   1.520   3.112   2.089
 1623TIP3    H2 4876   1.486   2.989   2.009
 1624TIP3   OH2 4877   0.672   1.451   2.670
 1624TIP3    H1 4878   0.723   1.405   2.737
 1624TIP3    H2 4879   0.713   1.426   2.587
 1625TIP3   OH2 4880   0.482   1.173   1.308
 1625TIP3    H1 4881   0.506   1.091   1.265
 1625TIP3    H2 4882   0.390   1.162   1.331
 1626TIP3   OH2 4883   4.882   4.660   3.725
 1626TIP3    H1 4884   4.964   4.650   3.677
 1626TIP3    H2 4885   4.896   4.736   3.781
 1627TIP3   OH2 4886   1.608   3.141   4.102
 1627TIP3    H1 4887   1.652   3.153   4.186
 1627TIP3    H2 4888   1.515   3.146   4.122
 1628TIP3   OH2 4889   6.264   2.652   3.646
 1628TIP3    H1 4890   6.348   2.670   3.688
 1628TIP3    H2 4891   6.233   2.572   3.687
 1629TIP3   OH2 4892   1.571   3.430   0.359
 1629TIP3    H1 4893   1.642   3.446   0.296
 1629TIP3    H2 4894   1.534   3.517   0.375
 1630TIP3   OH2 4895   3.786   1.022   0.006
 1630TIP3    H1 4896   3.734   0.972   0.069
 1630TIP3    H2 4897   3.725   1.040  -0.066
 1631TIP3   OH2 4898   5.415   5.712   2.405
 1631TIP3    H1 4899   5.393   5.729   2.497
 1631TIP3    H2 4900   5.427   5.798   2.366
 1632TIP3   OH2 4901   0.519   2.324   0.960
 1632TIP3    H1 4902   0.517   2.382   1.036
 1632TIP3    H2 4903   0.601   2.275   0.969
 1633TIP3   OH2 4904   1.220   5.356   0.945
 1633TIP3    H1 4905   1.245   5.316   0.862
 1633TIP3    H2 4906   1.237   5.450   0.932
 1634TIP3   OH2 4907   3.116   5.934   3.187
 1634TIP3    H1 4908   3.184   6.000   3.198
 1634TIP3    H2 4909   3.063   5.942   3.267
 1635TIP3   OH2 4910   0.110   0.562   0.309
 1635TIP3    H1 4911   0.162   0.638   0.335
 1635TIP3    H2 4912   0.055   0.594   0.237
 1636TIP3   OH2 4913   1.325   2.566   1.832
 1636TIP3    H1 4914   1.398   2.607   1.787
 1636TIP3    H2 4915   1.247   2.607   1.794
 1637TIP3   OH2 4916   2.181   1.883   3.725
 1637TIP3    H1 4917   2.096   1.896   3.767
 1637TIP3    H2 4918   2.232   1.960   3.752
 1638TIP3   OH2 4919   3.778   3.133   3.846
 1638TIP3    H1 4920   3.837   3.206   3.828
 1638TIP3    H2 4921   3.782   3.121   3.941
 1639TIP3   OH2 4922   3.065   5.081   4.866
 1639TIP3    H1 4923   3.142   5.076   4.808
 1639TIP3    H2 4924   3.070   5.002   4.920
 1640TIP3   OH2 4925   0.506   0.445   1.899
 1640TIP3    H1 4926   0.596   0.413   1.900
 1640TIP3    H2 4927   0.510   0.527   1.850
 1641TIP3   OH2 4928   3.088   2.868   1.326
 1641TIP3    H1 4929   3.149   2.935   1.358
 1641TIP3    H2 4930   3.015   2.918   1.290
 1642TIP3   OH2 4931   5.586   4.315   1.403
 1642TIP3    H1 4932   5.492   4.313   1.419
 1642TIP3    H2 4933   5.610   4.407   1.408
 1643TIP3   OH2 4934   0.935   5.332   1.094
 1643TIP3    H1 4935   0.908   5.422   1.080
 1643TIP3    H2 4936   1.022   5.326   1.055
 1644TIP3   OH2 4937   3.294   2.688   3.655
 1644TIP3    H1 4938   3.272   2.618   3.593
 1644TIP3    H2 4939   3.352   2.646   3.718
 1645TIP3   OH2 4940   0.130   5.258   2.843
 1645TIP3    H1 4941   0.116   5.352   2.830
 1645TIP3    H2 4942   0.153   5.226   2.756
 1646TIP3   OH2 4943   4.187   2.618   0.206
 1646TIP3    H1 4944   4.233   2.699   0.226
 1646TIP3    H2 4945   4.116   2.614   0.269
 1647TIP3   OH2 4946   2.181   1.811   2.249
 1647TIP3    H1 4947   2.232   1.731   2.234
 1647TIP3    H2 4948   2.093   1.789   2.218
 1648TIP3   OH2 4949   4.158   1.439   0.032
 1648TIP3    H1 4950   4.146   1.528   0.065
 1648TIP3    H2 4951   4.247   1.437  -0.001
 1649TIP3   OH2 4952   3.234   0.537   1.313
 1649TIP3    H1 4953   3.229   0.478   1.388
 1649TIP3    H2 4954   3.318   0.518   1.273
 1650TIP3   OH2 4955   1.717   2.188   0.200
 1650TIP3    H1 4956   1.743   2.105   0.162
 1650TIP3    H2 4957   1.798   2.239   0.206
 1651TIP3   OH2 4958   1.659   2.444   1.776
 1651TIP3    H1 4959   1.608   2.427   1.855
 1651TIP3    H2 4960   1.596   2.436   1.704
 1652TIP3   OH2 4961   4.845   1.928   3.303
 1652TIP3    H1 4962   4.896   2.007   3.284
 1652TIP3    H2 4963   4.911   1.859   3.314
 1653TIP3   OH2 4964  -0.003   1.666   2.145
 1653TIP3    H1 4965   0.003   1.711   2.229
 1653TIP3    H2 4966   0.081   1.621   2.136
 1654TIP3   OH2 4967   5.690   3.549   3.226
 1654TIP3    H1 4968   5.682   3.543   3.321
 1654TIP3    H2 4969   5.781   3.576   3.212
 1655TIP3   OH2 4970   5.319   2.820   4.128
 1655TIP3    H1 4971   5.229   2.816   4.158
 1655TIP3    H2 4972   5.368   2.766   4.190
 1656TIP3   OH2 4973   3.349   3.974   2.968
 1656TIP3    H1 4974   3.302   3.926   3.035
 1656TIP3    H2 4975   3.293   4.049   2.948
 1657TIP3   OH2 4976   6.218   1.809   0.359
 1657TIP3    H1 4977   6.265   1.852   0.288
 1657TIP3    H2 4978   6.132   1.788   0.321
 1658TIP3   OH2 4979   4.936   3.695   3.512
 1658TIP3    H1 4980   4.854   3.677   3.557
 1658TIP3    H2 4981   5.004   3.654   3.566
 1659TIP3   OH2 4982   5.842   4.818   1.803
 1659TIP3    H1 4983   5.800   4.739   1.768
 1659TIP3    H2 4984   5.839   4.806   1.898
 1660TIP3   OH2 4985   4.540   1.346   1.099
 1660TIP3    H1 4986   4.472   1.279   1.095
 1660TIP3    H2 4987   4.617   1.301   1.132
 1661TIP3   OH2 4988   1.084   4.958   1.615
 1661TIP3    H1 4989   1.095   5.052   1.602
 1661TIP3    H2 4990   1.047   4.927   1.532
 1662TIP3   OH2 4991   3.689   4.776   0.084
 1662TIP3    H1 4992   3.660   4.798   0.172
 1662TIP3    H2 4993   3.647   4.842   0.028
 1663TIP3   OH2 4994   1.273   1.024   0.946
 1663TIP3    H1 4995   1.307   1.102   0.990
 1663TIP3    H2 4996   1.284   1.042   0.853
 1664TIP3   OH2 4997   2.945   3.117   1.876
 1664TIP3    H1 4998   2.967   3.180   1.945
 1664TIP3    H2 4999   2.850   3.123   1.866
 1665TIP3   OH2 5000   4.079   0.690   1.414
 1665TIP3    H1 5001   4.136   0.637   1.469
 1665TIP3    H2 5002   4.052   0.763   1.470
 1666TIP3   OH2 5003   4.701   3.243   3.299
 1666TIP3    H1 5004   4.686   3.148   3.297
 1666TIP3    H2 5005   4.770   3.258   3.235
 1667TIP3   OH2 5006   6.147   5.409   4.296
 1667TIP3    H1 5007   6.093   5.477   4.257
 1667TIP3    H2 5008   6.095   5.374   4.368
 1668TIP3   OH2 5009   0.892   4.513   2.124
 1668TIP3    H1 5010   0.972   4.558   2.151
 1668TIP3    H2 5011   0.824   4.547   2.182
 1669TIP3   OH2 5012   0.314   2.349   1.330
 1669TIP3    H1 5013   0.365   2.298   1.393
 1669TIP3    H2 5014   0.379   2.381   1.267
 1670TIP3   OH2 5015   2.737   0.859   4.562
 1670TIP3    H1 5016   2.737   0.889   4.472
 1670TIP3    H2 5017   2.828   0.868   4.590
 1671TIP3   OH2 5018   5.434   5.259   2.416
 1671TIP3    H1 5019   5.461   5.282   2.327
 1671TIP3    H2 5020   5.511   5.216   2.454
 1672TIP3   OH2 5021   5.906   3.215   4.798
 1672TIP3    H1 5022   5.852   3.177   4.730
 1672TIP3    H2 5023   5.857   3.292   4.828
 1673TIP3   OH2 5024   6.216   1.455   1.032
 1673TIP3    H1 5025   6.138   1.483   0.984
 1673TIP3    H2 5026   6.286   1.457   0.966
 1674TIP3   OH2 5027   3.888   0.497   4.010
 1674TIP3    H1 5028   3.936   0.503   4.092
 1674TIP3    H2 5029   3.808   0.448   4.032
 1675TIP3   OH2 5030   5.653   5.459   4.671
 1675TIP3    H1 5031   5.705   5.402   4.727
 1675TIP3    H2 5032   5.677   5.433   4.582
 1676TIP3   OH2 5033   4.297   4.301   5.159
 1676TIP3    H1 5034   4.330   4.272   5.075
 1676TIP3    H2 5035   4.261   4.389   5.142
 1677TIP3   OH2 5036   0.669   0.662   1.455
 1677TIP3    H1 5037   0.697   0.630   1.369
 1677TIP3    H2 5038   0.724   0.738   1.472
 1678TIP3   OH2 5039   2.794   1.803   2.347
 1678TIP3    H1 5040   2.852   1.731   2.325
 1678TIP3    H2 5041   2.841   1.882   2.318
 1679TIP3   OH2 5042   4.816   3.883   1.891
 1679TIP3    H1 5043   4.842   3.804   1.844
 1679TIP3    H2 5044   4.897   3.933   1.901
 1680TIP3   OH2 5045   2.400   2.253   0.461
 1680TIP3    H1 5046   2.336   2.304   0.511
 1680TIP3    H2 5047   2.446   2.201   0.527
 1681TIP3   OH2 5048   2.377   3.276   2.485
 1681TIP3    H1 5049   2.454   3.278   2.542
 1681TIP3    H2 5050   2.411   3.298   2.398
 1682TIP3   OH2 5051   3.678   3.033   0.427
 1682TIP3    H1 5052   3.726   3.114   0.444
 1682TIP3    H2 5053   3.687   3.019   0.333
 1683TIP3   OH2 5054   4.737   1.879   1.441
 1683TIP3    H1 5055   4.745   1.803   1.498
 1683TIP3    H2 5056   4.752   1.954   1.499
 1684TIP3   OH2 5057   3.807   2.140   2.017
 1684TIP3    H1 5058   3.810   2.233   2.038
 1684TIP3    H2 5059   3.734   2.106   2.069
 1685TIP3   OH2 5060   5.241   1.308   1.657
 1685TIP3    H1 5061   5.199   1.320   1.572
 1685TIP3    H2 5062   5.308   1.241   1.642
 1686TIP3   OH2 5063   3.264   5.348   1.896
 1686TIP3    H1 5064   3.229   5.357   1.807
 1686TIP3    H2 5065   3.188   5.345   1.953
 1687TIP3   OH2 5066   5.157   3.597   0.983
 1687TIP3    H1 5067   5.247   3.588   1.013
 1687TIP3    H2 5068   5.128   3.507   0.967
 1688TIP3   OH2 5069   3.421   0.515   3.319
 1688TIP3    H1 5070   3.368   0.476   3.389
 1688TIP3    H2 5071   3.494   0.454   3.308
 1689TIP3   OH2 5072   4.731   4.749   2.589
 1689TIP3    H1 5073   4.822   4.775   2.579
 1689TIP3    H2 5074   4.681   4.831   2.584
 1690TIP3   OH2 5075   3.587   1.423   0.494
 1690TIP3    H1 5076   3.578   1.334   0.529
 1690TIP3    H2 5077   3.599   1.478   0.572
 1691TIP3   OH2 5078   1.029   3.411   4.177
 1691TIP3    H1 5079   0.974   3.335   4.196
 1691TIP3    H2 5080   1.118   3.381   4.193
 1692TIP3   OH2 5081   2.899   0.672   0.925
 1692TIP3    H1 5082   2.955   0.721   0.864
 1692TIP3    H2 5083   2.954   0.600   0.955
 1693TIP3   OH2 5084   2.134   5.225   3.090
 1693TIP3    H1 5085   2.089   5.219   3.005
 1693TIP3    H2 5086   2.138   5.319   3.109
 1694TIP3   OH2 5087   5.384   3.312   3.034
 1694TIP3    H1 5088   5.311   3.373   3.046
 1694TIP3    H2 5089   5.385   3.293   2.941
 1695TIP3   OH2 5090   5.771   1.663   1.629
 1695TIP3    H1 5091   5.766   1.741   1.574
 1695TIP3    H2 5092   5.721   1.686   1.708
 1696TIP3   OH2 5093   2.527   0.827   2.689
 1696TIP3    H1 5094   2.492   0.836   2.777
 1696TIP3    H2 5095   2.455   0.851   2.631
 1697TIP3   OH2 5096   3.230   1.306   1.944
 1697TIP3    H1 5097   3.293   1.340   1.880
 1697TIP3    H2 5098   3.196   1.225   1.905
 1698TIP3   OH2 5099   4.284   0.338   2.788
 1698TIP3    H1 5100   4.211   0.289   2.826
 1698TIP3    H2 5101   4.340   0.359   2.862
 1699TIP3   OH2 5102   5.202   2.583   0.620
 1699TIP3    H1 5103   5.211   2.669   0.580
 1699TIP3    H2 5104   5.289   2.544   0.613
 1700TIP3   OH2 5105   4.847   3.679   1.732
 1700TIP3    H1 5106   4.826   3.586   1.728
 1700TIP3    H2 5107   4.942   3.682   1.727
 1701TIP3   OH2 5108   0.424   2.714   1.631
 1701TIP3    H1 5109   0.355   2.772   1.664
 1701TIP3    H2 5110   0.459   2.760   1.555
 1702TIP3   OH2 5111   2.521   5.458   1.296
 1702TIP3    H1 5112   2.505   5.389   1.360
 1702TIP3    H2 5113   2.615   5.452   1.279
 1703TIP3   OH2 5114   3.380   1.153   5.043
 1703TIP3    H1 5115   3.423   1.177   4.961
 1703TIP3    H2 5116   3.451   1.128   5.101
 1704TIP3   OH2 5117   0.342   3.754   0.849
 1704TIP3    H1 5118   0.392   3.785   0.773
 1704TIP3    H2 5119   0.304   3.671   0.819
 1705TIP3   OH2 5120   5.425   1.040   4.798
 1705TIP3    H1 5121   5.470   1.110   4.845
 1705TIP3    H2 5122   5.419   1.072   4.708
 1706TIP3   OH2 5123   3.603   4.055   2.981
 1706TIP3    H1 5124   3.516   4.018   2.968
 1706TIP3    H2 5125   3.588   4.138   3.025
 1707TIP3   OH2 5126   0.451   3.518   2.957
 1707TIP3    H1 5127   0.401   3.439   2.978
 1707TIP3    H2 5128   0.521   3.521   3.022
 1708TIP3   OH2 5129   0.115   1.020   3.718
 1708TIP3    H1 5130   0.041   0.977   3.676
 1708TIP3    H2 5131   0.140   1.090   3.658
 1709TIP3   OH2 5132   4.677   2.016   2.424
 1709TIP3    H1 5133   4.664   1.960   2.347
 1709TIP3    H2 5134   4.745   1.972   2.475
 1710TIP3   OH2 5135   0.849   0.696   1.849
 1710TIP3    H1 5136   0.836   0.783   1.813
 1710TIP3    H2 5137   0.818   0.701   1.940
 1711TIP3   OH2 5138   2.973   5.085   3.438
 1711TIP3    H1 5139   2.963   5.046   3.525
 1711TIP3    H2 5140   3.005   5.173   3.455
 1712TIP3   OH2 5141   3.125   4.307   3.805
 1712TIP3    H1 5142   3.137   4.320   3.899
 1712TIP3    H2 5143   3.030   4.316   3.791
 1713TIP3   OH2 5144   3.558   0.409   4.980
 1713TIP3    H1 5145   3.494   0.338   4.983
 1713TIP3    H2 5146   3.628   0.377   4.923
 1714TIP3   OH2 5147   2.750   5.915   1.618
 1714TIP3    H1 5148   2.804   5.964   1.555
 1714TIP3    H2 5149   2.727   5.834   1.571
 1715TIP3   OH2 5150   1.598   5.084   0.369
 1715TIP3    H1 5151   1.584   5.139   0.446
 1715TIP3    H2 5152   1.609   4.996   0.404
 1716TIP3   OH2 5153   2.304   5.711   2.906
 1716TIP3    H1 5154   2.386   5.662   2.900
 1716TIP3    H2 5155   2.243   5.664   2.850
 1717TIP3   OH2 5156   3.344   0.530   0.958
 1717TIP3    H1 5157   3.396   0.529   1.038
 1717TIP3    H2 5158   3.389   0.590   0.900
 1718TIP3   OH2 5159   3.102   1.050   0.620
 1718TIP3    H1 5160   3.193   1.078   0.628
 1718TIP3    H2 5161   3.105   0.955   0.632
 1719TIP3   OH2 5162   4.773   2.964   3.227
 1719TIP3    H1 5163   4.717   2.919   3.163
 1719TIP3    H2 5164   4.817   2.893   3.273
 1720TIP3   OH2 5165   1.087   0.833   0.881
 1720TIP3    H1 5166   1.156   0.888   0.917
 1720TIP3    H2 5167   1.123   0.801   0.798
 1721TIP3   OH2 5168   2.522   2.003   0.090
 1721TIP3    H1 5169   2.520   1.909   0.109
 1721TIP3    H2 5170   2.460   2.041   0.152
 1722TIP3   OH2 5171   0.363   2.474   3.590
 1722TIP3    H1 5172   0.345   2.556   3.636
 1722TIP3    H2 5173   0.306   2.476   3.514
 1723TIP3   OH2 5174   4.881   2.017   0.054
 1723TIP3    H1 5175   4.900   1.966  -0.024
 1723TIP3    H2 5176   4.963   2.062   0.074
 1724TIP3   OH2 5177   0.618   4.013   4.091
 1724TIP3    H1 5178   0.619   4.087   4.031
 1724TIP3    H2 5179   0.668   4.043   4.167
 1725TIP3   OH2 5180   3.687   1.735   4.966
 1725TIP3    H1 5181   3.742   1.757   4.891
 1725TIP3    H2 5182   3.689   1.639   4.969
 1726TIP3   OH2 5183   4.136   1.178   3.152
 1726TIP3    H1 5184   4.174   1.138   3.075
 1726TIP3    H2 5185   4.158   1.271   3.145
 1727TIP3   OH2 5186   5.220   1.545   3.094
 1727TIP3    H1 5187   5.297   1.492   3.078
 1727TIP3    H2 5188   5.146   1.489   3.070
 1728TIP3   OH2 5189   4.573   3.259   4.826
 1728TIP3    H1 5190   4.515   3.247   4.751
 1728TIP3    H2 5191   4.522   3.228   4.901
 1729TIP3   OH2 5192   5.071   3.150   2.607
 1729TIP3    H1 5193   5.098   3.102   2.685
 1729TIP3    H2 5194   5.010   3.216   2.639
 1730TIP3   OH2 5195   3.096   2.176   1.232
 1730TIP3    H1 5196   3.092   2.089   1.192
 1730TIP3    H2 5197   3.139   2.230   1.165
 1731TIP3   OH2 5198   1.296   0.130   2.558
 1731TIP3    H1 5199   1.272   0.168   2.643
 1731TIP3    H2 5200   1.266   0.194   2.494
 1732TIP3   OH2 5201   4.648   1.872   4.837
 1732TIP3    H1 5202   4.730   1.834   4.869
 1732TIP3    H2 5203   4.580   1.822   4.881
 1733TIP3   OH2 5204   0.135   4.541   2.819
 1733TIP3    H1 5205   0.056   4.487   2.824
 1733TIP3    H2 5206   0.154   4.565   2.909
 1734TIP3   OH2 5207   3.212   4.740   3.591
 1734TIP3    H1 5208   3.233   4.648   3.572
 1734TIP3    H2 5209   3.190   4.778   3.506
 1735TIP3   OH2 5210   6.328   0.765   0.179
 1735TIP3    H1 5211   6.247   0.718   0.202
 1735TIP3    H2 5212   6.321   0.778   0.084
 1736TIP3   OH2 5213   4.105   2.876   3.636
 1736TIP3    H1 5214   4.149   2.830   3.707
 1736TIP3    H2 5215   4.016   2.892   3.668
 1737TIP3   OH2 5216   3.090   2.179   1.826
 1737TIP3    H1 5217   3.154   2.250   1.825
 1737TIP3    H2 5218   3.143   2.100   1.814
 1738TIP3   OH2 5219   5.340   0.677   3.175
 1738TIP3    H1 5220   5.390   0.606   3.216
 1738TIP3    H2 5221   5.278   0.632   3.117
 1739TIP3   OH2 5222   3.124   5.586   1.397
 1739TIP3    H1 5223   3.139   5.677   1.421
 1739TIP3    H2 5224   3.207   5.558   1.358
 1740TIP3   OH2 5225   3.606   4.287   0.392
 1740TIP3    H1 5226   3.538   4.270   0.327
 1740TIP3    H2 5227   3.688   4.270   0.346
 1741TIP3   OH2 5228   5.378   2.376   0.418
 1741TIP3    H1 5229   5.402   2.298   0.368
 1741TIP3    H2 5230   5.375   2.346   0.509
 1742TIP3   OH2 5231   0.970   2.709   2.974
 1742TIP3    H1 5232   1.029   2.634   2.977
 1742TIP3    H2 5233   0.932   2.706   2.886
 1743TIP3   OH2 5234   1.915   5.493   4.769
 1743TIP3    H1 5235   1.963   5.528   4.694
 1743TIP3    H2 5236   1.859   5.566   4.798
 1744TIP3   OH2 5237   3.828   5.658   3.172
 1744TIP3    H1 5238   3.839   5.686   3.081
 1744TIP3    H2 5239   3.738   5.680   3.193
 1745TIP3   OH2 5240   0.892   0.056   3.585
 1745TIP3    H1 5241   0.837   0.014   3.651
 1745TIP3    H2 5242   0.898   0.148   3.614
 1746TIP3   OH2 5243   3.487   0.611   3.969
 1746TIP3    H1 5244   3.438   0.668   4.029
 1746TIP3    H2 5245   3.530   0.548   4.026
 1747TIP3   OH2 5246   5.822   5.727   4.398
 1747TIP3    H1 5247   5.815   5.782   4.477
 1747TIP3    H2 5248   5.749   5.755   4.343
 1748TIP3   OH2 5249   1.177   0.069   2.178
 1748TIP3    H1 5250   1.119   0.056   2.104
 1748TIP3    H2 5251   1.131   0.131   2.234
 1749TIP3   OH2 5252   0.933   5.310   2.362
 1749TIP3    H1 5253   0.948   5.223   2.326
 1749TIP3    H2 5254   0.841   5.329   2.343
 1750TIP3   OH2 5255   1.153   1.673   0.508
 1750TIP3    H1 5256   1.211   1.747   0.487
 1750TIP3    H2 5257   1.158   1.616   0.432
 1751TIP3   OH2 5258   6.076   3.300   1.095
 1751TIP3    H1 5259   6.077   3.237   1.167
 1751TIP3    H2 5260   5.991   3.343   1.102
 1752TIP3   OH2 5261   1.311   0.474   3.159
 1752TIP3    H1 5262   1.287   0.388   3.195
 1752TIP3    H2 5263   1.406   0.468   3.147
 1753TIP3   OH2 5264   3.867   5.003   2.838
 1753TIP3    H1 5265   3.857   4.964   2.925
 1753TIP3    H2 5266   3.778   5.024   2.811
 1754TIP3   OH2 5267   2.684   0.651   3.300
 1754TIP3    H1 5268   2.648   0.582   3.244
 1754TIP3    H2 5269   2.768   0.672   3.259
 1755TIP3   OH2 5270   4.625   5.945   0.286
 1755TIP3    H1 5271   4.540   5.987   0.276
 1755TIP3    H2 5272   4.615   5.860   0.245
 1756TIP3   OH2 5273   1.174   3.832   0.988
 1756TIP3    H1 5274   1.102   3.881   0.949
 1756TIP3    H2 5275   1.143   3.810   1.076
 1757TIP3   OH2 5276   1.899   5.595   3.166
 1757TIP3    H1 5277   1.805   5.581   3.178
 1757TIP3    H2 5278   1.916   5.678   3.210
 1758TIP3   OH2 5279   6.237   4.780   2.393
 1758TIP3    H1 5280   6.321   4.745   2.362
 1758TIP3    H2 5281   6.248   4.787   2.488
 1759TIP3   OH2 5282   6.295   5.431   3.124
 1759TIP3    H1 5283   6.342   5.420   3.206
 1759TIP3    H2 5284   6.235   5.504   3.140
 1760TIP3   OH2 5285   2.017   4.555   3.893
 1760TIP3    H1 5286   1.946   4.615   3.873
 1760TIP3    H2 5287   2.095   4.610   3.899
 1761TIP3   OH2 5288   5.499   1.085   2.734
 1761TIP3    H1 5289   5.594   1.078   2.749
 1761TIP3    H2 5290   5.491   1.146   2.661
 1762TIP3   OH2 5291   2.579   5.633   2.224
 1762TIP3    H1 5292   2.522   5.607   2.296
 1762TIP3    H2 5293   2.644   5.563   2.219
 1763TIP3   OH2 5294   0.336   1.689   0.726
 1763TIP3    H1 5295   0.260   1.728   0.769
 1763TIP3    H2 5296   0.312   1.686   0.633
 1764TIP3   OH2 5297   6.089   3.360   1.969
 1764TIP3    H1 5298   6.027   3.291   1.945
 1764TIP3    H2 5299   6.129   3.329   2.050
 1765TIP3   OH2 5300   3.523   2.375   5.233
 1765TIP3    H1 5301   3.512   2.430   5.155
 1765TIP3    H2 5302   3.541   2.287   5.198
 1766TIP3   OH2 5303   4.838   4.092   3.906
 1766TIP3    H1 5304   4.826   3.997   3.901
 1766TIP3    H2 5305   4.916   4.110   3.854
 1767TIP3   OH2 5306   6.123   3.929   5.038
 1767TIP3    H1 5307   6.162   3.893   5.118
 1767TIP3    H2 5308   6.039   3.964   5.067
 1768TIP3   OH2 5309   1.247   0.590   1.018
 1768TIP3    H1 5310   1.328   0.598   0.968
 1768TIP3    H2 5311   1.271   0.621   1.106
 1769TIP3   OH2 5312   1.682   2.507   3.367
 1769TIP3    H1 5313   1.608   2.452   3.391
 1769TIP3    H2 5314   1.670   2.587   3.418
 1770TIP3   OH2 5315   0.525   2.635   4.170
 1770TIP3    H1 5316   0.451   2.575   4.155
 1770TIP3    H2 5317   0.505   2.676   4.254
 1771TIP3   OH2 5318   1.482   4.996   1.603
 1771TIP3    H1 5319   1.417   5.032   1.664
 1771TIP3    H2 5320   1.549   5.063   1.596
 1772TIP3   OH2 5321   1.880   2.668   1.488
 1772TIP3    H1 5322   1.898   2.588   1.440
 1772TIP3    H2 5323   1.834   2.724   1.425
 1773TIP3   OH2 5324   2.457   3.844   3.829
 1773TIP3    H1 5325   2.433   3.936   3.817
 1773TIP3    H2 5326   2.387   3.795   3.785
 1774TIP3   OH2 5327   3.208   2.605   3.222
 1774TIP3    H1 5328   3.229   2.515   3.197
 1774TIP3    H2 5329   3.123   2.622   3.181
 1775TIP3   OH2 5330   3.513   1.312   3.759
 1775TIP3    H1 5331   3.585   1.374   3.763
 1775TIP3    H2 5332   3.533   1.256   3.684
 1776TIP3   OH2 5333   3.487   3.542  -0.034
 1776TIP3    H1 5334   3.402   3.504  -0.057
 1776TIP3    H2 5335   3.472   3.587   0.048
 1777TIP3   OH2 5336   2.679   0.813   0.541
 1777TIP3    H1 5337   2.626   0.890   0.521
 1777TIP3    H2 5338   2.688   0.767   0.458
 1778TIP3   OH2 5339   2.928   3.984   2.891
 1778TIP3    H1 5340   2.837   3.978   2.921
 1778TIP3    H2 5341   2.938   3.911   2.831
 1779TIP3   OH2 5342   2.253   2.145   0.768
 1779TIP3    H1 5343   2.339   2.105   0.777
 1779TIP3    H2 5344   2.199   2.100   0.833
 1780TIP3   OH2 5345   3.802   1.837   1.094
 1780TIP3    H1 5346   3.832   1.902   1.031
 1780TIP3    H2 5347   3.870   1.770   1.092
 1781TIP3   OH2 5348   0.761   5.447   4.368
 1781TIP3    H1 5349   0.681   5.488   4.400
 1781TIP3    H2 5350   0.732   5.389   4.298
 1782TIP3   OH2 5351   3.066   2.775   2.031
 1782TIP3    H1 5352   3.153   2.739   2.052
 1782TIP3    H2 5353   3.052   2.843   2.098
 1783TIP3   OH2 5354   2.411   0.824   0.260
 1783TIP3    H1 5355   2.481   0.810   0.196
 1783TIP3    H2 5356   2.330   0.826   0.209
 1784TIP3   OH2 5357   5.288   2.226   1.920
 1784TIP3    H1 5358   5.214   2.286   1.931
 1784TIP3    H2 5359   5.279   2.163   1.991
 1785TIP3   OH2 5360   1.943   3.742   3.378
 1785TIP3    H1 5361   1.883   3.746   3.303
 1785TIP3    H2 5362   1.948   3.648   3.399
 1786TIP3   OH2 5363   4.380   3.350   0.135
 1786TIP3    H1 5364   4.366   3.417   0.068
 1786TIP3    H2 5365   4.470   3.364   0.164
 1787TIP3   OH2 5366   2.597   3.812   1.920
 1787TIP3    H1 5367   2.552   3.797   2.004
 1787TIP3    H2 5368   2.531   3.855   1.865
 1788TIP3   OH2 5369   4.123   3.322   0.671
 1788TIP3    H1 5370   4.126   3.410   0.632
 1788TIP3    H2 5371   4.191   3.323   0.737
 1789TIP3   OH2 5372   6.254   0.992   3.496
 1789TIP3    H1 5373   6.198   0.952   3.429
 1789TIP3    H2 5374   6.338   1.004   3.452
 1790TIP3   OH2 5375   0.740   5.274   1.482
 1790TIP3    H1 5376   0.654   5.236   1.465
 1790TIP3    H2 5377   0.800   5.223   1.427
 1791TIP3   OH2 5378   3.778   2.884   1.420
 1791TIP3    H1 5379   3.757   2.905   1.329
 1791TIP3    H2 5380   3.693   2.879   1.464
 1792TIP3   OH2 5381   1.507   5.507   4.679
 1792TIP3    H1 5382   1.544   5.442   4.620
 1792TIP3    H2 5383   1.482   5.458   4.757
 1793TIP3   OH2 5384   5.524   1.162   4.152
 1793TIP3    H1 5385   5.573   1.084   4.126
 1793TIP3    H2 5386   5.577   1.202   4.221
 1794TIP3   OH2 5387   4.262   4.033   0.646
 1794TIP3    H1 5388   4.306   4.019   0.730
 1794TIP3    H2 5389   4.244   4.127   0.643
 1795TIP3   OH2 5390   0.530   0.974   2.472
 1795TIP3    H1 5391   0.556   0.915   2.402
 1795TIP3    H2 5392   0.514   1.058   2.429
 1796TIP3   OH2 5393   2.319   4.075   2.101
 1796TIP3    H1 5394   2.360   4.159   2.077
 1796TIP3    H2 5395   2.255   4.058   2.032
 1797TIP3   OH2 5396   1.570   1.428   2.299
 1797TIP3    H1 5397   1.557   1.361   2.367
 1797TIP3    H2 5398   1.552   1.383   2.217
 1798TIP3   OH2 5399   3.756   3.983   1.480
 1798TIP3    H1 5400   3.763   4.027   1.564
 1798TIP3    H2 5401   3.662   3.983   1.460
 1799TIP3   OH2 5402   5.411   3.019   0.331
 1799TIP3    H1 5403   5.325   3.050   0.303
 1799TIP3    H2 5404   5.469   3.039   0.257
 1800TIP3   OH2 5405   5.464   2.862   1.827
 1800TIP3    H1 5406   5.407   2.790   1.800
 1800TIP3    H2 5407   5.469   2.918   1.750
 1801TIP3   OH2 5408   0.883   5.304   4.600
 1801TIP3    H1 5409   0.883   5.354   4.519
 1801TIP3    H2 5410   0.927   5.361   4.663
 1802TIP3   OH2 5411   2.012   1.203   1.759
 1802TIP3    H1 5412   2.016   1.297   1.741
 1802TIP3    H2 5413   2.056   1.193   1.844
 1803TIP3   OH2 5414   1.894   3.481   3.775
 1803TIP3    H1 5415   1.889   3.547   3.844
 1803TIP3    H2 5416   1.988   3.469   3.761
 1804TIP3   OH2 5417   2.563   0.739   3.906
 1804TIP3    H1 5418   2.548   0.814   3.964
 1804TIP3    H2 5419   2.653   0.713   3.923
 1805TIP3   OH2 5420   0.403   2.865   4.640
 1805TIP3    H1 5421   0.315   2.849   4.672
 1805TIP3    H2 5422   0.409   2.816   4.558
 1806TIP3   OH2 5423   3.348  -0.014   1.381
 1806TIP3    H1 5424   3.412   0.006   1.313
 1806TIP3    H2 5425   3.299   0.068   1.392
 1807TIP3   OH2 5426   3.505   0.214   1.592
 1807TIP3    H1 5427   3.447   0.258   1.655
 1807TIP3    H2 5428   3.554   0.284   1.551
 1808TIP3   OH2 5429   5.463   3.970   5.112
 1808TIP3    H1 5430   5.379   3.927   5.098
 1808TIP3    H2 5431   5.506   3.916   5.178
 1809TIP3   OH2 5432   5.405   4.257   0.353
 1809TIP3    H1 5433   5.378   4.324   0.416
 1809TIP3    H2 5434   5.342   4.263   0.282
 1810TIP3   OH2 5435   4.002   4.160   4.905
 1810TIP3    H1 5436   4.096   4.166   4.922
 1810TIP3    H2 5437   3.996   4.132   4.813
 1811TIP3   OH2 5438   4.277   1.775   1.347
 1811TIP3    H1 5439   4.360   1.822   1.339
 1811TIP3    H2 5440   4.298   1.685   1.324
 1812TIP3   OH2 5441   3.956   5.451   3.055
 1812TIP3    H1 5442   3.913   5.457   2.970
 1812TIP3    H2 5443   3.900   5.502   3.114
 1813TIP3   OH2 5444   0.682   2.037   3.306
 1813TIP3    H1 5445   0.601   2.016   3.353
 1813TIP3    H2 5446   0.698   2.129   3.326
 1814TIP3   OH2 5447   2.175   2.400   0.568
 1814TIP3    H1 5448   2.162   2.436   0.480
 1814TIP3    H2 5449   2.198   2.476   0.621
 1815TIP3   OH2 5450   0.190   1.937   2.322
 1815TIP3    H1 5451   0.097   1.958   2.314
 1815TIP3    H2 5452   0.190   1.852   2.367
 1816TIP3   OH2 5453   5.853   1.409   1.522
 1816TIP3    H1 5454   5.796   1.465   1.576
 1816TIP3    H2 5455   5.835   1.436   1.432
 1817TIP3   OH2 5456   2.233   0.462   4.576
 1817TIP3    H1 5457   2.245   0.412   4.496
 1817TIP3    H2 5458   2.269   0.406   4.645
 1818TIP3   OH2 5459   4.885   0.713   4.521
 1818TIP3    H1 5460   4.795   0.712   4.552
 1818TIP3    H2 5461   4.878   0.710   4.425
 1819TIP3   OH2 5462   2.055   2.295   1.126
 1819TIP3    H1 5463   2.100   2.211   1.133
 1819TIP3    H2 5464   1.967   2.279   1.159
 1820TIP3   OH2 5465   2.513   3.390   1.539
 1820TIP3    H1 5466   2.558   3.309   1.514
 1820TIP3    H2 5467   2.579   3.440   1.587
 1821TIP3   OH2 5468   0.397   5.599   4.201
 1821TIP3    H1 5469   0.439   5.535   4.143
 1821TIP3    H2 5470   0.438   5.584   4.286
 1822TIP3   OH2 5471   0.758   3.961   2.991
 1822TIP3    H1 5472   0.846   3.979   2.960
 1822TIP3    H2 5473   0.771   3.908   3.070
 1823TIP3   OH2 5474   4.734   3.434   5.088
 1823TIP3    H1 5475   4.820   3.391   5.090
 1823TIP3    H2 5476   4.692   3.399   5.009
 1824TIP3   OH2 5477   3.061   3.855   4.969
 1824TIP3    H1 5478   3.079   3.761   4.958
 1824TIP3    H2 5479   3.146   3.897   4.956
 1825TIP3   OH2 5480   4.167   1.263   2.643
 1825TIP3    H1 5481   4.096   1.251   2.581
 1825TIP3    H2 5482   4.132   1.325   2.708
 1826TIP3   OH2 5483   0.762   1.213   4.816
 1826TIP3    H1 5484   0.809   1.165   4.884
 1826TIP3    H2 5485   0.819   1.208   4.739
 1827TIP3   OH2 5486   5.680   3.580   0.770
 1827TIP3    H1 5487   5.759   3.610   0.816
 1827TIP3    H2 5488   5.697   3.600   0.678
 1828TIP3   OH2 5489   4.795   1.493   3.686
 1828TIP3    H1 5490   4.886   1.463   3.688
 1828TIP3    H2 5491   4.801   1.588   3.691
 1829TIP3   OH2 5492   5.335   1.627   4.721
 1829TIP3    H1 5493   5.286   1.581   4.653
 1829TIP3    H2 5494   5.384   1.694   4.674
 1830TIP3   OH2 5495   0.651   4.057   0.150
 1830TIP3    H1 5496   0.609   3.972   0.135
 1830TIP3    H2 5497   0.633   4.107   0.070
 1831TIP3   OH2 5498   1.048   1.673   0.076
 1831TIP3    H1 5499   1.050   1.768   0.062
 1831TIP3    H2 5500   1.059   1.635  -0.011
 1832TIP3   OH2 5501   4.334   4.813   0.813
 1832TIP3    H1 5502   4.378   4.853   0.887
 1832TIP3    H2 5503   4.278   4.745   0.851
 1833TIP3   OH2 5504   0.739   5.286   2.085
 1833TIP3    H1 5505   0.674   5.220   2.062
 1833TIP3    H2 5506   0.699   5.333   2.159
 1834TIP3   OH2 5507   0.858   1.644   0.484
 1834TIP3    H1 5508   0.889   1.569   0.433
 1834TIP3    H2 5509   0.938   1.687   0.513
 1835TIP3   OH2 5510   4.155   0.193   0.866
 1835TIP3    H1 5511   4.158   0.184   0.770
 1835TIP3    H2 5512   4.184   0.108   0.899
 1836TIP3   OH2 5513   5.935   2.655   3.556
 1836TIP3    H1 5514   5.967   2.565   3.559
 1836TIP3    H2 5515   5.888   2.666   3.639
 1837TIP3   OH2 5516   4.536   4.366   1.907
 1837TIP3    H1 5517   4.475   4.400   1.972
 1837TIP3    H2 5518   4.484   4.303   1.856
 1838TIP3   OH2 5519   2.404   2.112   1.062
 1838TIP3    H1 5520   2.460   2.070   1.127
 1838TIP3    H2 5521   2.319   2.122   1.106
 1839TIP3   OH2 5522   5.126   0.105   1.084
 1839TIP3    H1 5523   5.146   0.024   1.131
 1839TIP3    H2 5524   5.126   0.172   1.152
 1840TIP3   OH2 5525   3.951   0.113   1.084
 1840TIP3    H1 5526   4.013   0.182   1.106
 1840TIP3    H2 5527   3.981   0.080   0.999
 1841TIP3   OH2 5528   5.255   2.128   2.207
 1841TIP3    H1 5529   5.256   2.206   2.262
 1841TIP3    H2 5530   5.333   2.079   2.235
 1842TIP3   OH2 5531   0.727   4.366   1.931
 1842TIP3    H1 5532   0.760   4.439   1.879
 1842TIP3    H2 5533   0.774   4.374   2.015
 1843TIP3   OH2 5534   3.720   4.572   2.456
 1843TIP3    H1 5535   3.637   4.619   2.446
 1843TIP3    H2 5536   3.784   4.639   2.480
 1844TIP3   OH2 5537   1.971   2.128   1.715
 1844TIP3    H1 5538   2.050   2.169   1.678
 1844TIP3    H2 5539   1.948   2.184   1.789
 1845TIP3   OH2 5540   0.651   3.856   3.440
 1845TIP3    H1 5541   0.683   3.833   3.527
 1845TIP3    H2 5542   0.598   3.935   3.454
 1846TIP3   OH2 5543   3.235   5.346   4.630
 1846TIP3    H1 5544   3.284   5.272   4.667
 1846TIP3    H2 5545   3.146   5.313   4.620
 1847TIP3   OH2 5546   1.916   5.305   0.511
 1847TIP3    H1 5547   1.970   5.324   0.588
 1847TIP3    H2 5548   1.888   5.214   0.523
 1848TIP3   OH2 5549   4.904   5.603   2.569
 1848TIP3    H1 5550   4.929   5.689   2.603
 1848TIP3    H2 5551   4.842   5.622   2.498
 1849TIP3   OH2 5552   1.193   5.339   3.672
 1849TIP3    H1 5553   1.276   5.295   3.688
 1849TIP3    H2 5554   1.188   5.407   3.739
 1850TIP3   OH2 5555   0.230   3.776   2.046
 1850TIP3    H1 5556   0.176   3.790   2.124
 1850TIP3    H2 5557   0.320   3.776   2.079
 1851TIP3   OH2 5558   0.997   1.799   4.884
 1851TIP3    H1 5559   0.929   1.743   4.845
 1851TIP3    H2 5560   1.064   1.807   4.816
 1852TIP3   OH2 5561   5.701   0.952   4.104
 1852TIP3    H1 5562   5.728   0.864   4.129
 1852TIP3    H2 5563   5.684   0.946   4.010
 1853TIP3   OH2 5564   6.129   0.445   2.659
 1853TIP3    H1 5565   6.093   0.479   2.741
 1853TIP3    H2 5566   6.224   0.447   2.671
 1854TIP3   OH2 5567   3.930   0.472   1.500
 1854TIP3    H1 5568   3.953   0.559   1.469
 1854TIP3    H2 5569   3.979   0.413   1.442
 1855TIP3   OH2 5570   3.014   1.486   4.370
 1855TIP3    H1 5571   3.101   1.525   4.381
 1855TIP3    H2 5572   3.032   1.392   4.358
 1856TIP3   OH2 5573   2.485   1.975   4.333
 1856TIP3    H1 5574   2.462   2.060   4.296
 1856TIP3    H2 5575   2.432   1.912   4.283
 1857TIP3   OH2 5576   0.446   0.048   4.743
 1857TIP3    H1 5577   0.518   0.088   4.694
 1857TIP3    H2 5578   0.489  -0.016   4.800
 1858TIP3   OH2 5579   4.442   4.944   1.057
 1858TIP3    H1 5580   4.420   5.037   1.065
 1858TIP3    H2 5581   4.533   4.939   1.087
 1859TIP3   OH2 5582   0.065   1.496   2.518
 1859TIP3    H1 5583   0.105   1.415   2.483
 1859TIP3    H2 5584   0.022   1.468   2.599
 1860TIP3   OH2 5585   1.458   1.452   2.644
 1860TIP3    H1 5586   1.523   1.519   2.665
 1860TIP3    H2 5587   1.384   1.501   2.609
 1861TIP3   OH2 5588   3.802   2.704   1.734
 1861TIP3    H1 5589   3.812   2.787   1.782
 1861TIP3    H2 5590   3.868   2.709   1.665
 1862TIP3   OH2 5591   4.047   1.984   4.891
 1862TIP3    H1 5592   4.130   2.016   4.927
 1862TIP3    H2 5593   4.036   2.033   4.810
 1863TIP3   OH2 5594   2.936   4.127   5.040
 1863TIP3    H1 5595   3.006   4.062   5.032
 1863TIP3    H2 5596   2.903   4.116   5.129
 1864TIP3   OH2 5597   0.975   2.802   3.833
 1864TIP3    H1 5598   0.884   2.775   3.838
 1864TIP3    H2 5599   1.022   2.736   3.884
 1865TIP3   OH2 5600   5.309   3.005   3.751
 1865TIP3    H1 5601   5.401   2.979   3.743
 1865TIP3    H2 5602   5.306   3.094   3.717
 1866TIP3   OH2 5603   2.260   5.838   1.600
 1866TIP3    H1 5604   2.276   5.863   1.691
 1866TIP3    H2 5605   2.325   5.770   1.582
 1867TIP3   OH2 5606   1.348   2.745   3.177
 1867TIP3    H1 5607   1.312   2.694   3.250
 1867TIP3    H2 5608   1.348   2.684   3.103
 1868TIP3   OH2 5609   3.946   1.049   4.677
 1868TIP3    H1 5610   3.881   1.060   4.747
 1868TIP3    H2 5611   3.991   0.968   4.699
 1869TIP3   OH2 5612   1.451   0.116   0.545
 1869TIP3    H1 5613   1.463   0.029   0.507
 1869TIP3    H2 5614   1.361   0.140   0.520
 1870TIP3   OH2 5615   0.381   2.516   3.903
 1870TIP3    H1 5616   0.350   2.478   3.821
 1870TIP3    H2 5617   0.373   2.445   3.967
 1871TIP3   OH2 5618   1.469   1.565   0.471
 1871TIP3    H1 5619   1.494   1.650   0.507
 1871TIP3    H2 5620   1.393   1.584   0.415
 1872TIP3   OH2 5621   2.981   2.066   4.043
 1872TIP3    H1 5622   2.926   2.136   4.078
 1872TIP3    H2 5623   2.979   1.997   4.110
 1873TIP3   OH2 5624   0.634   0.659   4.787
 1873TIP3    H1 5625   0.677   0.743   4.803
 1873TIP3    H2 5626   0.605   0.630   4.873
 1874TIP3   OH2 5627   1.446   2.820   0.670
 1874TIP3    H1 5628   1.465   2.741   0.720
 1874TIP3    H2 5629   1.532   2.857   0.650
 1875TIP3   OH2 5630   3.101   0.524   3.854
 1875TIP3    H1 5631   3.107   0.493   3.944
 1875TIP3    H2 5632   3.082   0.446   3.802
 1876TIP3   OH2 5633   4.984   0.405   2.642
 1876TIP3    H1 5634   4.896   0.388   2.608
 1876TIP3    H2 5635   5.039   0.410   2.564
 1877TIP3   OH2 5636   0.407   1.818   4.512
 1877TIP3    H1 5637   0.489   1.861   4.489
 1877TIP3    H2 5638   0.405   1.820   4.608
 1878TIP3   OH2 5639   0.542   2.374   0.597
 1878TIP3    H1 5640   0.636   2.355   0.594
 1878TIP3    H2 5641   0.506   2.308   0.657
 1879TIP3   OH2 5642   0.495   5.134   0.079
 1879TIP3    H1 5643   0.569   5.154   0.021
 1879TIP3    H2 5644   0.481   5.214   0.129
 1880TIP3   OH2 5645   5.511   3.060   2.803
 1880TIP3    H1 5646   5.494   3.044   2.710
 1880TIP3    H2 5647   5.527   3.154   2.808
 1881TIP3   OH2 5648   5.610   5.370   2.828
 1881TIP3    H1 5649   5.583   5.386   2.738
 1881TIP3    H2 5650   5.542   5.411   2.882
 1882TIP3   OH2 5651   5.431   1.663   4.311
 1882TIP3    H1 5652   5.355   1.677   4.254
 1882TIP3    H2 5653   5.468   1.751   4.322
 1883TIP3   OH2 5654   4.093   2.432   0.770
 1883TIP3    H1 5655   4.075   2.364   0.704
 1883TIP3    H2 5656   4.007   2.471   0.787
 1884TIP3   OH2 5657   1.420   2.961   1.428
 1884TIP3    H1 5658   1.327   2.969   1.452
 1884TIP3    H2 5659   1.458   3.045   1.453
 1885TIP3   OH2 5660   4.025   3.394   1.275
 1885TIP3    H1 5661   3.947   3.346   1.302
 1885TIP3    H2 5662   4.032   3.378   1.181
 1886TIP3   OH2 5663   5.723   5.619   3.765
 1886TIP3    H1 5664   5.797   5.569   3.732
 1886TIP3    H2 5665   5.708   5.585   3.854
 1887TIP3   OH2 5666   5.645   1.423   0.929
 1887TIP3    H1 5667   5.676   1.504   0.969
 1887TIP3    H2 5668   5.550   1.425   0.941
 1888TIP3   OH2 5669   1.136   5.656   5.135
 1888TIP3    H1 5670   1.226   5.667   5.164
 1888TIP3    H2 5671   1.122   5.561   5.136
 1889TIP3   OH2 5672   1.948   0.695   0.409
 1889TIP3    H1 5673   1.943   0.703   0.504
 1889TIP3    H2 5674   1.893   0.765   0.375
 1890TIP3   OH2 5675   0.232   3.919   1.020
 1890TIP3    H1 5676   0.214   3.858   1.091
 1890TIP3    H2 5677   0.272   3.865   0.952
 1891TIP3   OH2 5678   3.434   1.474   4.856
 1891TIP3    H1 5679   3.502   1.422   4.899
 1891TIP3    H2 5680   3.445   1.454   4.763
 1892TIP3   OH2 5681   3.243   4.518   0.418
 1892TIP3    H1 5682   3.177   4.587   0.421
 1892TIP3    H2 5683   3.233   4.479   0.331
 1893TIP3   OH2 5684   0.867   4.155   0.283
 1893TIP3    H1 5685   0.838   4.164   0.374
 1893TIP3    H2 5686   0.805   4.093   0.245
 1894TIP3   OH2 5687   0.778   0.464   4.645
 1894TIP3    H1 5688   0.873   0.473   4.644
 1894TIP3    H2 5689   0.747   0.537   4.698
 1895TIP3   OH2 5690   1.960   0.528   3.944
 1895TIP3    H1 5691   1.958   0.437   3.915
 1895TIP3    H2 5692   1.900   0.531   4.019
 1896TIP3   OH2 5693   5.768   5.808   2.014
 1896TIP3    H1 5694   5.689   5.801   2.067
 1896TIP3    H2 5695   5.790   5.901   2.014
 1897TIP3   OH2 5696   2.283   5.236   4.543
 1897TIP3    H1 5697   2.196   5.202   4.563
 1897TIP3    H2 5698   2.336   5.157   4.527
 1898TIP3   OH2 5699   3.328   4.856   1.196
 1898TIP3    H1 5700   3.406   4.806   1.172
 1898TIP3    H2 5701   3.350   4.895   1.281
 1899TIP3   OH2 5702   2.769   5.107   4.775
 1899TIP3    H1 5703   2.752   5.198   4.753
 1899TIP3    H2 5704   2.862   5.105   4.799
 1900TIP3   OH2 5705   1.811   5.787   4.442
 1900TIP3    H1 5706   1.772   5.858   4.494
 1900TIP3    H2 5707   1.875   5.748   4.501
 1901TIP3   OH2 5708   4.403   3.303   4.307
 1901TIP3    H1 5709   4.382   3.396   4.307
 1901TIP3    H2 5710   4.498   3.300   4.319
 1902TIP3   OH2 5711   5.534   5.041   1.159
 1902TIP3    H1 5712   5.558   4.991   1.081
 1902TIP3    H2 5713   5.447   5.008   1.182
 1903TIP3   OH2 5714   0.254   3.581   0.036
 1903TIP3    H1 5715   0.302   3.545   0.111
 1903TIP3    H2 5716   0.172   3.533   0.035
 1904TIP3   OH2 5717   5.548   5.089   4.569
 1904TIP3    H1 5718   5.550   4.995   4.584
 1904TIP3    H2 5719   5.544   5.128   4.656
 1905TIP3   OH2 5720   3.357   3.528   1.678
 1905TIP3    H1 5721   3.341   3.522   1.772
 1905TIP3    H2 5722   3.395   3.443   1.655
 1906TIP3   OH2 5723   1.099   3.496   3.632
 1906TIP3    H1 5724   1.135   3.433   3.694
 1906TIP3    H2 5725   1.074   3.444   3.556
 1907TIP3   OH2 5726   2.363   2.279   4.664
 1907TIP3    H1 5727   2.289   2.272   4.604
 1907TIP3    H2 5728   2.339   2.350   4.723
 1908TIP3   OH2 5729   1.680   4.340   2.205
 1908TIP3    H1 5730   1.633   4.423   2.204
 1908TIP3    H2 5731   1.764   4.359   2.164
 1909TIP3   OH2 5732   5.227   2.097   4.006
 1909TIP3    H1 5733   5.301   2.144   4.045
 1909TIP3    H2 5734   5.150   2.148   4.029
 1910TIP3   OH2 5735   0.955   4.684   4.633
 1910TIP3    H1 5736   0.960   4.723   4.546
 1910TIP3    H2 5737   0.972   4.591   4.618
 1911TIP3   OH2 5738   1.831   3.001   0.810
 1911TIP3    H1 5739   1.899   3.039   0.755
 1911TIP3    H2 5740   1.877   2.974   0.889
 1912TIP3   OH2 5741   5.472   0.353   2.705
 1912TIP3    H1 5742   5.382   0.330   2.730
 1912TIP3    H2 5743   5.479   0.325   2.614
 1913TIP3   OH2 5744   4.177   4.328   2.208
 1913TIP3    H1 5745   4.211   4.288   2.289
 1913TIP3    H2 5746   4.114   4.264   2.175
 1914TIP3   OH2 5747   5.513  -0.017   4.447
 1914TIP3    H1 5748   5.499  -0.068   4.368
 1914TIP3    H2 5749   5.435   0.037   4.456
 1915TIP3   OH2 5750   0.230   4.703   0.073
 1915TIP3    H1 5751   0.275   4.750   0.144
 1915TIP3    H2 5752   0.231   4.611   0.101
 1916TIP3   OH2 5753   4.943   5.745   1.069
 1916TIP3    H1 5754   4.995   5.806   1.017
 1916TIP3    H2 5755   4.931   5.789   1.153
 1917TIP3   OH2 5756   4.783   1.455   4.579
 1917TIP3    H1 5757   4.744   1.407   4.506
 1917TIP3    H2 5758   4.865   1.409   4.597
 1918TIP3   OH2 5759   4.583   5.317   4.773
 1918TIP3    H1 5760   4.513   5.381   4.783
 1918TIP3    H2 5761   4.592   5.278   4.860
 1919TIP3   OH2 5762   4.831   1.207   3.671
 1919TIP3    H1 5763   4.787   1.291   3.658
 1919TIP3    H2 5764   4.811   1.183   3.762
 1920TIP3   OH2 5765   0.163   2.480   3.374
 1920TIP3    H1 5766   0.115   2.500   3.293
 1920TIP3    H2 5767   0.185   2.566   3.410
 1921TIP3   OH2 5768   6.105   0.364   1.013
 1921TIP3    H1 5769   6.154   0.295   0.968
 1921TIP3    H2 5770   6.019   0.364   0.970
 1922TIP3   OH2 5771   1.576   4.447   0.182
 1922TIP3    H1 5772   1.497   4.430   0.130
 1922TIP3    H2 5773   1.565   4.393   0.260
 1923TIP3   OH2 5774   2.115   2.102   2.156
 1923TIP3    H1 5775   2.173   2.032   2.127
 1923TIP3    H2 5776   2.070   2.065   2.233
 1924TIP3   OH2 5777   4.267   3.465   2.803
 1924TIP3    H1 5778   4.244   3.421   2.884
 1924TIP3    H2 5779   4.186   3.468   2.752
 1925TIP3   OH2 5780   6.003   2.754   3.317
 1925TIP3    H1 5781   5.985   2.706   3.398
 1925TIP3    H2 5782   6.086   2.718   3.285
 1926TIP3   OH2 5783   4.391   3.178   2.217
 1926TIP3    H1 5784   4.419   3.256   2.168
 1926TIP3    H2 5785   4.341   3.127   2.154
 1927TIP3   OH2 5786   1.002   1.066   5.190
 1927TIP3    H1 5787   1.022   1.002   5.258
 1927TIP3    H2 5788   1.073   1.057   5.127
 1928TIP3   OH2 5789   0.084   5.266   3.577
 1928TIP3    H1 5790   0.046   5.213   3.506
 1928TIP3    H2 5791   0.119   5.202   3.638
 1929TIP3   OH2 5792   3.786   3.842   0.058
 1929TIP3    H1 5793   3.880   3.826   0.071
 1929TIP3    H2 5794   3.746   3.755   0.060
 1930TIP3   OH2 5795   4.199   1.759   5.062
 1930TIP3    H1 5796   4.225   1.843   5.023
 1930TIP3    H2 5797   4.270   1.737   5.122
 1931TIP3   OH2 5798   0.918   5.215   3.781
 1931TIP3    H1 5799   0.858   5.235   3.709
 1931TIP3    H2 5800   0.881   5.137   3.822
 1932TIP3   OH2 5801   5.928   4.561   5.058
 1932TIP3    H1 5802   5.915   4.479   5.105
 1932TIP3    H2 5803   5.998   4.543   4.995
 1933TIP3   OH2 5804   6.088   4.702   4.132
 1933TIP3    H1 5805   6.089   4.789   4.173
 1933TIP3    H2 5806   6.096   4.720   4.038
 1934TIP3   OH2 5807   3.872   1.261   3.769
 1934TIP3    H1 5808   3.861   1.355   3.784
 1934TIP3    H2 5809   3.937   1.234   3.834
 1935TIP3   OH2 5810   1.112   2.157   3.773
 1935TIP3    H1 5811   1.096   2.104   3.851
 1935TIP3    H2 5812   1.048   2.128   3.709
 1936TIP3   OH2 5813   5.800   3.421   1.102
 1936TIP3    H1 5814   5.714   3.454   1.074
 1936TIP3    H2 5815   5.780   3.357   1.170
 1937TIP3   OH2 5816   1.678   0.152   2.180
 1937TIP3    H1 5817   1.644   0.202   2.106
 1937TIP3    H2 5818   1.748   0.099   2.142
 1938TIP3   OH2 5819   2.928   3.212   3.189
 1938TIP3    H1 5820   2.980   3.250   3.117
 1938TIP3    H2 5821   2.954   3.120   3.190
 1939TIP3   OH2 5822   2.327   2.326   3.088
 1939TIP3    H1 5823   2.306   2.369   3.171
 1939TIP3    H2 5824   2.318   2.232   3.108
 1940TIP3   OH2 5825   6.278   2.512   4.150
 1940TIP3    H1 5826   6.245   2.591   4.106
 1940TIP3    H2 5827   6.326   2.465   4.082
 1941TIP3   OH2 5828   4.070   4.500   2.005
 1941TIP3    H1 5829   4.128   4.466   1.937
 1941TIP3    H2 5830   4.066   4.429   2.070
 1942TIP3   OH2 5831   6.216   4.339   4.941
 1942TIP3    H1 5832   6.182   4.287   5.014
 1942TIP3    H2 5833   6.149   4.406   4.925
 1943TIP3   OH2 5834   6.228   0.973   1.311
 1943TIP3    H1 5835   6.153   1.012   1.356
 1943TIP3    H2 5836   6.199   0.883   1.292
 1944TIP3   OH2 5837   4.918   2.686   2.960
 1944TIP3    H1 5838   5.005   2.701   2.997
 1944TIP3    H2 5839   4.932   2.681   2.866
 1945TIP3   OH2 5840   0.464   1.699   5.030
 1945TIP3    H1 5841   0.523   1.774   5.027
 1945TIP3    H2 5842   0.500   1.637   4.966
 1946TIP3   OH2 5843   4.048   3.057   1.291
 1946TIP3    H1 5844   3.968   3.076   1.341
 1946TIP3    H2 5845   4.031   3.093   1.204
 1947TIP3   OH2 5846   0.064   2.189   1.361
 1947TIP3    H1 5847   0.002   2.182   1.288
 1947TIP3    H2 5848   0.147   2.211   1.319
 1948TIP3   OH2 5849   5.826   0.881   2.895
 1948TIP3    H1 5850   5.846   0.959   2.946
 1948TIP3    H2 5851   5.814   0.913   2.805
 1949TIP3   OH2 5852   4.285   3.625   1.831
 1949TIP3    H1 5853   4.231   3.628   1.752
 1949TIP3    H2 5854   4.223   3.603   1.901
 1950TIP3   OH2 5855   5.455   2.521   4.717
 1950TIP3    H1 5856   5.404   2.443   4.741
 1950TIP3    H2 5857   5.488   2.555   4.801
 1951TIP3   OH2 5858   0.264   5.835   3.208
 1951TIP3    H1 5859   0.324   5.767   3.240
 1951TIP3    H2 5860   0.271   5.829   3.113
 1952TIP3   OH2 5861   0.833   2.321   0.337
 1952TIP3    H1 5862   0.865   2.410   0.322
 1952TIP3    H2 5863   0.822   2.284   0.250
 1953TIP3   OH2 5864   5.362   5.867   4.578
 1953TIP3    H1 5865   5.365   5.774   4.602
 1953TIP3    H2 5866   5.396   5.869   4.488
 1954TIP3   OH2 5867   0.318   3.201   2.289
 1954TIP3    H1 5868   0.268   3.278   2.264
 1954TIP3    H2 5869   0.399   3.208   2.239
 1955TIP3   OH2 5870   3.017   5.341   4.948
 1955TIP3    H1 5871   3.100   5.366   4.989
 1955TIP3    H2 5872   3.020   5.245   4.944
 1956TIP3   OH2 5873   1.660   2.603   0.457
 1956TIP3    H1 5874   1.700   2.587   0.543
 1956TIP3    H2 5875   1.671   2.697   0.442
 1957TIP3   OH2 5876   1.951   4.606   5.090
 1957TIP3    H1 5877   2.003   4.634   5.014
 1957TIP3    H2 5878   1.871   4.570   5.052
 1958TIP3   OH2 5879   4.202   3.882   2.750
 1958TIP3    H1 5880   4.197   3.848   2.839
 1958TIP3    H2 5881   4.191   3.976   2.760
 1959TIP3   OH2 5882   5.987   5.805   2.486
 1959TIP3    H1 5883   5.905   5.840   2.451
 1959TIP3    H2 5884   6.021   5.874   2.542
 1960TIP3   OH2 5885   3.915   0.346   0.026
 1960TIP3    H1 5886   3.900   0.283  -0.045
 1960TIP3    H2 5887   3.984   0.306   0.079
 1961TIP3   OH2 5888   2.835   5.577   3.379
 1961TIP3    H1 5889   2.776   5.554   3.308
 1961TIP3    H2 5890   2.909   5.620   3.337
 1962TIP3   OH2 5891   1.361   5.604   0.889
 1962TIP3    H1 5892   1.395   5.549   0.960
 1962TIP3    H2 5893   1.344   5.688   0.931
 1963TIP3   OH2 5894   1.164   1.099   4.543
 1963TIP3    H1 5895   1.237   1.088   4.605
 1963TIP3    H2 5896   1.174   1.027   4.481
 1964TIP3   OH2 5897   4.401   0.800   1.136
 1964TIP3    H1 5898   4.436   0.794   1.224
 1964TIP3    H2 5899   4.307   0.815   1.149
 1965TIP3   OH2 5900   0.843   5.167   0.169
 1965TIP3    H1 5901   0.793   5.087   0.183
 1965TIP3    H2 5902   0.843   5.179   0.074
 1966TIP3   OH2 5903   0.901   4.425   2.955
 1966TIP3    H1 5904   0.956   4.378   3.018
 1966TIP3    H2 5905   0.812   4.396   2.973
 1967TIP3   OH2 5906   5.263   0.068   3.886
 1967TIP3    H1 5907   5.243   0.002   3.820
 1967TIP3    H2 5908   5.196   0.057   3.953
 1968TIP3   OH2 5909   1.166   0.718   4.489
 1968TIP3    H1 5910   1.189   0.783   4.556
 1968TIP3    H2 5911   1.250   0.693   4.451
 1969TIP3   OH2 5912   6.126   2.730   2.193
 1969TIP3    H1 5913   6.122   2.826   2.190
 1969TIP3    H2 5914   6.043   2.704   2.234
 1970TIP3   OH2 5915   1.699   1.785   3.980
 1970TIP3    H1 5916   1.647   1.782   4.061
 1970TIP3    H2 5917   1.732   1.695   3.970
 1971TIP3   OH2 5918   0.052   4.763   2.002
 1971TIP3    H1 5919   0.133   4.813   1.996
 1971TIP3    H2 5920   0.034   4.757   2.096
 1972TIP3   OH2 5921   2.228   1.809   1.368
 1972TIP3    H1 5922   2.204   1.812   1.460
 1972TIP3    H2 5923   2.319   1.777   1.368
 1973TIP3   OH2 5924   3.622   4.986   2.261
 1973TIP3    H1 5925   3.644   5.075   2.290
 1973TIP3    H2 5926   3.696   4.961   2.206
 1974TIP3   OH2 5927   5.829   1.859   4.301
 1974TIP3    H1 5928   5.789   1.864   4.214
 1974TIP3    H2 5929   5.858   1.949   4.320
 1975TIP3   OH2 5930   0.419   4.776   0.896
 1975TIP3    H1 5931   0.355   4.705   0.896
 1975TIP3    H2 5932   0.376   4.847   0.944
 1976TIP3   OH2 5933   2.814   1.621   3.968
 1976TIP3    H1 5934   2.899   1.598   3.931
 1976TIP3    H2 5935   2.825   1.613   4.062
 1977TIP3   OH2 5936   6.314   1.205   4.191
 1977TIP3    H1 5937   6.232   1.249   4.168
 1977TIP3    H2 5938   6.322   1.133   4.129
 1978TIP3   OH2 5939   0.285   3.273   1.456
 1978TIP3    H1 5940   0.223   3.248   1.524
 1978TIP3    H2 5941   0.263   3.216   1.382
 1979TIP3   OH2 5942   2.024   5.718   1.463
 1979TIP3    H1 5943   2.113   5.699   1.492
 1979TIP3    H2 5944   1.981   5.753   1.541
 1980TIP3   OH2 5945   6.073   4.549   4.815
 1980TIP3    H1 5946   6.059   4.500   4.735
 1980TIP3    H2 5947   6.090   4.639   4.786
 1981TIP3   OH2 5948   6.004   2.867   0.774
 1981TIP3    H1 5949   5.947   2.870   0.697
 1981TIP3    H2 5950   6.042   2.955   0.779
 1982TIP3   OH2 5951   2.811   5.077   3.199
 1982TIP3    H1 5952   2.863   5.021   3.141
 1982TIP3    H2 5953   2.865   5.085   3.278
 1983TIP3   OH2 5954   2.964   3.057   0.434
 1983TIP3    H1 5955   2.998   3.132   0.483
 1983TIP3    H2 5956   3.037   3.028   0.380
 1984TIP3   OH2 5957   2.559   1.110   2.100
 1984TIP3    H1 5958   2.557   1.015   2.112
 1984TIP3    H2 5959   2.631   1.125   2.039
 1985TIP3   OH2 5960   4.208   4.304   0.662
 1985TIP3    H1 5961   4.269   4.374   0.686
 1985TIP3    H2 5962   4.159   4.339   0.588
 1986TIP3   OH2 5963   1.664   3.650   0.704
 1986TIP3    H1 5964   1.679   3.566   0.747
 1986TIP3    H2 5965   1.569   3.656   0.695
 1987TIP3   OH2 5966   0.328   0.474   2.881
 1987TIP3    H1 5967   0.290   0.434   2.959
 1987TIP3    H2 5968   0.386   0.406   2.846
 1988TIP3   OH2 5969   2.755   5.048   2.906
 1988TIP3    H1 5970   2.691   4.980   2.886
 1988TIP3    H2 5971   2.838   5.013   2.872
 1989TIP3   OH2 5972   1.815   5.816   0.111
 1989TIP3    H1 5973   1.908   5.821   0.088
 1989TIP3    H2 5974   1.770   5.835   0.029
 1990TIP3   OH2 5975   4.729   5.546   4.558
 1990TIP3    H1 5976   4.800   5.523   4.497
 1990TIP3    H2 5977   4.663   5.587   4.502
 1991TIP3   OH2 5978   1.675   2.044   4.541
 1991TIP3    H1 5979   1.678   1.969   4.600
 1991TIP3    H2 5980   1.606   2.100   4.576
 1992TIP3   OH2 5981   3.851   1.522   2.486
 1992TIP3    H1 5982   3.784   1.457   2.464
 1992TIP3    H2 5983   3.800   1.600   2.512
 1993TIP3   OH2 5984   5.459   5.819   2.919
 1993TIP3    H1 5985   5.452   5.906   2.880
 1993TIP3    H2 5986   5.369   5.788   2.925
 1994TIP3   OH2 5987   6.210   3.002   0.957
 1994TIP3    H1 5988   6.221   3.029   1.048
 1994TIP3    H2 5989   6.288   2.951   0.938
 1995TIP3   OH2 5990   0.840   2.007   1.273
 1995TIP3    H1 5991   0.890   2.088   1.265
 1995TIP3    H2 5992   0.750   2.036   1.290
 1996TIP3   OH2 5993   3.206   5.271   5.135
 1996TIP3    H1 5994   3.276   5.215   5.102
 1996TIP3    H2 5995   3.243   5.359   5.135
 1997TIP3   OH2 5996   2.397   3.488   4.860
 1997TIP3    H1 5997   2.402   3.434   4.782
 1997TIP3    H2 5998   2.442   3.437   4.927
 1998TIP3   OH2 5999   6.305   0.790   3.124
 1998TIP3    H1 6000   6.399   0.803   3.107
 1998TIP3    H2 6001   6.270   0.758   3.041
 1999TIP3   OH2 6002   0.771   3.910   2.025
 1999TIP3    H1 6003   0.713   3.983   2.048
 1999TIP3    H2 6004   0.714   3.847   1.981
 2000TIP3   OH2 6005   5.242   3.256   2.166
 2000TIP3    H1 6006   5.234   3.350   2.146
 2000TIP3    H2 6007   5.327   3.231   2.130
 2001TIP3   OH2 6008   1.611   2.639   0.824
 2001TIP3    H1 6009   1.615   2.633   0.919
 2001TIP3    H2 6010   1.699   2.667   0.798
 2002TIP3   OH2 6011   5.449   0.179   1.666
 2002TIP3    H1 6012   5.417   0.259   1.707
 2002TIP3    H2 6013   5.398   0.170   1.585
 2003TIP3   OH2 6014   4.530   1.761   3.547
 2003TIP3    H1 6015   4.494   1.672   3.555
 2003TIP3    H2 6016   4.606   1.751   3.490
 2004TIP3   OH2 6017   1.834   0.167   3.537
 2004TIP3    H1 6018   1.782   0.218   3.475
 2004TIP3    H2 6019   1.910   0.138   3.486
 2005TIP3   OH2 6020   0.403   5.309   0.470
 2005TIP3    H1 6021   0.331   5.359   0.432
 2005TIP3    H2 6022   0.421   5.351   0.554
 2006TIP3   OH2 6023   1.393   4.986   1.132
 2006TIP3    H1 6024   1.364   5.040   1.206
 2006TIP3    H2 6025   1.463   5.037   1.092
 2007TIP3   OH2 6026   4.366   1.150   1.143
 2007TIP3    H1 6027   4.369   1.120   1.234
 2007TIP3    H2 6028   4.336   1.074   1.093
 2008TIP3   OH2 6029   0.633   0.376   0.465
 2008TIP3    H1 6030   0.577   0.319   0.413
 2008TIP3    H2 6031   0.641   0.332   0.549
 2009TIP3   OH2 6032   2.310   2.561   0.103
 2009TIP3    H1 6033   2.306   2.492   0.037
 2009TIP3    H2 6034   2.396   2.601   0.091
 2010TIP3   OH2 6035   0.900   5.159   0.868
 2010TIP3    H1 6036   0.992   5.134   0.879
 2010TIP3    H2 6037   0.880   5.213   0.945
 2011TIP3   OH2 6038   3.218   5.275   4.294
 2011TIP3    H1 6039   3.171   5.272   4.377
 2011TIP3    H2 6040   3.167   5.335   4.239
 2012TIP3   OH2 6041   1.778   0.819   2.391
 2012TIP3    H1 6042   1.716   0.766   2.441
 2012TIP3    H2 6043   1.753   0.909   2.410
 2013TIP3   OH2 6044   4.339   0.213   2.286
 2013TIP3    H1 6045   4.336   0.276   2.357
 2013TIP3    H2 6046   4.350   0.266   2.207
 2014TIP3   OH2 6047   0.245   0.729   3.140
 2014TIP3    H1 6048   0.306   0.751   3.210
 2014TIP3    H2 6049   0.301   0.695   3.070
 2015TIP3   OH2 6050   3.331   3.801   1.428
 2015TIP3    H1 6051   3.263   3.762   1.374
 2015TIP3    H2 6052   3.296   3.797   1.517
 2016TIP3   OH2 6053   5.804   3.878   2.781
 2016TIP3    H1 6054   5.734   3.837   2.831
 2016TIP3    H2 6055   5.788   3.972   2.789
 2017TIP3   OH2 6056   2.746   3.783   2.226
 2017TIP3    H1 6057   2.780   3.698   2.199
 2017TIP3    H2 6058   2.658   3.787   2.189
 2018TIP3   OH2 6059   4.085   4.017   4.209
 2018TIP3    H1 6060   4.151   4.085   4.199
 2018TIP3    H2 6061   4.050   4.030   4.297
 2019TIP3   OH2 6062   0.621   2.182   4.194
 2019TIP3    H1 6063   0.673   2.194   4.273
 2019TIP3    H2 6064   0.685   2.182   4.123
 2020TIP3   OH2 6065   6.072   4.956   0.529
 2020TIP3    H1 6066   6.071   4.971   0.434
 2020TIP3    H2 6067   6.016   5.025   0.565
 2021TIP3   OH2 6068   1.814   3.976   3.827
 2021TIP3    H1 6069   1.815   4.064   3.864
 2021TIP3    H2 6070   1.890   3.974   3.769
 2022TIP3   OH2 6071   3.560   0.231   4.498
 2022TIP3    H1 6072   3.544   0.315   4.455
 2022TIP3    H2 6073   3.484   0.178   4.477
 2023TIP3   OH2 6074   6.140   2.385   0.443
 2023TIP3    H1 6075   6.147   2.326   0.517
 2023TIP3    H2 6076   6.156   2.331   0.366
 2024TIP3   OH2 6077   0.450   5.211   5.000
 2024TIP3    H1 6078   0.507   5.162   4.941
 2024TIP3    H2 6079   0.366   5.164   4.997
 2025TIP3   OH2 6080   1.346   0.061   3.637
 2025TIP3    H1 6081   1.418  -0.001   3.646
 2025TIP3    H2 6082   1.269   0.012   3.666
 2026TIP3   OH2 6083   3.352   3.725   0.420
 2026TIP3    H1 6084   3.410   3.655   0.450
 2026TIP3    H2 6085   3.399   3.806   0.439
 2027TIP3   OH2 6086   0.055   5.403   0.581
 2027TIP3    H1 6087   0.048   5.320   0.534
 2027TIP3    H2 6088   0.121   5.452   0.533
 2028TIP3   OH2 6089   5.182   5.839   0.573
 2028TIP3    H1 6090   5.224   5.757   0.547
 2028TIP3    H2 6091   5.123   5.815   0.643
 2029TIP3   OH2 6092   5.386   4.532   1.446
 2029TIP3    H1 6093   5.468   4.575   1.473
 2029TIP3    H2 6094   5.332   4.604   1.413
 2030TIP3   OH2 6095   3.981   1.225  -0.044
 2030TIP3    H1 6096   3.981   1.142   0.004
 2030TIP3    H2 6097   4.031   1.285   0.012
 2031TIP3   OH2 6098   6.061   5.297   0.105
 2031TIP3    H1 6099   6.037   5.217   0.059
 2031TIP3    H2 6100   5.979   5.326   0.147
 2032TIP3   OH2 6101   4.282   1.237   0.256
 2032TIP3    H1 6102   4.368   1.242   0.214
 2032TIP3    H2 6103   4.245   1.155   0.225
 2033TIP3   OH2 6104   4.746   1.646   3.399
 2033TIP3    H1 6105   4.766   1.557   3.427
 2033TIP3    H2 6106   4.710   1.636   3.311
 2034TIP3   OH2 6107   0.578   1.441   4.147
 2034TIP3    H1 6108   0.504   1.476   4.197
 2034TIP3    H2 6109   0.650   1.441   4.210
 2035TIP3   OH2 6110   1.359   2.494   0.598
 2035TIP3    H1 6111   1.276   2.521   0.637
 2035TIP3    H2 6112   1.340   2.483   0.504
 2036TIP3   OH2 6113   1.255   3.718   1.474
 2036TIP3    H1 6114   1.273   3.631   1.441
 2036TIP3    H2 6115   1.198   3.704   1.550
 2037TIP3   OH2 6116   3.797   5.738   4.371
 2037TIP3    H1 6117   3.704   5.737   4.391
 2037TIP3    H2 6118   3.814   5.655   4.326
 2038TIP3   OH2 6119   5.801   1.941   1.466
 2038TIP3    H1 6120   5.815   2.035   1.460
 2038TIP3    H2 6121   5.881   1.907   1.506
 2039TIP3   OH2 6122   0.916   4.483   1.368
 2039TIP3    H1 6123   0.843   4.542   1.355
 2039TIP3    H2 6124   0.956   4.511   1.451
 2040TIP3   OH2 6125   2.157   3.323   1.485
 2040TIP3    H1 6126   2.223   3.375   1.531
 2040TIP3    H2 6127   2.075   3.370   1.501
 2041TIP3   OH2 6128   6.284   4.787   5.011
 2041TIP3    H1 6129   6.279   4.883   5.012
 2041TIP3    H2 6130   6.274   4.762   5.103
 2042TIP3   OH2 6131   3.437   4.303   4.488
 2042TIP3    H1 6132   3.492   4.267   4.419
 2042TIP3    H2 6133   3.347   4.292   4.455
 2043TIP3   OH2 6134   4.963   4.125   0.433
 2043TIP3    H1 6135   4.938   4.164   0.350
 2043TIP3    H2 6136   4.886   4.075   0.461
 2044TIP3   OH2 6137   3.613   3.057   0.805
 2044TIP3    H1 6138   3.614   3.152   0.796
 2044TIP3    H2 6139   3.527   3.030   0.771
 2045TIP3   OH2 6140   4.079   4.282   1.790
 2045TIP3    H1 6141   4.170   4.266   1.765
 2045TIP3    H2 6142   4.045   4.338   1.720
 2046TIP3   OH2 6143   5.306   0.174   4.624
 2046TIP3    H1 6144   5.318   0.095   4.677
 2046TIP3    H2 6145   5.274   0.240   4.686
 2047TIP3   OH2 6146   1.469   3.210   2.659
 2047TIP3    H1 6147   1.532   3.262   2.708
 2047TIP3    H2 6148   1.405   3.183   2.724
 2048TIP3   OH2 6149   1.050   3.532   1.581
 2048TIP3    H1 6150   1.032   3.467   1.649
 2048TIP3    H2 6151   1.024   3.489   1.500
 2049TIP3   OH2 6152   5.496   0.393   3.917
 2049TIP3    H1 6153   5.420   0.446   3.942
 2049TIP3    H2 6154   5.489   0.315   3.972
 2050TIP3   OH2 6155   3.996   2.674   0.434
 2050TIP3    H1 6156   3.908   2.708   0.451
 2050TIP3    H2 6157   4.050   2.710   0.504
 2051TIP3   OH2 6158   5.835   2.672   2.237
 2051TIP3    H1 6159   5.819   2.735   2.306
 2051TIP3    H2 6160   5.752   2.626   2.226
 2052TIP3   OH2 6161   1.077   5.395   4.212
 2052TIP3    H1 6162   0.989   5.421   4.239
 2052TIP3    H2 6163   1.075   5.299   4.211
 2053TIP3   OH2 6164   0.475   4.064   2.225
 2053TIP3    H1 6165   0.475   4.087   2.132
 2053TIP3    H2 6166   0.534   4.127   2.266
 2054TIP3   OH2 6167   0.427   1.790   3.188
 2054TIP3    H1 6168   0.361   1.786   3.119
 2054TIP3    H2 6169   0.474   1.872   3.172
 2055TIP3   OH2 6170   0.870   5.193   0.466
 2055TIP3    H1 6171   0.871   5.160   0.376
 2055TIP3    H2 6172   0.960   5.221   0.483
 2056TIP3   OH2 6173   5.260   4.333   4.006
 2056TIP3    H1 6174   5.288   4.400   4.067
 2056TIP3    H2 6175   5.332   4.325   3.943
 2057TIP3   OH2 6176   3.039   2.668   2.431
 2057TIP3    H1 6177   3.054   2.743   2.374
 2057TIP3    H2 6178   3.042   2.592   2.372
 2058TIP3   OH2 6179   1.339   0.909   4.305
 2058TIP3    H1 6180   1.368   0.997   4.282
 2058TIP3    H2 6181   1.244   0.915   4.306
 2059TIP3   OH2 6182   5.516   0.031   3.410
 2059TIP3    H1 6183   5.478   0.050   3.324
 2059TIP3    H2 6184   5.482   0.100   3.467
 2060TIP3   OH2 6185   3.437   1.167   0.389
 2060TIP3    H1 6186   3.463   1.218   0.312
 2060TIP3    H2 6187   3.355   1.125   0.363
 2061TIP3   OH2 6188   3.555   4.392   1.428
 2061TIP3    H1 6189   3.638   4.399   1.475
 2061TIP3    H2 6190   3.507   4.323   1.475
 2062TIP3   OH2 6191   5.723   1.198   1.841
 2062TIP3    H1 6192   5.666   1.200   1.918
 2062TIP3    H2 6193   5.808   1.227   1.873
 2063TIP3   OH2 6194   2.287   3.013   3.188
 2063TIP3    H1 6195   2.213   2.953   3.192
 2063TIP3    H2 6196   2.287   3.058   3.272
 2064TIP3   OH2 6197   3.755   0.902   0.501
 2064TIP3    H1 6198   3.659   0.900   0.503
 2064TIP3    H2 6199   3.782   0.866   0.585
 2065TIP3   OH2 6200   0.485   1.150   1.684
 2065TIP3    H1 6201   0.415   1.194   1.637
 2065TIP3    H2 6202   0.446   1.067   1.714
 2066TIP3   OH2 6203   4.456   0.322   0.295
 2066TIP3    H1 6204   4.534   0.305   0.243
 2066TIP3    H2 6205   4.439   0.239   0.342
 2067TIP3   OH2 6206   1.678   0.677   4.061
 2067TIP3    H1 6207   1.683   0.762   4.103
 2067TIP3    H2 6208   1.617   0.626   4.115
 2068TIP3   OH2 6209   5.012   4.912   1.092
 2068TIP3    H1 6210   5.061   4.973   1.147
 2068TIP3    H2 6211   5.028   4.826   1.131
 2069TIP3   OH2 6212   5.065   2.384   4.832
 2069TIP3    H1 6213   5.131   2.425   4.888
 2069TIP3    H2 6214   5.109   2.308   4.794
 2070TIP3   OH2 6215   4.243   5.832   0.613
 2070TIP3    H1 6216   4.330   5.795   0.604
 2070TIP3    H2 6217   4.258   5.926   0.623
 2071TIP3   OH2 6218   1.979   3.991   4.910
 2071TIP3    H1 6219   2.007   4.073   4.949
 2071TIP3    H2 6220   2.042   3.975   4.839
 2072TIP3   OH2 6221   1.978   5.576   5.092
 2072TIP3    H1 6222   2.063   5.568   5.135
 2072TIP3    H2 6223   1.987   5.526   5.011
 2073TIP3   OH2 6224   0.492   5.975   2.613
 2073TIP3    H1 6225   0.550   5.981   2.690
 2073TIP3    H2 6226   0.549   5.996   2.539
 2074TIP3   OH2 6227   2.294   5.686   4.430
 2074TIP3    H1 6228   2.334   5.626   4.367
 2074TIP3    H2 6229   2.242   5.746   4.375
 2075TIP3   OH2 6230   1.154   0.848   2.835
 2075TIP3    H1 6231   1.167   0.790   2.910
 2075TIP3    H2 6232   1.060   0.868   2.836
 2076TIP3   OH2 6233   4.649   0.038   1.365
 2076TIP3    H1 6234   4.631   0.060   1.457
 2076TIP3    H2 6235   4.567   0.056   1.319
 2077TIP3   OH2 6236   2.818   1.238   1.381
 2077TIP3    H1 6237   2.766   1.158   1.370
 2077TIP3    H2 6238   2.883   1.216   1.448
 2078TIP3   OH2 6239   4.796   3.229   1.973
 2078TIP3    H1 6240   4.868   3.171   2.000
 2078TIP3    H2 6241   4.759   3.261   2.055
 2079TIP3   OH2 6242   1.298   3.965   0.659
 2079TIP3    H1 6243   1.216   3.997   0.622
 2079TIP3    H2 6244   1.362   4.034   0.640
 2080TIP3   OH2 6245   2.345   2.797   2.564
 2080TIP3    H1 6246   2.408   2.805   2.493
 2080TIP3    H2 6247   2.379   2.725   2.618
 2081TIP3   OH2 6248   3.015   3.517   4.377
 2081TIP3    H1 6249   2.928   3.496   4.344
 2081TIP3    H2 6250   3.020   3.471   4.461
 2082TIP3   OH2 6251   2.402   1.610   1.247
 2082TIP3    H1 6252   2.308   1.602   1.259
 2082TIP3    H2 6253   2.437   1.524   1.272
 2083TIP3   OH2 6254   2.194   0.506   0.740
 2083TIP3    H1 6255   2.283   0.513   0.705
 2083TIP3    H2 6256   2.145   0.460   0.672
 2084TIP3   OH2 6257   5.012   5.828   1.741
 2084TIP3    H1 6258   4.961   5.851   1.663
 2084TIP3    H2 6259   5.099   5.805   1.707
 2085TIP3   OH2 6260   6.071   0.963   1.591
 2085TIP3    H1 6261   5.978   0.940   1.599
 2085TIP3    H2 6262   6.070   1.057   1.573
 2086TIP3   OH2 6263   0.493   0.045   3.068
 2086TIP3    H1 6264   0.490   0.087   3.154
 2086TIP3    H2 6265   0.563  -0.020   3.075
 2087TIP3   OH2 6266   3.334   5.106   2.540
 2087TIP3    H1 6267   3.396   5.075   2.475
 2087TIP3    H2 6268   3.312   5.194   2.513
 2088TIP3   OH2 6269   3.787   0.388   1.719
 2088TIP3    H1 6270   3.833   0.448   1.659
 2088TIP3    H2 6271   3.840   0.308   1.717
 2089TIP3   OH2 6272   2.629   0.317   5.123
 2089TIP3    H1 6273   2.584   0.345   5.043
 2089TIP3    H2 6274   2.694   0.254   5.093
 2090TIP3   OH2 6275   4.461   5.973   5.026
 2090TIP3    H1 6276   4.383   6.025   5.008
 2090TIP3    H2 6277   4.440   5.886   4.991
 2091TIP3   OH2 6278   6.072   3.248   3.985
 2091TIP3    H1 6279   6.053   3.320   4.045
 2091TIP3    H2 6280   6.111   3.290   3.908
 2092TIP3   OH2 6281   5.857   5.470   2.523
 2092TIP3    H1 6282   5.793   5.506   2.460
 2092TIP3    H2 6283   5.807   5.457   2.603
 2093TIP3   OH2 6284   5.438   5.873   0.361
 2093TIP3    H1 6285   5.424   5.938   0.430
 2093TIP3    H2 6286   5.356   5.824   0.357
 2094TIP3   OH2 6287   1.600   5.569   3.129
 2094TIP3    H1 6288   1.538   5.518   3.077
 2094TIP3    H2 6289   1.583   5.543   3.219
 2095TIP3   OH2 6290   2.144   5.106   0.343
 2095TIP3    H1 6291   2.137   5.189   0.390
 2095TIP3    H2 6292   2.085   5.115   0.269
 2096TIP3   OH2 6293   6.336   4.758   0.980
 2096TIP3    H1 6294   6.258   4.748   0.926
 2096TIP3    H2 6295   6.317   4.708   1.059
 2097TIP3   OH2 6296   6.216   0.379   3.811
 2097TIP3    H1 6297   6.171   0.396   3.728
 2097TIP3    H2 6298   6.161   0.419   3.878
 2098TIP3   OH2 6299   4.468   5.255   3.774
 2098TIP3    H1 6300   4.431   5.171   3.747
 2098TIP3    H2 6301   4.446   5.262   3.867
 2099TIP3   OH2 6302   4.757  -0.002   4.700
 2099TIP3    H1 6303   4.755   0.020   4.793
 2099TIP3    H2 6304   4.744   0.081   4.655
 2100TIP3   OH2 6305   3.259   5.786   1.947
 2100TIP3    H1 6306   3.220   5.872   1.964
 2100TIP3    H2 6307   3.190   5.737   1.903
 2101TIP3   OH2 6308   1.216   5.201   3.264
 2101TIP3    H1 6309   1.144   5.207   3.328
 2101TIP3    H2 6310   1.295   5.212   3.316
 2102TIP3   OH2 6311   1.764   0.132   0.218
 2102TIP3    H1 6312   1.723   0.149   0.133
 2102TIP3    H2 6313   1.802   0.044   0.209
 2103TIP3   OH2 6314   1.580   1.726   1.762
 2103TIP3    H1 6315   1.612   1.804   1.717
 2103TIP3    H2 6316   1.566   1.662   1.692
 2104TIP3   OH2 6317   2.687   4.659   0.740
 2104TIP3    H1 6318   2.648   4.589   0.688
 2104TIP3    H2 6319   2.781   4.649   0.726
 2105TIP3   OH2 6320   2.652   0.546   1.623
 2105TIP3    H1 6321   2.632   0.456   1.646
 2105TIP3    H2 6322   2.633   0.552   1.529
 2106TIP3   OH2 6323   4.522   3.029   1.886
 2106TIP3    H1 6324   4.433   3.017   1.920
 2106TIP3    H2 6325   4.554   2.940   1.872
 2107TIP3   OH2 6326   5.579   1.898   4.869
 2107TIP3    H1 6327   5.535   1.980   4.845
 2107TIP3    H2 6328   5.646   1.924   4.932
 2108TIP3   OH2 6329   4.520   5.569   2.261
 2108TIP3    H1 6330   4.513   5.639   2.326
 2108TIP3    H2 6331   4.504   5.489   2.311
 2109TIP3   OH2 6332   2.448   1.823   3.116
 2109TIP3    H1 6333   2.489   1.746   3.077
 2109TIP3    H2 6334   2.497   1.838   3.196
 2110TIP3   OH2 6335   6.184   1.251   0.116
 2110TIP3    H1 6336   6.259   1.301   0.084
 2110TIP3    H2 6337   6.220   1.192   0.181
 2111TIP3   OH2 6338   2.530   2.381   5.209
 2111TIP3    H1 6339   2.453   2.422   5.248
 2111TIP3    H2 6340   2.534   2.419   5.121
 2112TIP3   OH2 6341   0.286   2.450   2.524
 2112TIP3    H1 6342   0.329   2.408   2.598
 2112TIP3    H2 6343   0.221   2.386   2.494
 2113TIP3   OH2 6344   6.174   1.017   0.295
 2113TIP3    H1 6345   6.234   0.944   0.310
 2113TIP3    H2 6346   6.164   1.059   0.380
 2114TIP3   OH2 6347   1.056   4.826   4.862
 2114TIP3    H1 6348   1.056   4.780   4.778
 2114TIP3    H2 6349   1.149   4.829   4.887
 2115TIP3   OH2 6350   3.546   2.727   0.080
 2115TIP3    H1 6351   3.531   2.675   0.159
 2115TIP3    H2 6352   3.458   2.749   0.049
 2116TIP3   OH2 6353   3.802   2.205   4.697
 2116TIP3    H1 6354   3.792   2.277   4.759
 2116TIP3    H2 6355   3.715   2.166   4.692
 2117TIP3   OH2 6356   1.401   0.263   1.083
 2117TIP3    H1 6357   1.451   0.270   1.001
 2117TIP3    H2 6358   1.310   0.264   1.055
 2118TIP3   OH2 6359   1.749   5.895   0.757
 2118TIP3    H1 6360   1.689   5.958   0.719
 2118TIP3    H2 6361   1.703   5.811   0.751
 2119TIP3   OH2 6362   5.576   0.721   0.577
 2119TIP3    H1 6363   5.655   0.671   0.557
 2119TIP3    H2 6364   5.558   0.702   0.669
 2120TIP3   OH2 6365   3.313   1.823   0.137
 2120TIP3    H1 6366   3.329   1.731   0.161
 2120TIP3    H2 6367   3.396   1.867   0.155
 2121TIP3   OH2 6368   4.367   5.267   0.169
 2121TIP3    H1 6369   4.402   5.267   0.080
 2121TIP3    H2 6370   4.358   5.175   0.192
 2122TIP3   OH2 6371   0.728   5.880   3.511
 2122TIP3    H1 6372   0.709   5.901   3.420
 2122TIP3    H2 6373   0.642   5.878   3.554
 2123TIP3   OH2 6374   2.895   4.798   3.054
 2123TIP3    H1 6375   2.927   4.847   2.979
 2123TIP3    H2 6376   2.963   4.732   3.070
 2124TIP3   OH2 6377   5.099   3.269   4.177
 2124TIP3    H1 6378   5.170   3.255   4.115
 2124TIP3    H2 6379   5.124   3.219   4.255
 2125TIP3   OH2 6380   4.946   3.871   4.719
 2125TIP3    H1 6381   4.976   3.910   4.637
 2125TIP3    H2 6382   4.853   3.855   4.704
 2126TIP3   OH2 6383   6.146   5.315   1.233
 2126TIP3    H1 6384   6.123   5.275   1.149
 2126TIP3    H2 6385   6.160   5.241   1.292
 2127TIP3   OH2 6386   2.360   4.834   4.946
 2127TIP3    H1 6387   2.367   4.844   5.041
 2127TIP3    H2 6388   2.353   4.924   4.913
 2128TIP3   OH2 6389   3.599   4.508   4.027
 2128TIP3    H1 6390   3.560   4.441   4.083
 2128TIP3    H2 6391   3.524   4.546   3.980
 2129TIP3   OH2 6392   0.215   1.565   3.321
 2129TIP3    H1 6393   0.301   1.602   3.339
 2129TIP3    H2 6394   0.163   1.586   3.399
 2130TIP3   OH2 6395   5.056   1.911   4.276
 2130TIP3    H1 6396   5.016   1.879   4.357
 2130TIP3    H2 6397   4.990   1.896   4.208
 2131TIP3   OH2 6398   4.132   4.624   3.879
 2131TIP3    H1 6399   4.160   4.711   3.904
 2131TIP3    H2 6400   4.103   4.584   3.961
 2132TIP3   OH2 6401   2.600   3.489   4.101
 2132TIP3    H1 6402   2.612   3.489   4.196
 2132TIP3    H2 6403   2.581   3.398   4.079
 2133TIP3   OH2 6404   4.789   0.762   3.643
 2133TIP3    H1 6405   4.883   0.767   3.656
 2133TIP3    H2 6406   4.752   0.801   3.722
 2134TIP3   OH2 6407   1.239   1.043   5.026
 2134TIP3    H1 6408   1.307   1.007   4.969
 2134TIP3    H2 6409   1.271   1.130   5.050
 2135TIP3   OH2 6410   3.137   1.354   1.514
 2135TIP3    H1 6411   3.137   1.344   1.419
 2135TIP3    H2 6412   3.093   1.438   1.530
 2136TIP3   OH2 6413   4.859   3.862   3.254
 2136TIP3    H1 6414   4.872   3.912   3.335
 2136TIP3    H2 6415   4.940   3.811   3.244
 2137TIP3   OH2 6416   3.178   1.082   1.794
 2137TIP3    H1 6417   3.175   0.987   1.811
 2137TIP3    H2 6418   3.222   1.090   1.710
 2138TIP3   OH2 6419   0.469   5.429   3.188
 2138TIP3    H1 6420   0.494   5.423   3.095
 2138TIP3    H2 6421   0.549   5.406   3.235
 2139TIP3   OH2 6422   1.008   4.643   4.208
 2139TIP3    H1 6423   1.033   4.701   4.137
 2139TIP3    H2 6424   1.041   4.686   4.287
 2140TIP3   OH2 6425   4.318   2.875   0.157
 2140TIP3    H1 6426   4.365   2.905   0.235
 2140TIP3    H2 6427   4.339   2.940   0.090
 2141TIP3   OH2 6428   2.037   5.738   4.074
 2141TIP3    H1 6429   1.973   5.775   4.013
 2141TIP3    H2 6430   2.070   5.660   4.029
 2142TIP3   OH2 6431   3.768   1.054   1.845
 2142TIP3    H1 6432   3.734   1.008   1.921
 2142TIP3    H2 6433   3.700   1.117   1.822
 2143TIP3   OH2 6434   0.117   2.896   4.809
 2143TIP3    H1 6435   0.134   2.873   4.900
 2143TIP3    H2 6436   0.095   2.813   4.766
 2144TIP3   OH2 6437   2.300   5.666   2.039
 2144TIP3    H1 6438   2.245   5.707   2.105
 2144TIP3    H2 6439   2.371   5.626   2.088
 2145TIP3   OH2 6440   2.484   5.390   3.525
 2145TIP3    H1 6441   2.441   5.430   3.600
 2145TIP3    H2 6442   2.572   5.368   3.557
 2146TIP3   OH2 6443   0.232   1.550   3.734
 2146TIP3    H1 6444   0.223   1.505   3.650
 2146TIP3    H2 6445   0.253   1.641   3.711
 2147TIP3   OH2 6446   2.229   1.677   0.929
 2147TIP3    H1 6447   2.309   1.676   0.877
 2147TIP3    H2 6448   2.213   1.586   0.952
 2148TIP3   OH2 6449   4.873   5.253   3.257
 2148TIP3    H1 6450   4.962   5.218   3.268
 2148TIP3    H2 6451   4.816   5.191   3.301
 2149TIP3   OH2 6452   3.165   5.902   0.067
 2149TIP3    H1 6453   3.245   5.868   0.027
 2149TIP3    H2 6454   3.146   5.982   0.017
 2150TIP3   OH2 6455   0.510   3.035   0.888
 2150TIP3    H1 6456   0.505   3.084   0.969
 2150TIP3    H2 6457   0.460   2.955   0.904
 2151TIP3   OH2 6458   2.959   1.944   2.999
 2151TIP3    H1 6459   3.034   1.937   2.939
 2151TIP3    H2 6460   2.989   1.902   3.079
 2152TIP3   OH2 6461   4.665   5.224   5.020
 2152TIP3    H1 6462   4.749   5.266   5.037
 2152TIP3    H2 6463   4.681   5.131   5.035
 2153TIP3   OH2 6464   3.017   5.471   4.316
 2153TIP3    H1 6465   2.959   5.447   4.389
 2153TIP3    H2 6466   3.040   5.562   4.333
 2154TIP3   OH2 6467   3.329   1.457   1.719
 2154TIP3    H1 6468   3.293   1.406   1.647
 2154TIP3    H2 6469   3.253   1.493   1.764
 2155TIP3   OH2 6470   3.011   3.794   4.399
 2155TIP3    H1 6471   3.031   3.710   4.360
 2155TIP3    H2 6472   2.996   3.774   4.492
 2156TIP3   OH2 6473   3.679   5.976   1.049
 2156TIP3    H1 6474   3.729   5.906   1.008
 2156TIP3    H2 6475   3.591   5.939   1.062
 2157TIP3   OH2 6476   1.550   0.626   0.066
 2157TIP3    H1 6477   1.564   0.536   0.036
 2157TIP3    H2 6478   1.557   0.621   0.161
 2158TIP3   OH2 6479   4.718   5.175   2.681
 2158TIP3    H1 6480   4.773   5.206   2.609
 2158TIP3    H2 6481   4.779   5.161   2.753
 2159TIP3   OH2 6482   6.094   3.168   4.983
 2159TIP3    H1 6483   6.151   3.149   4.908
 2159TIP3    H2 6484   6.013   3.201   4.943
 2160TIP3   OH2 6485   4.805   3.359   2.969
 2160TIP3    H1 6486   4.867   3.357   2.896
 2160TIP3    H2 6487   4.837   3.293   3.030
 2161TIP3   OH2 6488   5.379   3.920   2.564
 2161TIP3    H1 6489   5.422   4.006   2.565
 2161TIP3    H2 6490   5.441   3.861   2.606
 2162TIP3   OH2 6491   3.339   3.485   1.233
 2162TIP3    H1 6492   3.343   3.579   1.211
 2162TIP3    H2 6493   3.346   3.441   1.148
 2163TIP3   OH2 6494   2.395   4.514   4.643
 2163TIP3    H1 6495   2.311   4.559   4.654
 2163TIP3    H2 6496   2.400   4.454   4.717
 2164TIP3   OH2 6497   5.603   2.678   1.093
 2164TIP3    H1 6498   5.604   2.633   1.008
 2164TIP3    H2 6499   5.620   2.610   1.157
 2165TIP3   OH2 6500   1.692   1.787   4.683
 2165TIP3    H1 6501   1.654   1.742   4.758
 2165TIP3    H2 6502   1.783   1.803   4.708
 2166TIP3   OH2 6503   0.364   5.378   4.010
 2166TIP3    H1 6504   0.325   5.421   3.934
 2166TIP3    H2 6505   0.321   5.293   4.015
 2167TIP3   OH2 6506   4.284   4.527   2.715
 2167TIP3    H1 6507   4.239   4.603   2.678
 2167TIP3    H2 6508   4.333   4.491   2.642
 2168TIP3   OH2 6509   5.856   5.636   4.708
 2168TIP3    H1 6510   5.826   5.673   4.791
 2168TIP3    H2 6511   5.781   5.587   4.675
 2169TIP3   OH2 6512   4.460   5.517   0.214
 2169TIP3    H1 6513   4.430   5.427   0.230
 2169TIP3    H2 6514   4.387   5.572   0.241
 2170TIP3   OH2 6515   3.823   4.126   0.926
 2170TIP3    H1 6516   3.898   4.073   0.899
 2170TIP3    H2 6517   3.861   4.204   0.967
 2171TIP3   OH2 6518   2.017   0.511   1.828
 2171TIP3    H1 6519   1.966   0.471   1.898
 2171TIP3    H2 6520   1.978   0.598   1.817
 2172TIP3   OH2 6521   0.047   3.942   4.529
 2172TIP3    H1 6522  -0.014   3.870   4.547
 2172TIP3    H2 6523  -0.008   4.013   4.496
 2173TIP3   OH2 6524   4.182   5.751   0.910
 2173TIP3    H1 6525   4.131   5.806   0.969
 2173TIP3    H2 6526   4.163   5.785   0.822
 2174TIP3   OH2 6527   1.579   2.713   2.554
 2174TIP3    H1 6528   1.531   2.783   2.508
 2174TIP3    H2 6529   1.524   2.692   2.629
 2175TIP3   OH2 6530   2.818   2.162   4.715
 2175TIP3    H1 6531   2.760   2.233   4.688
 2175TIP3    H2 6532   2.790   2.140   4.804
 2176TIP3   OH2 6533   2.009   2.477   1.333
 2176TIP3    H1 6534   2.025   2.415   1.261
 2176TIP3    H2 6535   2.093   2.482   1.379
 2177TIP3   OH2 6536   6.281   3.566   3.685
 2177TIP3    H1 6537   6.348   3.526   3.630
 2177TIP3    H2 6538   6.215   3.499   3.695
 2178TIP3   OH2 6539   4.540   1.466   0.289
 2178TIP3    H1 6540   4.565   1.407   0.218
 2178TIP3    H2 6541   4.514   1.409   0.360
 2179TIP3   OH2 6542   5.592   4.400   4.332
 2179TIP3    H1 6543   5.556   4.489   4.331
 2179TIP3    H2 6544   5.663   4.402   4.268
 2180TIP3   OH2 6545   6.086   1.179   0.830
 2180TIP3    H1 6546   6.163   1.136   0.868
 2180TIP3    H2 6547   6.072   1.255   0.886
 2181TIP3   OH2 6548   5.082   5.950   4.564
 2181TIP3    H1 6549   5.172   5.969   4.538
 2181TIP3    H2 6550   5.084   5.860   4.595
 2182TIP3   OH2 6551   5.225   1.649   1.988
 2182TIP3    H1 6552   5.264   1.735   2.005
 2182TIP3    H2 6553   5.153   1.643   2.051
 2183TIP3   OH2 6554   5.319   1.972   2.806
 2183TIP3    H1 6555   5.265   1.896   2.826
 2183TIP3    H2 6556   5.287   2.040   2.865
 2184TIP3   OH2 6557   1.428   1.030   3.302
 2184TIP3    H1 6558   1.452   0.937   3.299
 2184TIP3    H2 6559   1.461   1.066   3.220
 2185TIP3   OH2 6560   2.816   0.146   0.173
 2185TIP3    H1 6561   2.763   0.148   0.094
 2185TIP3    H2 6562   2.852   0.234   0.181
 2186TIP3   OH2 6563   6.025   3.940   0.581
 2186TIP3    H1 6564   6.090   3.881   0.620
 2186TIP3    H2 6565   6.075   4.017   0.553
 2187TIP3   OH2 6566   2.543   4.192   5.198
 2187TIP3    H1 6567   2.616   4.219   5.142
 2187TIP3    H2 6568   2.509   4.113   5.157
 2188TIP3   OH2 6569   2.549   3.134   0.252
 2188TIP3    H1 6570   2.547   3.058   0.193
 2188TIP3    H2 6571   2.642   3.154   0.261
 2189TIP3   OH2 6572   2.544   3.949   4.315
 2189TIP3    H1 6573   2.552   3.865   4.361
 2189TIP3    H2 6574   2.536   3.925   4.223
 2190TIP3   OH2 6575   4.820   0.545   3.447
 2190TIP3    H1 6576   4.741   0.563   3.397
 2190TIP3    H2 6577   4.823   0.612   3.514
 2191TIP3   OH2 6578   6.154   3.508   4.984
 2191TIP3    H1 6579   6.084   3.468   5.036
 2191TIP3    H2 6580   6.119   3.512   4.895
 2192TIP3   OH2 6581   0.138   2.457   0.414
 2192TIP3    H1 6582   0.108   2.367   0.398
 2192TIP3    H2 6583   0.195   2.449   0.491
 2193TIP3   OH2 6584   1.237   4.718   2.809
 2193TIP3    H1 6585   1.201   4.630   2.806
 2193TIP3    H2 6586   1.332   4.705   2.813
 2194TIP3   OH2 6587   3.248   5.929   2.870
 2194TIP3    H1 6588   3.154   5.938   2.885
 2194TIP3    H2 6589   3.282   5.894   2.952
 2195TIP3   OH2 6590   0.104   2.095   3.790
 2195TIP3    H1 6591   0.048   2.021   3.768
 2195TIP3    H2 6592   0.188   2.075   3.748
 2196TIP3   OH2 6593   0.935   1.611   1.902
 2196TIP3    H1 6594   0.998   1.681   1.920
 2196TIP3    H2 6595   0.988   1.537   1.875
 2197TIP3   OH2 6596   2.801   0.296   4.718
 2197TIP3    H1 6597   2.735   0.306   4.788
 2197TIP3    H2 6598   2.852   0.376   4.723
 2198TIP3   OH2 6599   5.567   3.667   2.343
 2198TIP3    H1 6600   5.646   3.706   2.382
 2198TIP3    H2 6601   5.582   3.671   2.249
 2199TIP3   OH2 6602   5.310   2.983   4.569
 2199TIP3    H1 6603   5.246   3.042   4.528
 2199TIP3    H2 6604   5.394   3.026   4.556
 2200TIP3   OH2 6605   5.261   5.557   0.467
 2200TIP3    H1 6606   5.213   5.522   0.542
 2200TIP3    H2 6607   5.202   5.547   0.393
 2201TIP3   OH2 6608   5.159   1.925   5.101
 2201TIP3    H1 6609   5.144   1.897   5.011
 2201TIP3    H2 6610   5.145   2.020   5.099
 2202TIP3   OH2 6611   4.027   4.558   4.183
 2202TIP3    H1 6612   3.962   4.626   4.195
 2202TIP3    H2 6613   3.978   4.483   4.148
 2203TIP3   OH2 6614   1.309   4.877   4.237
 2203TIP3    H1 6615   1.356   4.794   4.237
 2203TIP3    H2 6616   1.344   4.925   4.162
 2204TIP3   OH2 6617   3.832   4.513   3.207
 2204TIP3    H1 6618   3.740   4.520   3.232
 2204TIP3    H2 6619   3.858   4.426   3.236
 2205TIP3   OH2 6620   3.722   0.899   1.562
 2205TIP3    H1 6621   3.722   0.862   1.650
 2205TIP3    H2 6622   3.756   0.988   1.573
 2206TIP3   OH2 6623   0.017   5.363   4.820
 2206TIP3    H1 6624   0.002   5.364   4.914
 2206TIP3    H2 6625  -0.069   5.384   4.782
 2207TIP3   OH2 6626   0.286   5.425   5.049
 2207TIP3    H1 6627   0.372   5.386   5.060
 2207TIP3    H2 6628   0.280   5.490   5.120
 2208TIP3   OH2 6629   5.286   4.613   4.974
 2208TIP3    H1 6630   5.271   4.558   4.897
 2208TIP3    H2 6631   5.381   4.627   4.975
 2209TIP3   OH2 6632   4.408   0.006   2.766
 2209TIP3    H1 6633   4.451   0.091   2.775
 2209TIP3    H2 6634   4.416  -0.035   2.852
 2210TIP3   OH2 6635   6.278   5.005   3.846
 2210TIP3    H1 6636   6.364   4.991   3.807
 2210TIP3    H2 6637   6.255   4.919   3.883
 2211TIP3   OH2 6638   5.826   0.619   1.037
 2211TIP3    H1 6639   5.901   0.667   1.001
 2211TIP3    H2 6640   5.821   0.539   0.985
 2212TIP3   OH2 6641   4.862   3.954   0.739
 2212TIP3    H1 6642   4.941   3.996   0.775
 2212TIP3    H2 6643   4.865   3.865   0.772
 2213TIP3   OH2 6644   1.045   3.230   2.980
 2213TIP3    H1 6645   1.125   3.229   2.928
 2213TIP3    H2 6646   1.033   3.140   3.009
 2214TIP3   OH2 6647   1.865   4.265   1.457
 2214TIP3    H1 6648   1.897   4.348   1.493
 2214TIP3    H2 6649   1.779   4.253   1.498
 2215TIP3   OH2 6650   1.577   5.710   0.447
 2215TIP3    H1 6651   1.515   5.642   0.420
 2215TIP3    H2 6652   1.568   5.778   0.379
 2216TIP3   OH2 6653   2.428   1.617   2.601
 2216TIP3    H1 6654   2.498   1.574   2.649
 2216TIP3    H2 6655   2.418   1.702   2.644
 2217TIP3   OH2 6656   0.635   0.768   3.215
 2217TIP3    H1 6657   0.653   0.701   3.280
 2217TIP3    H2 6658   0.595   0.721   3.142
 2218TIP3   OH2 6659   0.739   0.364   4.015
 2218TIP3    H1 6660   0.737   0.460   4.009
 2218TIP3    H2 6661   0.656   0.337   3.975
 2219TIP3   OH2 6662   0.175   2.661   0.860
 2219TIP3    H1 6663   0.193   2.612   0.780
 2219TIP3    H2 6664   0.091   2.705   0.843
 2220TIP3   OH2 6665   3.831   5.671  -0.005
 2220TIP3    H1 6666   3.824   5.763   0.022
 2220TIP3    H2 6667   3.833   5.622   0.077
 2221TIP3   OH2 6668   3.834   0.378   2.359
 2221TIP3    H1 6669   3.914   0.355   2.311
 2221TIP3    H2 6670   3.864   0.442   2.424
 2222TIP3   OH2 6671   6.326   2.240   1.068
 2222TIP3    H1 6672   6.241   2.258   1.028
 2222TIP3    H2 6673   6.358   2.326   1.096
 2223TIP3   OH2 6674   3.041   3.340   2.008
 2223TIP3    H1 6675   3.118   3.331   1.952
 2223TIP3    H2 6676   3.074   3.323   2.096
 2224TIP3   OH2 6677   4.803   3.046   2.776
 2224TIP3    H1 6678   4.797   3.051   2.871
 2224TIP3    H2 6679   4.897   3.056   2.758
 2225TIP3   OH2 6680   3.577   5.601   0.564
 2225TIP3    H1 6681   3.549   5.685   0.528
 2225TIP3    H2 6682   3.508   5.540   0.539
 2226TIP3   OH2 6683   0.640   1.346   3.174
 2226TIP3    H1 6684   0.677   1.299   3.249
 2226TIP3    H2 6685   0.618   1.432   3.209
 2227TIP3   OH2 6686   5.063   5.684   4.702
 2227TIP3    H1 6687   5.116   5.632   4.763
 2227TIP3    H2 6688   5.023   5.618   4.644
 2228TIP3   OH2 6689   3.050   0.693   0.432
 2228TIP3    H1 6690   3.021   0.715   0.344
 2228TIP3    H2 6691   3.132   0.644   0.419
 2229TIP3   OH2 6692   1.913   4.166   1.194
 2229TIP3    H1 6693   1.948   4.077   1.197
 2229TIP3    H2 6694   1.883   4.183   1.283
 2230TIP3   OH2 6695   3.810   3.855   1.142
 2230TIP3    H1 6696   3.821   3.920   1.210
 2230TIP3    H2 6697   3.719   3.825   1.151
 2231TIP3   OH2 6698   1.857   3.408   1.084
 2231TIP3    H1 6699   1.920   3.458   1.032
 2231TIP3    H2 6700   1.774   3.418   1.037
 2232TIP3   OH2 6701   1.736   1.089   2.457
 2232TIP3    H1 6702   1.649   1.124   2.475
 2232TIP3    H2 6703   1.785   1.103   2.538
 2233TIP3   OH2 6704   0.155   5.089   4.515
 2233TIP3    H1 6705   0.125   5.154   4.451
 2233TIP3    H2 6706   0.181   5.014   4.462
 2234TIP3   OH2 6707   0.389   0.891   1.671
 2234TIP3    H1 6708   0.294   0.907   1.669
 2234TIP3    H2 6709   0.398   0.803   1.708
 2235TIP3   OH2 6710   2.101   5.595   2.675
 2235TIP3    H1 6711   2.082   5.543   2.753
 2235TIP3    H2 6712   2.114   5.530   2.605
 2236TIP3   OH2 6713   4.572   2.412   2.160
 2236TIP3    H1 6714   4.532   2.325   2.157
 2236TIP3    H2 6715   4.577   2.432   2.254
 2237TIP3   OH2 6716   4.254   4.994   4.196
 2237TIP3    H1 6717   4.235   4.902   4.211
 2237TIP3    H2 6718   4.204   5.040   4.264
 2238TIP3   OH2 6719   4.489   1.288   0.484
 2238TIP3    H1 6720   4.399   1.297   0.452
 2238TIP3    H2 6721   4.497   1.195   0.506
 2239TIP3   OH2 6722   6.326   1.036   0.919
 2239TIP3    H1 6723   6.346   0.944   0.935
 2239TIP3    H2 6724   6.377   1.083   0.984
 2240TIP3   OH2 6725   4.352   1.590   2.726
 2240TIP3    H1 6726   4.409   1.666   2.713
 2240TIP3    H2 6727   4.397   1.537   2.792
 2241TIP3   OH2 6728   2.799   2.734   0.346
 2241TIP3    H1 6729   2.750   2.811   0.373
 2241TIP3    H2 6730   2.830   2.754   0.258
 2242TIP3   OH2 6731   5.771   1.382   0.342
 2242TIP3    H1 6732   5.865   1.369   0.337
 2242TIP3    H2 6733   5.755   1.408   0.432
 2243TIP3   OH2 6734   6.160   1.616   4.463
 2243TIP3    H1 6735   6.212   1.616   4.383
 2243TIP3    H2 6736   6.088   1.556   4.445
 2244TIP3   OH2 6737   0.791   5.662   2.568
 2244TIP3    H1 6738   0.834   5.713   2.500
 2244TIP3    H2 6739   0.726   5.610   2.521
 2245TIP3   OH2 6740   5.004   4.531   4.721
 2245TIP3    H1 6741   4.980   4.565   4.808
 2245TIP3    H2 6742   5.061   4.457   4.739
 2246TIP3   OH2 6743   0.995   0.799   1.393
 2246TIP3    H1 6744   1.075   0.848   1.413
 2246TIP3    H2 6745   0.930   0.867   1.374
 2247TIP3   OH2 6746   0.889   0.112   1.607
 2247TIP3    H1 6747   0.950   0.075   1.543
 2247TIP3    H2 6748   0.815   0.143   1.554
 2248TIP3   OH2 6749   2.273   0.604   4.236
 2248TIP3    H1 6750   2.204   0.669   4.225
 2248TIP3    H2 6751   2.234   0.522   4.208
 2249TIP3   OH2 6752   0.554   3.780   1.284
 2249TIP3    H1 6753   0.616   3.713   1.257
 2249TIP3    H2 6754   0.601   3.863   1.274
 2250TIP3   OH2 6755   1.665   4.887   4.250
 2250TIP3    H1 6756   1.683   4.944   4.325
 2250TIP3    H2 6757   1.638   4.947   4.181
 2251TIP3   OH2 6758   4.348   4.888   3.971
 2251TIP3    H1 6759   4.419   4.825   3.985
 2251TIP3    H2 6760   4.326   4.918   4.060
 2252TIP3   OH2 6761   3.690   1.715   2.563
 2252TIP3    H1 6762   3.673   1.803   2.598
 2252TIP3    H2 6763   3.641   1.713   2.481
 2253TIP3   OH2 6764   2.449   2.533   4.276
 2253TIP3    H1 6765   2.357   2.540   4.251
 2253TIP3    H2 6766   2.453   2.571   4.364
 2254TIP3   OH2 6767   5.727   2.867   5.171
 2254TIP3    H1 6768   5.755   2.954   5.141
 2254TIP3    H2 6769   5.705   2.820   5.091
 2255TIP3   OH2 6770   3.177   1.084   2.383
 2255TIP3    H1 6771   3.195   1.094   2.476
 2255TIP3    H2 6772   3.194   0.992   2.364
 2256TIP3   OH2 6773   2.598   4.945   0.054
 2256TIP3    H1 6774   2.556   4.959  -0.031
 2256TIP3    H2 6775   2.630   5.031   0.079
 2257TIP3   OH2 6776   5.013   1.079   4.397
 2257TIP3    H1 6777   4.997   1.067   4.303
 2257TIP3    H2 6778   5.075   1.010   4.419
 2258TIP3   OH2 6779   2.837   4.077   3.540
 2258TIP3    H1 6780   2.833   4.158   3.591
 2258TIP3    H2 6781   2.850   4.008   3.606
 2259TIP3   OH2 6782   2.591   5.383   0.313
 2259TIP3    H1 6783   2.594   5.479   0.317
 2259TIP3    H2 6784   2.508   5.360   0.355
 2260TIP3   OH2 6785   0.860   2.741   2.710
 2260TIP3    H1 6786   0.817   2.761   2.627
 2260TIP3    H2 6787   0.833   2.651   2.730
 2261TIP3   OH2 6788   2.966   1.669   2.627
 2261TIP3    H1 6789   3.028   1.722   2.576
 2261TIP3    H2 6790   2.911   1.627   2.561
 2262TIP3   OH2 6791   2.714   4.226   2.784
 2262TIP3    H1 6792   2.784   4.287   2.807
 2262TIP3    H2 6793   2.659   4.223   2.862
 2263TIP3   OH2 6794   4.637   5.683   5.138
 2263TIP3    H1 6795   4.585   5.677   5.058
 2263TIP3    H2 6796   4.670   5.772   5.139
 2264TIP3   OH2 6797   3.939   3.496   1.993
 2264TIP3    H1 6798   3.948   3.565   1.927
 2264TIP3    H2 6799   3.975   3.418   1.951
 2265TIP3   OH2 6800   2.167   1.491   2.277
 2265TIP3    H1 6801   2.240   1.516   2.220
 2265TIP3    H2 6802   2.091   1.491   2.219
 2266TIP3   OH2 6803   4.510   1.321   2.201
 2266TIP3    H1 6804   4.506   1.296   2.293
 2266TIP3    H2 6805   4.472   1.409   2.198
 2267TIP3   OH2 6806   5.474   2.631   1.457
 2267TIP3    H1 6807   5.543   2.586   1.410
 2267TIP3    H2 6808   5.434   2.689   1.392
 2268TIP3   OH2 6809   4.979   1.548   2.534
 2268TIP3    H1 6810   4.941   1.562   2.621
 2268TIP3    H2 6811   4.981   1.453   2.524
 2269TIP3   OH2 6812   4.996   1.532   0.836
 2269TIP3    H1 6813   5.008   1.532   0.741
 2269TIP3    H2 6814   4.953   1.616   0.854
 2270TIP3   OH2 6815   0.455   0.443   3.248
 2270TIP3    H1 6816   0.541   0.437   3.205
 2270TIP3    H2 6817   0.393   0.448   3.176
 2271TIP3   OH2 6818   2.386   5.943   3.513
 2271TIP3    H1 6819   2.414   6.001   3.443
 2271TIP3    H2 6820   2.420   5.857   3.489
 2272TIP3   OH2 6821   4.503   2.657   0.085
 2272TIP3    H1 6822   4.550   2.731   0.121
 2272TIP3    H2 6823   4.422   2.695   0.050
 2273TIP3   OH2 6824   2.400   0.648   4.734
 2273TIP3    H1 6825   2.418   0.735   4.697
 2273TIP3    H2 6826   2.408   0.588   4.660
 2274TIP3   OH2 6827   3.146   4.549   3.335
 2274TIP3    H1 6828   3.158   4.552   3.240
 2274TIP3    H2 6829   3.233   4.529   3.369
 2275TIP3   OH2 6830   5.955   2.853   1.364
 2275TIP3    H1 6831   5.963   2.949   1.367
 2275TIP3    H2 6832   5.885   2.833   1.427
 2276TIP3   OH2 6833   2.411   0.659   1.834
 2276TIP3    H1 6834   2.390   0.699   1.750
 2276TIP3    H2 6835   2.391   0.726   1.899
 2277TIP3   OH2 6836   4.673   0.739   2.825
 2277TIP3    H1 6837   4.630   0.665   2.782
 2277TIP3    H2 6838   4.694   0.799   2.753
 2278TIP3   OH2 6839   1.560   3.824   2.893
 2278TIP3    H1 6840   1.637   3.868   2.929
 2278TIP3    H2 6841   1.560   3.847   2.800
 2279TIP3   OH2 6842   6.252   1.222   2.558
 2279TIP3    H1 6843   6.261   1.150   2.496
 2279TIP3    H2 6844   6.337   1.227   2.601
 2280TIP3   OH2 6845   1.285   3.354   1.666
 2280TIP3    H1 6846   1.278   3.297   1.590
 2280TIP3    H2 6847   1.194   3.374   1.689
 2281TIP3   OH2 6848   3.331   1.438   0.693
 2281TIP3    H1 6849   3.418   1.458   0.656
 2281TIP3    H2 6850   3.280   1.517   0.678
 2282TIP3   OH2 6851   1.402   1.116   1.889
 2282TIP3    H1 6852   1.332   1.051   1.881
 2282TIP3    H2 6853   1.397   1.166   1.807
 2283TIP3   OH2 6854   1.788   1.529   2.657
 2283TIP3    H1 6855   1.787   1.442   2.698
 2283TIP3    H2 6856   1.726   1.581   2.707
 2284TIP3   OH2 6857   0.343   1.813   3.768
 2284TIP3    H1 6858   0.347   1.897   3.722
 2284TIP3    H2 6859   0.435   1.789   3.781
 2285TIP3   OH2 6860   5.073   4.503   0.290
 2285TIP3    H1 6861   5.102   4.432   0.233
 2285TIP3    H2 6862   5.006   4.549   0.238
 2286TIP3   OH2 6863   5.450   3.976   0.371
 2286TIP3    H1 6864   5.375   3.917   0.382
 2286TIP3    H2 6865   5.410   4.061   0.352
 2287TIP3   OH2 6866   1.578   3.298   1.092
 2287TIP3    H1 6867   1.513   3.310   1.023
 2287TIP3    H2 6868   1.619   3.214   1.072
 2288TIP3   OH2 6869   3.578   5.951   4.633
 2288TIP3    H1 6870   3.519   5.929   4.562
 2288TIP3    H2 6871   3.629   5.871   4.646
 2289TIP3   OH2 6872   1.711   3.437   3.327
 2289TIP3    H1 6873   1.702   3.517   3.274
 2289TIP3    H2 6874   1.803   3.436   3.353
 2290TIP3   OH2 6875   3.543   1.762   0.901
 2290TIP3    H1 6876   3.624   1.771   0.953
 2290TIP3    H2 6877   3.476   1.740   0.966
 2291TIP3   OH2 6878   1.328   4.655   4.555
 2291TIP3    H1 6879   1.241   4.656   4.596
 2291TIP3    H2 6880   1.353   4.748   4.551
 2292TIP3   OH2 6881   2.942   1.388   1.169
 2292TIP3    H1 6882   2.916   1.318   1.229
 2292TIP3    H2 6883   2.859   1.422   1.136
 2293TIP3   OH2 6884   6.003   4.037   4.807
 2293TIP3    H1 6885   5.911   4.053   4.827
 2293TIP3    H2 6886   6.042   4.010   4.890
 2294TIP3   OH2 6887   0.176   1.812   1.285
 2294TIP3    H1 6888   0.153   1.860   1.205
 2294TIP3    H2 6889   0.108   1.835   1.348
 2295TIP3   OH2 6890   0.587   4.228   1.342
 2295TIP3    H1 6891   0.547   4.191   1.420
 2295TIP3    H2 6892   0.607   4.153   1.286
 2296TIP3   OH2 6893   5.191   4.201   0.157
 2296TIP3    H1 6894   5.171   4.123   0.208
 2296TIP3    H2 6895   5.107   4.228   0.120
 2297TIP3   OH2 6896   4.183   5.801   2.435
 2297TIP3    H1 6897   4.121   5.823   2.505
 2297TIP3    H2 6898   4.170   5.707   2.421
 2298TIP3   OH2 6899   1.583   4.645   2.379
 2298TIP3    H1 6900   1.570   4.730   2.336
 2298TIP3    H2 6901   1.644   4.599   2.322
 2299TIP3   OH2 6902   2.388   5.401   1.852
 2299TIP3    H1 6903   2.358   5.483   1.890
 2299TIP3    H2 6904   2.313   5.342   1.858
 2300TIP3   OH2 6905   1.623   4.715   0.237
 2300TIP3    H1 6906   1.668   4.760   0.165
 2300TIP3    H2 6907   1.587   4.636   0.197
 2301TIP3   OH2 6908   2.196   1.272   2.475
 2301TIP3    H1 6909   2.146   1.259   2.394
 2301TIP3    H2 6910   2.178   1.362   2.500
 2302TIP3   OH2 6911   4.986   2.207   4.067
 2302TIP3    H1 6912   4.930   2.180   4.140
 2302TIP3    H2 6913   4.924   2.224   3.996
 2303TIP3   OH2 6914   1.199   2.847   2.825
 2303TIP3    H1 6915   1.273   2.786   2.837
 2303TIP3    H2 6916   1.152   2.843   2.909
 2304TIP3   OH2 6917   3.777   2.026   3.284
 2304TIP3    H1 6918   3.784   2.038   3.378
 2304TIP3    H2 6919   3.771   1.932   3.271
 2305TIP3   OH2 6920   5.201   5.896   4.323
 2305TIP3    H1 6921   5.117   5.901   4.367
 2305TIP3    H2 6922   5.185   5.931   4.235
 2306TIP3   OH2 6923   0.969   0.264   0.640
 2306TIP3    H1 6924   0.929   0.306   0.716
 2306TIP3    H2 6925   0.904   0.273   0.571
 2307TIP3   OH2 6926   2.416   3.000   1.489
 2307TIP3    H1 6927   2.376   2.978   1.405
 2307TIP3    H2 6928   2.510   2.998   1.473
 2308TIP3   OH2 6929   5.722   5.028   3.260
 2308TIP3    H1 6930   5.776   5.107   3.258
 2308TIP3    H2 6931   5.679   5.025   3.175
 2309TIP3   OH2 6932   3.610   3.992   0.702
 2309TIP3    H1 6933   3.600   4.086   0.691
 2309TIP3    H2 6934   3.693   3.982   0.748
 2310TIP3   OH2 6935   0.638   5.560   0.362
 2310TIP3    H1 6936   0.581   5.633   0.336
 2310TIP3    H2 6937   0.590   5.515   0.432
 2311TIP3   OH2 6938   0.262   0.292   2.116
 2311TIP3    H1 6939   0.260   0.331   2.029
 2311TIP3    H2 6940   0.204   0.346   2.169
 2312TIP3   OH2 6941   1.199   5.942   0.752
 2312TIP3    H1 6942   1.108   5.914   0.758
 2312TIP3    H2 6943   1.240   5.879   0.693
 2313TIP3   OH2 6944   6.082   1.462   2.796
 2313TIP3    H1 6945   6.161   1.513   2.776
 2313TIP3    H2 6946   6.101   1.421   2.880
 2314TIP3   OH2 6947   0.633   3.693   0.225
 2314TIP3    H1 6948   0.632   3.606   0.267
 2314TIP3    H2 6949   0.547   3.730   0.247
 2315TIP3   OH2 6950   5.505   4.013   3.781
 2315TIP3    H1 6951   5.589   4.025   3.736
 2315TIP3    H2 6952   5.456   3.954   3.725
 2316TIP3   OH2 6953   3.284   4.018   4.920
 2316TIP3    H1 6954   3.272   4.009   4.825
 2316TIP3    H2 6955   3.329   4.102   4.931
 2317TIP3   OH2 6956   5.377   5.104   3.116
 2317TIP3    H1 6957   5.409   5.087   3.027
 2317TIP3    H2 6958   5.286   5.075   3.115
 2318TIP3   OH2 6959   1.300   1.346   2.121
 2318TIP3    H1 6960   1.385   1.355   2.078
 2318TIP3    H2 6961   1.270   1.436   2.135
 2319TIP3   OH2 6962   2.514   5.024   3.345
 2319TIP3    H1 6963   2.444   5.049   3.284
 2319TIP3    H2 6964   2.594   5.031   3.293
 2320TIP3   OH2 6965   4.285   2.585   0.599
 2320TIP3    H1 6966   4.304   2.500   0.559
 2320TIP3    H2 6967   4.218   2.567   0.664
 2321TIP3   OH2 6968   3.315   5.607   2.602
 2321TIP3    H1 6969   3.371   5.684   2.591
 2321TIP3    H2 6970   3.234   5.641   2.639
 2322TIP3   OH2 6971   5.145   4.250   0.986
 2322TIP3    H1 6972   5.049   4.258   0.982
 2322TIP3    H2 6973   5.177   4.313   0.922
 2323TIP3   OH2 6974   5.231   1.719   0.889
 2323TIP3    H1 6975   5.282   1.786   0.935
 2323TIP3    H2 6976   5.151   1.710   0.940
 2324TIP3   OH2 6977   4.322   1.985   4.943
 2324TIP3    H1 6978   4.341   1.936   4.863
 2324TIP3    H2 6979   4.407   1.992   4.987
 2325TIP3   OH2 6980   5.367   2.423   1.181
 2325TIP3    H1 6981   5.443   2.423   1.240
 2325TIP3    H2 6982   5.306   2.362   1.220
 2326TIP3   OH2 6983   4.775   3.843   2.988
 2326TIP3    H1 6984   4.778   3.821   3.082
 2326TIP3    H2 6985   4.739   3.932   2.986
 2327TIP3   OH2 6986   0.062   1.877   4.523
 2327TIP3    H1 6987   0.017   1.793   4.529
 2327TIP3    H2 6988   0.102   1.876   4.436
 2328TIP3   OH2 6989   3.611   1.897   0.455
 2328TIP3    H1 6990   3.673   1.902   0.528
 2328TIP3    H2 6991   3.526   1.881   0.496
 2329TIP3   OH2 6992   2.026   4.740   4.411
 2329TIP3    H1 6993   2.016   4.773   4.322
 2329TIP3    H2 6994   1.937   4.722   4.441
 2330TIP3   OH2 6995   6.064   0.837   4.982
 2330TIP3    H1 6996   5.985   0.798   5.020
 2330TIP3    H2 6997   6.132   0.771   4.996
 2331TIP3   OH2 6998   2.495   1.826   1.503
 2331TIP3    H1 6999   2.439   1.762   1.547
 2331TIP3    H2 7000   2.558   1.852   1.570
 2332TIP3   OH2 7001   5.654   3.822   1.493
 2332TIP3    H1 7002   5.637   3.740   1.447
 2332TIP3    H2 7003   5.633   3.891   1.430
 2333TIP3   OH2 7004   5.360   0.881   4.371
 2333TIP3    H1 7005   5.389   0.879   4.280
 2333TIP3    H2 7006   5.270   0.848   4.368
 2334TIP3   OH2 7007   3.723   2.772   4.818
 2334TIP3    H1 7008   3.743   2.731   4.902
 2334TIP3    H2 7009   3.672   2.707   4.771
 2335TIP3   OH2 7010   1.771   0.024   4.476
 2335TIP3    H1 7011   1.862  -0.006   4.473
 2335TIP3    H2 7012   1.737   0.008   4.389
 2336TIP3   OH2 7013   1.950   3.824   0.980
 2336TIP3    H1 7014   1.886   3.823   1.051
 2336TIP3    H2 7015   2.031   3.853   1.020
 2337TIP3   OH2 7016   5.537   5.183   1.906
 2337TIP3    H1 7017   5.630   5.199   1.893
 2337TIP3    H2 7018   5.507   5.144   1.824
 2338TIP3   OH2 7019   6.205   0.541   4.487
 2338TIP3    H1 7020   6.127   0.553   4.541
 2338TIP3    H2 7021   6.221   0.446   4.489
 2339TIP3   OH2 7022   0.849   0.749   4.286
 2339TIP3    H1 7023   0.887   0.692   4.219
 2339TIP3    H2 7024   0.771   0.702   4.316
 2340TIP3   OH2 7025   2.785   0.171   4.461
 2340TIP3    H1 7026   2.791   0.191   4.554
 2340TIP3    H2 7027   2.845   0.098   4.447
 2341TIP3   OH2 7028   5.316   3.251   0.549
 2341TIP3    H1 7029   5.339   3.160   0.530
 2341TIP3    H2 7030   5.395   3.288   0.588
 2342TIP3   OH2 7031   4.744   5.583   4.839
 2342TIP3    H1 7032   4.749   5.675   4.812
 2342TIP3    H2 7033   4.742   5.534   4.757
 2343TIP3   OH2 7034   4.133   3.920   3.592
 2343TIP3    H1 7035   4.094   3.856   3.652
 2343TIP3    H2 7036   4.219   3.883   3.572
 2344TIP3   OH2 7037   3.138   4.078   0.452
 2344TIP3    H1 7038   3.152   4.149   0.389
 2344TIP3    H2 7039   3.226   4.055   0.483
 2345TIP3   OH2 7040   2.557   3.989   3.387
 2345TIP3    H1 7041   2.520   4.046   3.455
 2345TIP3    H2 7042   2.652   4.000   3.395
 2346TIP3   OH2 7043   5.410   4.364   0.047
 2346TIP3    H1 7044   5.466   4.305  -0.004
 2346TIP3    H2 7045   5.341   4.307   0.082
 2347TIP3   OH2 7046   5.317   0.969   3.516
 2347TIP3    H1 7047   5.246   0.988   3.455
 2347TIP3    H2 7048   5.282   0.900   3.572
 2348TIP3   OH2 7049   3.925   0.204   4.462
 2348TIP3    H1 7050   3.954   0.276   4.407
 2348TIP3    H2 7051   3.862   0.156   4.408
 2349TIP3   OH2 7052   4.010   1.551   3.505
 2349TIP3    H1 7053   4.058   1.518   3.581
 2349TIP3    H2 7054   3.935   1.492   3.497
 2350TIP3   OH2 7055   1.571   2.420   0.264
 2350TIP3    H1 7056   1.618   2.336   0.264
 2350TIP3    H2 7057   1.620   2.474   0.325
 2351TIP3   OH2 7058   2.359   0.126   2.647
 2351TIP3    H1 7059   2.378   0.214   2.613
 2351TIP3    H2 7060   2.420   0.069   2.599
 2352TIP3   OH2 7061   0.152   1.274   3.179
 2352TIP3    H1 7062   0.128   1.334   3.250
 2352TIP3    H2 7063   0.206   1.207   3.221
 2353TIP3   OH2 7064   4.448   5.707   4.926
 2353TIP3    H1 7065   4.495   5.750   4.854
 2353TIP3    H2 7066   4.434   5.617   4.895
 2354TIP3   OH2 7067   1.530   0.552   3.456
 2354TIP3    H1 7068   1.513   0.458   3.444
 2354TIP3    H2 7069   1.506   0.570   3.546
 2355TIP3   OH2 7070   1.557   0.341   0.394
 2355TIP3    H1 7071   1.522   0.262   0.435
 2355TIP3    H2 7072   1.538   0.331   0.301
 2356TIP3   OH2 7073   1.471   0.468   4.457
 2356TIP3    H1 7074   1.534   0.427   4.398
 2356TIP3    H2 7075   1.419   0.525   4.402
 2357TIP3   OH2 7076   3.378   1.953   4.952
 2357TIP3    H1 7077   3.374   1.865   4.988
 2357TIP3    H2 7078   3.435   1.945   4.875
 2358TIP3   OH2 7079   4.921   4.246   3.676
 2358TIP3    H1 7080   4.936   4.309   3.745
 2358TIP3    H2 7081   5.007   4.236   3.634
 2359TIP3   OH2 7082   3.397   2.194   1.636
 2359TIP3    H1 7083   3.380   2.223   1.546
 2359TIP3    H2 7084   3.473   2.136   1.629
 2360TIP3   OH2 7085   1.209   5.950   4.053
 2360TIP3    H1 7086   1.237   6.012   3.987
 2360TIP3    H2 7087   1.162   5.882   4.004
 2361TIP3   OH2 7088   2.034   3.047   0.645
 2361TIP3    H1 7089   2.101   3.036   0.713
 2361TIP3    H2 7090   2.079   3.096   0.576
 2362TIP3   OH2 7091   0.689   3.739   4.985
 2362TIP3    H1 7092   0.734   3.822   5.000
 2362TIP3    H2 7093   0.753   3.685   4.940
 2363TIP3   OH2 7094   1.052   1.098   3.667
 2363TIP3    H1 7095   1.136   1.104   3.622
 2363TIP3    H2 7096   1.042   1.006   3.690
 2364TIP3   OH2 7097   3.263   0.213   1.280
 2364TIP3    H1 7098   3.319   0.233   1.205
 2364TIP3    H2 7099   3.176   0.243   1.254
 2365TIP3   OH2 7100   3.032   1.138   4.706
 2365TIP3    H1 7101   2.949   1.176   4.679
 2365TIP3    H2 7102   3.079   1.211   4.747
 2366TIP3   OH2 7103   5.180   2.025   2.521
 2366TIP3    H1 7104   5.092   2.041   2.488
 2366TIP3    H2 7105   5.189   1.930   2.522
 2367TIP3   OH2 7106   2.695   3.732   3.705
 2367TIP3    H1 7107   2.620   3.777   3.743
 2367TIP3    H2 7108   2.769   3.792   3.716
 2368TIP3   OH2 7109   1.201   3.971   1.810
 2368TIP3    H1 7110   1.278   4.028   1.807
 2368TIP3    H2 7111   1.228   3.891   1.764
 2369TIP3   OH2 7112   5.657   3.932   2.001
 2369TIP3    H1 7113   5.641   3.947   1.908
 2369TIP3    H2 7114   5.751   3.942   2.011
 2370TIP3   OH2 7115   5.332   1.498   2.510
 2370TIP3    H1 7116   5.362   1.441   2.439
 2370TIP3    H2 7117   5.388   1.576   2.504
 2371TIP3   OH2 7118   5.835   0.972   3.730
 2371TIP3    H1 7119   5.827   0.877   3.723
 2371TIP3    H2 7120   5.762   1.006   3.678
 2372TIP3   OH2 7121   3.846   3.883   4.010
 2372TIP3    H1 7122   3.895   3.962   3.988
 2372TIP3    H2 7123   3.790   3.909   4.083
 2373TIP3   OH2 7124   1.879   0.561   2.236
 2373TIP3    H1 7125   1.959   0.592   2.278
 2373TIP3    H2 7126   1.810   0.582   2.299
 2374TIP3   OH2 7127   5.207   5.144   1.625
 2374TIP3    H1 7128   5.151   5.221   1.624
 2374TIP3    H2 7129   5.146   5.070   1.616
 2375TIP3   OH2 7130   5.615   0.129   2.254
 2375TIP3    H1 7131   5.591   0.140   2.162
 2375TIP3    H2 7132   5.588   0.039   2.275
 2376TIP3   OH2 7133   1.975   2.626   1.008
 2376TIP3    H1 7134   2.008   2.584   1.088
 2376TIP3    H2 7135   1.969   2.555   0.944
 2377TIP3   OH2 7136   1.123   4.397   2.333
 2377TIP3    H1 7137   1.203   4.450   2.326
 2377TIP3    H2 7138   1.135   4.327   2.269
 2378TIP3   OH2 7139   2.991   2.186   3.169
 2378TIP3    H1 7140   3.016   2.093   3.174
 2378TIP3    H2 7141   2.922   2.196   3.234
 2379TIP3   OH2 7142   2.817   2.823   0.073
 2379TIP3    H1 7143   2.761   2.864   0.007
 2379TIP3    H2 7144   2.863   2.754   0.026
 2380TIP3   OH2 7145   3.213   0.107   2.610
 2380TIP3    H1 7146   3.232   0.148   2.525
 2380TIP3    H2 7147   3.121   0.083   2.604
 2381TIP3   OH2 7148   3.124   5.484   0.996
 2381TIP3    H1 7149   3.128   5.553   0.929
 2381TIP3    H2 7150   3.215   5.460   1.011
 2382TIP3   OH2 7151   5.429   3.814   3.271
 2382TIP3    H1 7152   5.348   3.770   3.294
 2382TIP3    H2 7153   5.481   3.813   3.351
 2383TIP3   OH2 7154   1.608   4.598   1.378
 2383TIP3    H1 7155   1.649   4.575   1.295
 2383TIP3    H2 7156   1.514   4.586   1.362
 2384TIP3   OH2 7157   1.244   5.927   0.443
 2384TIP3    H1 7158   1.307   5.898   0.377
 2384TIP3    H2 7159   1.170   5.960   0.392
 2385TIP3   OH2 7160   4.829   0.364   1.816
 2385TIP3    H1 7161   4.882   0.290   1.846
 2385TIP3    H2 7162   4.890   0.437   1.811
 2386TIP3   OH2 7163   4.517   5.656   1.007
 2386TIP3    H1 7164   4.471   5.616   0.933
 2386TIP3    H2 7165   4.560   5.583   1.051
 2387TIP3   OH2 7166   2.051   4.274   0.978
 2387TIP3    H1 7167   1.987   4.247   1.044
 2387TIP3    H2 7168   2.022   4.230   0.898
 2388TIP3   OH2 7169   3.318   2.448   0.708
 2388TIP3    H1 7170   3.385   2.408   0.765
 2388TIP3    H2 7171   3.353   2.535   0.688
 2389TIP3   OH2 7172   0.708   5.123   0.672
 2389TIP3    H1 7173   0.766   5.141   0.746
 2389TIP3    H2 7174   0.752   5.161   0.597
 2390TIP3   OH2 7175   1.888   5.229   4.195
 2390TIP3    H1 7176   1.975   5.195   4.215
 2390TIP3    H2 7177   1.851   5.166   4.133
 2391TIP3   OH2 7178   1.292   4.963   0.526
 2391TIP3    H1 7179   1.359   4.935   0.587
 2391TIP3    H2 7180   1.288   4.894   0.460
 2392TIP3   OH2 7181   4.680   2.870   2.991
 2392TIP3    H1 7182   4.708   2.785   2.955
 2392TIP3    H2 7183   4.601   2.892   2.941
 2393TIP3   OH2 7184   0.590   4.677   1.094
 2393TIP3    H1 7185   0.539   4.709   1.020
 2393TIP3    H2 7186   0.597   4.582   1.079
 2394TIP3   OH2 7187   4.840   1.283   1.608
 2394TIP3    H1 7188   4.848   1.335   1.688
 2394TIP3    H2 7189   4.920   1.301   1.559
 2395TIP3   OH2 7190   5.494   4.567   3.832
 2395TIP3    H1 7191   5.490   4.564   3.927
 2395TIP3    H2 7192   5.498   4.475   3.805
 2396TIP3   OH2 7193   1.111   2.509   2.870
 2396TIP3    H1 7194   1.106   2.541   2.780
 2396TIP3    H2 7195   1.204   2.514   2.892
 2397TIP3   OH2 7196   2.165   2.539   0.334
 2397TIP3    H1 7197   2.219   2.546   0.255
 2397TIP3    H2 7198   2.172   2.625   0.375
 2398TIP3   OH2 7199   4.765   5.934   5.070
 2398TIP3    H1 7200   4.675   5.966   5.063
 2398TIP3    H2 7201   4.791   5.917   4.979
 2399TIP3   OH2 7202   3.086   2.450   1.490
 2399TIP3    H1 7203   3.041   2.455   1.406
 2399TIP3    H2 7204   3.133   2.533   1.497
 2400TIP3   OH2 7205   3.996   1.754   3.011
 2400TIP3    H1 7206   4.088   1.771   3.031
 2400TIP3    H2 7207   3.993   1.744   2.916
 2401TIP3   OH2 7208   3.128   4.723   1.037
 2401TIP3    H1 7209   3.192   4.742   1.106
 2401TIP3    H2 7210   3.044   4.724   1.082
 2402TIP3   OH2 7211   1.198   4.795   1.132
 2402TIP3    H1 7212   1.280   4.843   1.142
 2402TIP3    H2 7213   1.221   4.703   1.146
 2403TIP3   OH2 7214   5.356   1.559   0.585
 2403TIP3    H1 7215   5.326   1.509   0.661
 2403TIP3    H2 7216   5.276   1.585   0.540
 2404TIP3   OH2 7217   2.547   5.350   4.806
 2404TIP3    H1 7218   2.483   5.411   4.769
 2404TIP3    H2 7219   2.515   5.331   4.893
 2405TIP3   OH2 7220   5.589   0.213   4.667
 2405TIP3    H1 7221   5.611   0.122   4.648
 2405TIP3    H2 7222   5.496   0.221   4.643
 2406TIP3   OH2 7223   2.428   4.452   2.981
 2406TIP3    H1 7224   2.444   4.452   2.887
 2406TIP3    H2 7225   2.515   4.455   3.020
 2407TIP3   OH2 7226   0.732   4.700   3.206
 2407TIP3    H1 7227   0.642   4.688   3.176
 2407TIP3    H2 7228   0.786   4.685   3.129
 2408TIP3   OH2 7229   0.942   4.991   2.775
 2408TIP3    H1 7230   0.922   4.942   2.694
 2408TIP3    H2 7231   0.869   4.970   2.833
 2409TIP3   OH2 7232   1.474   1.992   5.103
 2409TIP3    H1 7233   1.417   2.063   5.131
 2409TIP3    H2 7234   1.517   2.025   5.024
 2410TIP3   OH2 7235   2.720   5.798   0.434
 2410TIP3    H1 7236   2.770   5.863   0.484
 2410TIP3    H2 7237   2.753   5.714   0.465
 2411TIP3   OH2 7238   1.970   1.763   3.066
 2411TIP3    H1 7239   1.972   1.726   3.155
 2411TIP3    H2 7240   2.062   1.778   3.044
 2412TIP3   OH2 7241   6.365   5.395   2.635
 2412TIP3    H1 7242   6.279   5.373   2.598
 2412TIP3    H2 7243   6.347   5.465   2.698
 2413TIP3   OH2 7244   6.185   4.733   3.876
 2413TIP3    H1 7245   6.243   4.657   3.881
 2413TIP3    H2 7246   6.174   4.749   3.783
 2414TIP3   OH2 7247   1.806   3.263   1.480
 2414TIP3    H1 7248   1.711   3.262   1.483
 2414TIP3    H2 7249   1.833   3.268   1.572
 2415TIP3   OH2 7250   2.078   3.036   0.269
 2415TIP3    H1 7251   2.122   2.952   0.284
 2415TIP3    H2 7252   2.123   3.097   0.326
 2416TIP3   OH2 7253   0.125   0.066   2.076
 2416TIP3    H1 7254   0.188   0.138   2.078
 2416TIP3    H2 7255   0.147   0.013   2.153
 2417TIP3   OH2 7256   4.440   1.420  -0.014
 2417TIP3    H1 7257   4.483   1.350   0.036
 2417TIP3    H2 7258   4.488   1.499   0.009
 2418TIP3   OH2 7259   3.043   1.806   0.899
 2418TIP3    H1 7260   2.951   1.833   0.901
 2418TIP3    H2 7261   3.041   1.713   0.877
 2419TIP3   OH2 7262   2.726   2.469   2.168
 2419TIP3    H1 7263   2.813   2.445   2.197
 2419TIP3    H2 7264   2.734   2.561   2.142
 2420TIP3   OH2 7265   4.568   2.904   4.122
 2420TIP3    H1 7266   4.639   2.864   4.173
 2420TIP3    H2 7267   4.613   2.950   4.052
 2421TIP3   OH2 7268   3.690   2.288   2.904
 2421TIP3    H1 7269   3.632   2.213   2.893
 2421TIP3    H2 7270   3.778   2.251   2.904
 2422TIP3   OH2 7271   3.943   1.067   4.391
 2422TIP3    H1 7272   3.981   1.066   4.479
 2422TIP3    H2 7273   3.910   0.978   4.378
 2423TIP3   OH2 7274   5.565   3.101   0.714
 2423TIP3    H1 7275   5.570   3.095   0.809
 2423TIP3    H2 7276   5.575   3.194   0.695
 2424TIP3   OH2 7277   0.979   4.087   1.940
 2424TIP3    H1 7278   1.053   4.050   1.892
 2424TIP3    H2 7279   0.916   4.015   1.948
 2425TIP3   OH2 7280   4.649   2.838   0.824
 2425TIP3    H1 7281   4.588   2.911   0.814
 2425TIP3    H2 7282   4.594   2.760   0.826
 2426TIP3   OH2 7283   2.714   1.608   1.413
 2426TIP3    H1 7284   2.685   1.671   1.479
 2426TIP3    H2 7285   2.692   1.650   1.329
 2427TIP3   OH2 7286   3.281   2.952   4.021
 2427TIP3    H1 7287   3.361   2.934   3.971
 2427TIP3    H2 7288   3.313   2.978   4.108
 2428TIP3   OH2 7289   4.469   4.116   1.324
 2428TIP3    H1 7290   4.425   4.036   1.294
 2428TIP3    H2 7291   4.557   4.088   1.348
 2429TIP3   OH2 7292   1.835   5.479   3.793
 2429TIP3    H1 7293   1.857   5.538   3.864
 2429TIP3    H2 7294   1.766   5.423   3.828
 2430TIP3   OH2 7295   6.138   2.719   3.997
 2430TIP3    H1 7296   6.114   2.797   4.046
 2430TIP3    H2 7297   6.132   2.744   3.905
 2431TIP3   OH2 7298   5.127   0.452   4.392
 2431TIP3    H1 7299   5.077   0.511   4.336
 2431TIP3    H2 7300   5.218   0.476   4.377
 2432TIP3   OH2 7301   0.921   1.189   4.617
 2432TIP3    H1 7302   1.013   1.161   4.611
 2432TIP3    H2 7303   0.871   1.114   4.585
 2433TIP3   OH2 7304   5.821   3.551   2.509
 2433TIP3    H1 7305   5.915   3.540   2.527
 2433TIP3    H2 7306   5.805   3.495   2.433
 2434TIP3   OH2 7307   1.012   3.290   2.088
 2434TIP3    H1 7308   1.011   3.309   2.182
 2434TIP3    H2 7309   0.921   3.268   2.067
 2435TIP3   OH2 7310   1.687   5.112   3.798
 2435TIP3    H1 7311   1.645   5.198   3.806
 2435TIP3    H2 7312   1.639   5.069   3.727
 2436TIP3   OH2 7313   3.709   2.635   4.267
 2436TIP3    H1 7314   3.694   2.547   4.303
 2436TIP3    H2 7315   3.801   2.634   4.240
 2437TIP3   OH2 7316   2.307   4.055   4.457
 2437TIP3    H1 7317   2.300   4.111   4.380
 2437TIP3    H2 7318   2.397   4.021   4.453
 2438TIP3   OH2 7319   5.310   0.220   3.387
 2438TIP3    H1 7320   5.317   0.221   3.482
 2438TIP3    H2 7321   5.216   0.225   3.369
 2439TIP3   OH2 7322   1.231   0.559   1.925
 2439TIP3    H1 7323   1.275   0.552   1.840
 2439TIP3    H2 7324   1.302   0.560   1.989
 2440TIP3   OH2 7325   1.663   4.434   0.946
 2440TIP3    H1 7326   1.708   4.427   0.862
 2440TIP3    H2 7327   1.574   4.403   0.928
 2441TIP3   OH2 7328   1.734   3.731   3.678
 2441TIP3    H1 7329   1.796   3.659   3.689
 2441TIP3    H2 7330   1.716   3.762   3.766
 2442TIP3   OH2 7331   2.755   1.243   0.110
 2442TIP3    H1 7332   2.719   1.291   0.035
 2442TIP3    H2 7333   2.685   1.184   0.137
 2443TIP3   OH2 7334   2.258   5.202   3.506
 2443TIP3    H1 7335   2.338   5.228   3.461
 2443TIP3    H2 7336   2.218   5.284   3.535
 2444TIP3   OH2 7337   0.145   0.909   3.372
 2444TIP3    H1 7338   0.219   0.969   3.365
 2444TIP3    H2 7339   0.175   0.829   3.329
 2445TIP3   OH2 7340   1.336   2.589   2.336
 2445TIP3    H1 7341   1.272   2.520   2.321
 2445TIP3    H2 7342   1.358   2.582   2.429
 2446TIP3   OH2 7343   0.832   0.331   3.696
 2446TIP3    H1 7344   0.739   0.335   3.674
 2446TIP3    H2 7345   0.834   0.303   3.787
 2447TIP3   OH2 7346   2.589   1.626   2.371
 2447TIP3    H1 7347   2.539   1.607   2.450
 2447TIP3    H2 7348   2.637   1.706   2.392
 2448TIP3   OH2 7349   5.011   5.212   0.755
 2448TIP3    H1 7350   4.947   5.269   0.713
 2448TIP3    H2 7351   5.021   5.138   0.695
 2449TIP3   OH2 7352   0.376   5.755   4.631
 2449TIP3    H1 7353   0.391   5.736   4.724
 2449TIP3    H2 7354   0.282   5.745   4.619
 2450TIP3   OH2 7355   2.003   3.549   1.601
 2450TIP3    H1 7356   2.035   3.634   1.572
 2450TIP3    H2 7357   1.972   3.564   1.691
 2451TIP3   OH2 7358   0.281   0.914   4.707
 2451TIP3    H1 7359   0.207   0.854   4.716
 2451TIP3    H2 7360   0.343   0.867   4.652
 2452TIP3   OH2 7361   2.279   3.779   4.167
 2452TIP3    H1 7362   2.361   3.762   4.122
 2452TIP3    H2 7363   2.252   3.866   4.136
 2453TIP3   OH2 7364   6.216   3.913   2.121
 2453TIP3    H1 7365   6.311   3.914   2.127
 2453TIP3    H2 7366   6.190   4.005   2.127
 2454TIP3   OH2 7367   0.080   3.900   3.982
 2454TIP3    H1 7368   0.158   3.893   4.037
 2454TIP3    H2 7369   0.081   3.819   3.930
 2455TIP3   OH2 7370   5.041   5.429   1.620
 2455TIP3    H1 7371   5.094   5.504   1.596
 2455TIP3    H2 7372   4.979   5.463   1.685
 2456TIP3   OH2 7373   4.594   4.012   4.203
 2456TIP3    H1 7374   4.507   4.052   4.199
 2456TIP3    H2 7375   4.578   3.921   4.227
 2457TIP3   OH2 7376   4.864   3.741   0.098
 2457TIP3    H1 7377   4.793   3.716   0.158
 2457TIP3    H2 7378   4.856   3.836   0.089
 2458TIP3   OH2 7379   1.383   4.314   2.122
 2458TIP3    H1 7380   1.348   4.230   2.093
 2458TIP3    H2 7381   1.448   4.292   2.188
 2459TIP3   OH2 7382   5.033   3.515   1.983
 2459TIP3    H1 7383   5.117   3.520   2.027
 2459TIP3    H2 7384   5.005   3.606   1.974
 2460TIP3   OH2 7385   3.978   3.535   0.865
 2460TIP3    H1 7386   3.960   3.456   0.917
 2460TIP3    H2 7387   3.929   3.604   0.908
 2461TIP3   OH2 7388   0.882   3.184   4.283
 2461TIP3    H1 7389   0.801   3.230   4.261
 2461TIP3    H2 7390   0.905   3.217   4.370
 2462TIP3   OH2 7391   6.226   2.396   3.782
 2462TIP3    H1 7392   6.288   2.388   3.854
 2462TIP3    H2 7393   6.249   2.325   3.722
 2463TIP3   OH2 7394   0.994   0.541   4.932
 2463TIP3    H1 7395   1.035   0.626   4.943
 2463TIP3    H2 7396   1.002   0.523   4.838
 2464TIP3   OH2 7397   4.872   4.521   0.559
 2464TIP3    H1 7398   4.873   4.478   0.474
 2464TIP3    H2 7399   4.962   4.550   0.573
 2465TIP3   OH2 7400   2.198   1.059   4.525
 2465TIP3    H1 7401   2.112   1.024   4.549
 2465TIP3    H2 7402   2.239   1.081   4.609
 2466TIP3   OH2 7403   0.762   4.729   4.226
 2466TIP3    H1 7404   0.788   4.815   4.259
 2466TIP3    H2 7405   0.845   4.683   4.212
 2467TIP3   OH2 7406   1.422   2.671   1.512
 2467TIP3    H1 7407   1.470   2.710   1.585
 2467TIP3    H2 7408   1.385   2.746   1.465
 2468TIP3   OH2 7409   6.165   1.784   3.525
 2468TIP3    H1 7410   6.172   1.860   3.583
 2468TIP3    H2 7411   6.073   1.781   3.499
 2469TIP3   OH2 7412   2.695   2.450   1.483
 2469TIP3    H1 7413   2.749   2.392   1.538
 2469TIP3    H2 7414   2.746   2.531   1.477
 2470TIP3   OH2 7415   4.852   5.861   1.516
 2470TIP3    H1 7416   4.760   5.841   1.504
 2470TIP3    H2 7417   4.879   5.903   1.434
 2471TIP3   OH2 7418   0.268   0.302   2.572
 2471TIP3    H1 7419   0.230   0.249   2.642
 2471TIP3    H2 7420   0.218   0.383   2.574
 2472TIP3   OH2 7421   1.071   0.136   1.153
 2472TIP3    H1 7422   1.107   0.129   1.065
 2472TIP3    H2 7423   1.064   0.230   1.169
 2473TIP3   OH2 7424   3.067   2.279   4.762
 2473TIP3    H1 7425   2.990   2.225   4.747
 2473TIP3    H2 7426   3.040   2.368   4.738
 2474TIP3   OH2 7427   4.069   5.852   3.093
 2474TIP3    H1 7428   4.117   5.913   3.149
 2474TIP3    H2 7429   3.982   5.891   3.085
 2475TIP3   OH2 7430   4.947   3.801   5.135
 2475TIP3    H1 7431   4.945   3.882   5.084
 2475TIP3    H2 7432   4.860   3.795   5.173
 2476TIP3   OH2 7433   0.576   5.699   1.610
 2476TIP3    H1 7434   0.516   5.627   1.593
 2476TIP3    H2 7435   0.662   5.658   1.616
 2477TIP3   OH2 7436   3.860   1.294   0.284
 2477TIP3    H1 7437   3.774   1.333   0.300
 2477TIP3    H2 7438   3.922   1.367   0.294
 2478TIP3   OH2 7439   2.490   5.902   0.595
 2478TIP3    H1 7440   2.450   5.821   0.625
 2478TIP3    H2 7441   2.567   5.874   0.545
 2479TIP3   OH2 7442   4.396   1.522   1.301
 2479TIP3    H1 7443   4.435   1.453   1.355
 2479TIP3    H2 7444   4.411   1.493   1.211
 2480TIP3   OH2 7445   1.469   2.108   1.104
 2480TIP3    H1 7446   1.460   2.053   1.182
 2480TIP3    H2 7447   1.561   2.100   1.079
 2481TIP3   OH2 7448   4.016   1.128   3.541
 2481TIP3    H1 7449   3.973   1.131   3.456
 2481TIP3    H2 7450   3.950   1.157   3.603
 2482TIP3   OH2 7451   3.874   2.904   4.201
 2482TIP3    H1 7452   3.902   2.829   4.148
 2482TIP3    H2 7453   3.922   2.895   4.283
 2483TIP3   OH2 7454   4.615   5.367   4.232
 2483TIP3    H1 7455   4.561   5.401   4.162
 2483TIP3    H2 7456   4.597   5.423   4.307
 2484TIP3   OH2 7457   1.869   4.933   2.921
 2484TIP3    H1 7458   1.963   4.921   2.932
 2484TIP3    H2 7459   1.836   4.844   2.906
 2485TIP3   OH2 7460   0.695   0.988   4.056
 2485TIP3    H1 7461   0.618   0.964   4.005
 2485TIP3    H2 7462   0.718   1.076   4.025
 2486TIP3   OH2 7463   3.192   4.928   0.385
 2486TIP3    H1 7464   3.174   5.011   0.341
 2486TIP3    H2 7465   3.223   4.952   0.472
 2487TIP3   OH2 7466   0.606   3.669   2.615
 2487TIP3    H1 7467   0.627   3.582   2.651
 2487TIP3    H2 7468   0.543   3.651   2.546
 2488TIP3   OH2 7469   5.844   4.930   4.037
 2488TIP3    H1 7470   5.930   4.961   4.065
 2488TIP3    H2 7471   5.851   4.921   3.942
 2489TIP3   OH2 7472   4.108   5.931   4.155
 2489TIP3    H1 7473   4.155   5.965   4.231
 2489TIP3    H2 7474   4.177   5.910   4.091
 2490TIP3   OH2 7475   2.607   1.461   3.785
 2490TIP3    H1 7476   2.665   1.389   3.812
 2490TIP3    H2 7477   2.552   1.423   3.718
 2491TIP3   OH2 7478   5.141   5.933   3.337
 2491TIP3    H1 7479   5.208   5.970   3.279
 2491TIP3    H2 7480   5.176   5.945   3.425
 2492TIP3   OH2 7481   6.061   0.508   4.017
 2492TIP3    H1 7482   6.096   0.559   4.091
 2492TIP3    H2 7483   5.996   0.450   4.057
 2493TIP3   OH2 7484   4.902   2.956   3.653
 2493TIP3    H1 7485   4.812   2.947   3.621
 2493TIP3    H2 7486   4.893   2.971   3.747
 2494TIP3   OH2 7487   6.116   0.063   2.044
 2494TIP3    H1 7488   6.111   0.007   2.121
 2494TIP3    H2 7489   6.123   0.152   2.080
 2495TIP3   OH2 7490   2.717   3.180   2.136
 2495TIP3    H1 7491   2.716   3.193   2.041
 2495TIP3    H2 7492   2.696   3.087   2.147
 2496TIP3   OH2 7493   0.715   4.016   4.987
 2496TIP3    H1 7494   0.641   4.074   5.007
 2496TIP3    H2 7495   0.789   4.076   4.972
 2497TIP3   OH2 7496   5.782   5.402   1.115
 2497TIP3    H1 7497   5.819   5.353   1.188
 2497TIP3    H2 7498   5.691   5.373   1.110
 2498TIP3   OH2 7499   2.077   3.638   1.871
 2498TIP3    H1 7500   2.075   3.548   1.902
 2498TIP3    H2 7501   2.150   3.641   1.809
 2499TIP3   OH2 7502   5.720   2.515   4.172
 2499TIP3    H1 7503   5.745   2.602   4.141
 2499TIP3    H2 7504   5.730   2.458   4.096
 2500TIP3   OH2 7505   1.441   2.703   0.363
 2500TIP3    H1 7506   1.510   2.640   0.385
 2500TIP3    H2 7507   1.421   2.746   0.447
 2501TIP3   OH2 7508   0.051   4.084   0.119
 2501TIP3    H1 7509   0.026   4.055   0.206
 2501TIP3    H2 7510   0.108   4.015   0.085
 2502TIP3   OH2 7511   4.427   1.435   4.659
 2502TIP3    H1 7512   4.346   1.449   4.610
 2502TIP3    H2 7513   4.478   1.515   4.644
 2503TIP3   OH2 7514   0.164   0.713   3.712
 2503TIP3    H1 7515   0.128   0.728   3.800
 2503TIP3    H2 7516   0.227   0.784   3.699
 2504TIP3   OH2 7517   5.840   2.566   0.623
 2504TIP3    H1 7518   5.760   2.534   0.581
 2504TIP3    H2 7519   5.833   2.662   0.618
 2505TIP3   OH2 7520   2.337   5.580   1.161
 2505TIP3    H1 7521   2.395   5.541   1.227
 2505TIP3    H2 7522   2.391   5.585   1.082
 2506TIP3   OH2 7523   1.812   3.918   5.142
 2506TIP3    H1 7524   1.837   3.996   5.092
 2506TIP3    H2 7525   1.883   3.856   5.127
 2507TIP3   OH2 7526   1.857   3.055   4.539
 2507TIP3    H1 7527   1.785   3.102   4.498
 2507TIP3    H2 7528   1.923   3.122   4.557
 2508TIP3   OH2 7529   2.505   5.395   5.164
 2508TIP3    H1 7530   2.597   5.415   5.143
 2508TIP3    H2 7531   2.494   5.428   5.253
 2509TIP3   OH2 7532   1.803   0.215   0.861
 2509TIP3    H1 7533   1.710   0.235   0.870
 2509TIP3    H2 7534   1.835   0.276   0.795
 2510TIP3   OH2 7535   5.541   1.814   5.223
 2510TIP3    H1 7536   5.458   1.780   5.189
 2510TIP3    H2 7537   5.599   1.816   5.148
 2511TIP3   OH2 7538   5.202   5.054   5.015
 2511TIP3    H1 7539   5.234   5.109   5.086
 2511TIP3    H2 7540   5.133   5.106   4.974
 2512TIP3   OH2 7541   2.447   5.677   0.896
 2512TIP3    H1 7542   2.512   5.609   0.878
 2512TIP3    H2 7543   2.395   5.683   0.816
 2513TIP3   OH2 7544   1.829   4.427   0.404
 2513TIP3    H1 7545   1.802   4.501   0.351
 2513TIP3    H2 7546   1.902   4.388   0.356
 2514TIP3   OH2 7547   0.872   3.968   1.356
 2514TIP3    H1 7548   0.846   4.057   1.336
 2514TIP3    H2 7549   0.911   3.973   1.443
 2515TIP3   OH2 7550   5.165   2.009   1.597
 2515TIP3    H1 7551   5.251   2.021   1.638
 2515TIP3    H2 7552   5.112   1.967   1.665
 2516TIP3   OH2 7553   3.612   2.568   2.952
 2516TIP3    H1 7554   3.532   2.597   2.909
 2516TIP3    H2 7555   3.624   2.477   2.923
 2517TIP3   OH2 7556   5.207   0.031   5.125
 2517TIP3    H1 7557   5.299   0.050   5.105
 2517TIP3    H2 7558   5.208   0.003   5.216
 2518TIP3   OH2 7559   0.467   5.458   1.613
 2518TIP3    H1 7560   0.503   5.378   1.575
 2518TIP3    H2 7561   0.473   5.445   1.707
 2519TIP3   OH2 7562   1.847   1.196   4.557
 2519TIP3    H1 7563   1.901   1.212   4.480
 2519TIP3    H2 7564   1.757   1.193   4.524
 2520TIP3   OH2 7565   1.214   4.109   3.736
 2520TIP3    H1 7566   1.163   4.190   3.732
 2520TIP3    H2 7567   1.223   4.091   3.830
 2521TIP3   OH2 7568   0.685   1.608   1.129
 2521TIP3    H1 7569   0.656   1.693   1.095
 2521TIP3    H2 7570   0.604   1.563   1.153
 2522TIP3   OH2 7571   1.806   0.025   2.694
 2522TIP3    H1 7572   1.867   0.090   2.662
 2522TIP3    H2 7573   1.723   0.073   2.705
 2523TIP3   OH2 7574   4.572   1.996   4.602
 2523TIP3    H1 7575   4.478   1.986   4.590
 2523TIP3    H2 7576   4.587   1.970   4.693
 2524TIP3   OH2 7577   1.552   0.534   4.709
 2524TIP3    H1 7578   1.526   0.508   4.621
 2524TIP3    H2 7579   1.535   0.457   4.763
 2525TIP3   OH2 7580   5.821   5.905   1.678
 2525TIP3    H1 7581   5.781   5.961   1.745
 2525TIP3    H2 7582   5.837   5.963   1.604
 2526TIP3   OH2 7583   4.007   4.954   2.435
 2526TIP3    H1 7584   4.024   4.949   2.341
 2526TIP3    H2 7585   4.057   4.882   2.472
 2527TIP3   OH2 7586   1.475   0.953   4.941
 2527TIP3    H1 7587   1.554   0.989   4.901
 2527TIP3    H2 7588   1.473   0.862   4.912
 2528TIP3   OH2 7589   2.050   4.888   0.739
 2528TIP3    H1 7590   2.068   4.865   0.648
 2528TIP3    H2 7591   2.081   4.812   0.789
 2529TIP3   OH2 7592   1.113   5.705   0.308
 2529TIP3    H1 7593   1.135   5.750   0.227
 2529TIP3    H2 7594   1.191   5.714   0.363
 2530TIP3   OH2 7595   5.593   0.449   0.470
 2530TIP3    H1 7596   5.547   0.386   0.415
 2530TIP3    H2 7597   5.620   0.518   0.410
 2531TIP3   OH2 7598   4.961   3.384   4.604
 2531TIP3    H1 7599   4.958   3.435   4.523
 2531TIP3    H2 7600   5.033   3.422   4.654
 2532TIP3   OH2 7601   4.185   4.213   2.445
 2532TIP3    H1 7602   4.122   4.275   2.481
 2532TIP3    H2 7603   4.270   4.243   2.479
 2533TIP3   OH2 7604   5.506   3.553   2.597
 2533TIP3    H1 7605   5.489   3.589   2.510
 2533TIP3    H2 7606   5.597   3.524   2.594
 2534TIP3   OH2 7607   5.582   4.640   3.602
 2534TIP3    H1 7608   5.566   4.606   3.690
 2534TIP3    H2 7609   5.510   4.700   3.585
 2535TIP3   OH2 7610   3.440   5.853   1.082
 2535TIP3    H1 7611   3.365   5.856   1.142
 2535TIP3    H2 7612   3.467   5.761   1.082
 2536TIP3   OH2 7613   5.836   5.133   1.225
 2536TIP3    H1 7614   5.867   5.126   1.135
 2536TIP3    H2 7615   5.745   5.102   1.222
 2537TIP3   OH2 7616   4.910   0.739   1.587
 2537TIP3    H1 7617   4.901   0.724   1.681
 2537TIP3    H2 7618   4.909   0.651   1.549
 2538TIP3   OH2 7619   3.949   5.373   4.974
 2538TIP3    H1 7620   3.889   5.390   5.047
 2538TIP3    H2 7621   3.895   5.383   4.896
 2539TIP3   OH2 7622   4.384   2.417   2.655
 2539TIP3    H1 7623   4.317   2.436   2.590
 2539TIP3    H2 7624   4.365   2.477   2.728
 2540TIP3   OH2 7625   1.009   5.233   3.456
 2540TIP3    H1 7626   1.070   5.235   3.530
 2540TIP3    H2 7627   0.923   5.243   3.496
 2541TIP3   OH2 7628   4.382   2.049   1.555
 2541TIP3    H1 7629   4.363   2.090   1.640
 2541TIP3    H2 7630   4.328   1.970   1.554
 2542TIP3   OH2 7631   0.526   0.098   0.480
 2542TIP3    H1 7632   0.483   0.054   0.406
 2542TIP3    H2 7633   0.482   0.062   0.557
 2543TIP3   OH2 7634   6.243   0.115   2.356
 2543TIP3    H1 7635   6.286   0.036   2.322
 2543TIP3    H2 7636   6.189   0.083   2.428
 2544TIP3   OH2 7637   5.366   1.045   3.190
 2544TIP3    H1 7638   5.352   1.100   3.113
 2544TIP3    H2 7639   5.299   0.977   3.183
 2545TIP3   OH2 7640   6.210   0.905   4.351
 2545TIP3    H1 7641   6.126   0.891   4.395
 2545TIP3    H2 7642   6.254   0.972   4.404
 2546TIP3   OH2 7643   2.850   5.590   5.038
 2546TIP3    H1 7644   2.921   5.619   5.096
 2546TIP3    H2 7645   2.880   5.506   5.004
 2547TIP3   OH2 7646   3.815   5.745   5.149
 2547TIP3    H1 7647   3.732   5.791   5.163
 2547TIP3    H2 7648   3.795   5.654   5.168
 2548TIP3   OH2 7649   3.419   3.402   2.295
 2548TIP3    H1 7650   3.347   3.456   2.263
 2548TIP3    H2 7651   3.388   3.368   2.379
 2549TIP3   OH2 7652   1.801   3.622   4.264
 2549TIP3    H1 7653   1.720   3.639   4.216
 2549TIP3    H2 7654   1.772   3.586   4.347
 2550TIP3   OH2 7655   0.814   0.053   3.878
 2550TIP3    H1 7656   0.735   0.073   3.927
 2550TIP3    H2 7657   0.817  -0.042   3.873
 2551TIP3   OH2 7658   5.537   4.578   1.118
 2551TIP3    H1 7659   5.461   4.603   1.170
 2551TIP3    H2 7660   5.561   4.491   1.150
 2552TIP3   OH2 7661   1.990   4.284   3.311
 2552TIP3    H1 7662   1.978   4.379   3.304
 2552TIP3    H2 7663   1.902   4.250   3.327
 2553TIP3   OH2 7664   1.255   5.435   4.492
 2553TIP3    H1 7665   1.302   5.519   4.493
 2553TIP3    H2 7666   1.164   5.458   4.474
 2554TIP3   OH2 7667   2.175   0.914   0.118
 2554TIP3    H1 7668   2.142   0.842   0.064
 2554TIP3    H2 7669   2.127   0.991   0.088
 2555TIP3   OH2 7670   4.085   0.252   4.678
 2555TIP3    H1 7671   4.073   0.170   4.726
 2555TIP3    H2 7672   4.022   0.246   4.606
 2556TIP3   OH2 7673   4.685   5.900   1.098
 2556TIP3    H1 7674   4.615   5.836   1.089
 2556TIP3    H2 7675   4.756   5.865   1.044
 2557TIP3   OH2 7676   4.496   4.610   0.105
 2557TIP3    H1 7677   4.466   4.529   0.064
 2557TIP3    H2 7678   4.461   4.680   0.050
 2558TIP3   OH2 7679   3.139   3.263   2.265
 2558TIP3    H1 7680   3.087   3.338   2.294
 2558TIP3    H2 7681   3.204   3.251   2.335
 2559TIP3   OH2 7682   6.125   1.766   4.680
 2559TIP3    H1 7683   6.121   1.723   4.594
 2559TIP3    H2 7684   6.177   1.706   4.734
 2560TIP3   OH2 7685   5.447   2.951   2.095
 2560TIP3    H1 7686   5.465   3.039   2.063
 2560TIP3    H2 7687   5.360   2.930   2.059
 2561TIP3   OH2 7688   5.185   5.702   2.069
 2561TIP3    H1 7689   5.200   5.782   2.119
 2561TIP3    H2 7690   5.132   5.647   2.126
 2562TIP3   OH2 7691   2.162   1.357   3.876
 2562TIP3    H1 7692   2.161   1.309   3.794
 2562TIP3    H2 7693   2.077   1.337   3.916
 2563TIP3   OH2 7694   4.467   2.916   0.392
 2563TIP3    H1 7695   4.478   3.004   0.426
 2563TIP3    H2 7696   4.537   2.907   0.327
 2564TIP3   OH2 7697   1.814   2.270   0.524
 2564TIP3    H1 7698   1.857   2.310   0.599
 2564TIP3    H2 7699   1.880   2.270   0.455
 2565TIP3   OH2 7700   1.506   3.157   0.447
 2565TIP3    H1 7701   1.600   3.136   0.444
 2565TIP3    H2 7702   1.503   3.252   0.443
 2566TIP3   OH2 7703   5.246   2.245   1.477
 2566TIP3    H1 7704   5.222   2.159   1.513
 2566TIP3    H2 7705   5.332   2.263   1.516
 2567TIP3   OH2 7706   5.423   2.899   3.314
 2567TIP3    H1 7707   5.414   2.878   3.221
 2567TIP3    H2 7708   5.335   2.928   3.341
 2568TIP3   OH2 7709   3.237   0.459   2.206
 2568TIP3    H1 7710   3.263   0.552   2.201
 2568TIP3    H2 7711   3.155   0.460   2.256
 2569TIP3   OH2 7712   1.787   0.267   2.938
 2569TIP3    H1 7713   1.881   0.281   2.929
 2569TIP3    H2 7714   1.778   0.173   2.954
 2570TIP3   OH2 7715   3.998   4.864   4.488
 2570TIP3    H1 7716   3.946   4.857   4.408
 2570TIP3    H2 7717   4.085   4.892   4.457
 2571TIP3   OH2 7718   4.158   4.292   1.133
 2571TIP3    H1 7719   4.117   4.306   1.048
 2571TIP3    H2 7720   4.246   4.262   1.113
 2572TIP3   OH2 7721   1.209   4.996   2.842
 2572TIP3    H1 7722   1.118   5.009   2.815
 2572TIP3    H2 7723   1.231   4.908   2.810
 2573TIP3   OH2 7724   3.751   0.493   1.010
 2573TIP3    H1 7725   3.744   0.581   0.972
 2573TIP3    H2 7726   3.757   0.509   1.104
 2574TIP3   OH2 7727   2.440   4.598   1.889
 2574TIP3    H1 7728   2.526   4.565   1.862
 2574TIP3    H2 7729   2.398   4.627   1.808
 2575TIP3   OH2 7730   3.446   5.825   2.489
 2575TIP3    H1 7731   3.384   5.898   2.494
 2575TIP3    H2 7732   3.438   5.793   2.398
 2576TIP3   OH2 7733   3.396   0.802   3.366
 2576TIP3    H1 7734   3.351   0.802   3.451
 2576TIP3    H2 7735   3.421   0.710   3.352
 2577TIP3   OH2 7736   1.265   1.562   1.431
 2577TIP3    H1 7737   1.280   1.656   1.422
 2577TIP3    H2 7738   1.173   1.554   1.455
 2578TIP3   OH2 7739   5.790   5.090   0.940
 2578TIP3    H1 7740   5.770   5.147   0.866
 2578TIP3    H2 7741   5.710   5.039   0.953
 2579TIP3   OH2 7742   3.834   1.776   3.245
 2579TIP3    H1 7743   3.848   1.734   3.330
 2579TIP3    H2 7744   3.894   1.731   3.186
 2580TIP3   OH2 7745   6.322   4.469   4.435
 2580TIP3    H1 7746   6.235   4.477   4.396
 2580TIP3    H2 7747   6.310   4.415   4.512
 2581TIP3   OH2 7748   2.176   0.347   1.275
 2581TIP3    H1 7749   2.156   0.343   1.182
 2581TIP3    H2 7750   2.091   0.362   1.317
 2582TIP3   OH2 7751   3.167   3.562   4.163
 2582TIP3    H1 7752   3.112   3.534   4.236
 2582TIP3    H2 7753   3.111   3.620   4.111
 2583TIP3   OH2 7754   4.866   1.956   0.712
 2583TIP3    H1 7755   4.832   1.871   0.740
 2583TIP3    H2 7756   4.791   2.002   0.675
 2584TIP3   OH2 7757   1.668   4.213   4.141
 2584TIP3    H1 7758   1.594   4.185   4.195
 2584TIP3    H2 7759   1.680   4.306   4.161
 2585TIP3   OH2 7760   3.360   5.381   0.764
 2585TIP3    H1 7761   3.342   5.434   0.686
 2585TIP3    H2 7762   3.375   5.445   0.834
 2586TIP3   OH2 7763   5.872   4.399   0.852
 2586TIP3    H1 7764   5.801   4.349   0.811
 2586TIP3    H2 7765   5.863   4.487   0.815
 2587TIP3   OH2 7766   0.776   0.640   3.686
 2587TIP3    H1 7767   0.746   0.661   3.774
 2587TIP3    H2 7768   0.863   0.601   3.699
 2588TIP3   OH2 7769   3.491   4.343   3.736
 2588TIP3    H1 7770   3.478   4.257   3.776
 2588TIP3    H2 7771   3.419   4.350   3.672
 2589TIP3   OH2 7772   5.978   1.261   2.631
 2589TIP3    H1 7773   6.005   1.323   2.699
 2589TIP3    H2 7774   6.060   1.232   2.591
 2590TIP3   OH2 7775   0.368   2.028   1.275
 2590TIP3    H1 7776   0.427   2.038   1.349
 2590TIP3    H2 7777   0.318   1.949   1.295
 2591TIP3   OH2 7778   0.421   5.486   0.664
 2591TIP3    H1 7779   0.499   5.465   0.714
 2591TIP3    H2 7780   0.348   5.467   0.723
 2592TIP3   OH2 7781   0.469   5.681   3.285
 2592TIP3    H1 7782   0.495   5.667   3.376
 2592TIP3    H2 7783   0.457   5.593   3.249
 2593TIP3   OH2 7784   4.510   1.024   4.273
 2593TIP3    H1 7785   4.482   1.039   4.364
 2593TIP3    H2 7786   4.477   1.100   4.225
 2594TIP3   OH2 7787   3.221   5.257   1.413
 2594TIP3    H1 7788   3.288   5.325   1.411
 2594TIP3    H2 7789   3.267   5.177   1.384
 2595TIP3   OH2 7790   4.724   5.557   2.001
 2595TIP3    H1 7791   4.674   5.638   2.007
 2595TIP3    H2 7792   4.659   5.490   1.982
 2596TIP3   OH2 7793   5.619   0.518   1.204
 2596TIP3    H1 7794   5.680   0.567   1.149
 2596TIP3    H2 7795   5.674   0.458   1.254
 2597TIP3   OH2 7796   3.586   4.995   4.691
 2597TIP3    H1 7797   3.645   4.923   4.670
 2597TIP3    H2 7798   3.643   5.063   4.726
 2598TIP3   OH2 7799   3.297   0.592   1.643
 2598TIP3    H1 7800   3.382   0.555   1.669
 2598TIP3    H2 7801   3.252   0.519   1.600
 2599TIP3   OH2 7802   3.737   3.860   2.227
 2599TIP3    H1 7803   3.782   3.920   2.286
 2599TIP3    H2 7804   3.795   3.784   2.221
 2600TIP3   OH2 7805   2.202   0.829   4.899
 2600TIP3    H1 7806   2.197   0.749   4.847
 2600TIP3    H2 7807   2.196   0.799   4.990
 2601TIP3   OH2 7808   5.558   4.585   2.001
 2601TIP3    H1 7809   5.588   4.676   2.002
 2601TIP3    H2 7810   5.582   4.551   2.087
 2602TIP3   OH2 7811   0.894   1.674   3.901
 2602TIP3    H1 7812   0.845   1.690   3.821
 2602TIP3    H2 7813   0.902   1.760   3.942
 2603TIP3   OH2 7814   1.231   1.132   0.680
 2603TIP3    H1 7815   1.324   1.131   0.658
 2603TIP3    H2 7816   1.188   1.171   0.604
 2604TIP3   OH2 7817   5.446   0.758   2.921
 2604TIP3    H1 7818   5.412   0.693   2.983
 2604TIP3    H2 7819   5.496   0.706   2.857
 2605TIP3   OH2 7820   1.876   4.031   1.689
 2605TIP3    H1 7821   1.908   4.117   1.664
 2605TIP3    H2 7822   1.781   4.041   1.695
 2606TIP3   OH2 7823   1.176   4.410   4.161
 2606TIP3    H1 7824   1.148   4.499   4.180
 2606TIP3    H2 7825   1.097   4.357   4.174
 2607TIP3   OH2 7826   2.937   2.310   2.740
 2607TIP3    H1 7827   2.874   2.352   2.681
 2607TIP3    H2 7828   2.947   2.221   2.705
 2608TIP3   OH2 7829   4.317   3.832   3.223
 2608TIP3    H1 7830   4.309   3.926   3.241
 2608TIP3    H2 7831   4.411   3.814   3.233
 2609TIP3   OH2 7832   3.273   1.977   1.731
 2609TIP3    H1 7833   3.323   1.900   1.705
 2609TIP3    H2 7834   3.317   2.050   1.686
 2610TIP3   OH2 7835   0.234   4.899   2.672
 2610TIP3    H1 7836   0.143   4.879   2.693
 2610TIP3    H2 7837   0.283   4.822   2.699
 2611TIP3   OH2 7838   2.320   1.589   3.760
 2611TIP3    H1 7839   2.250   1.538   3.802
 2611TIP3    H2 7840   2.399   1.536   3.772
 2612TIP3   OH2 7841   3.439   1.731   1.685
 2612TIP3    H1 7842   3.395   1.667   1.740
 2612TIP3    H2 7843   3.524   1.745   1.728
 2613TIP3   OH2 7844   3.103   2.762   3.954
 2613TIP3    H1 7845   3.168   2.693   3.942
 2613TIP3    H2 7846   3.150   2.832   4.001
 2614TIP3   OH2 7847   4.879   2.944   2.286
 2614TIP3    H1 7848   4.896   3.014   2.222
 2614TIP3    H2 7849   4.803   2.976   2.335
 2615TIP3   OH2 7850   5.258   0.724   1.641
 2615TIP3    H1 7851   5.223   0.790   1.700
 2615TIP3    H2 7852   5.343   0.759   1.613
 2616TIP3   OH2 7853   3.052   1.773   0.015
 2616TIP3    H1 7854   3.076   1.729  -0.066
 2616TIP3    H2 7855   3.133   1.812   0.046
 2617TIP3   OH2 7856   1.769   4.685   4.443
 2617TIP3    H1 7857   1.718   4.606   4.455
 2617TIP3    H2 7858   1.728   4.731   4.370
 2618TIP3   OH2 7859   4.347   4.902   2.477
 2618TIP3    H1 7860   4.416   4.922   2.540
 2618TIP3    H2 7861   4.364   4.962   2.404
 2619TIP3   OH2 7862   0.896   5.695   1.816
 2619TIP3    H1 7863   0.870   5.787   1.815
 2619TIP3    H2 7864   0.876   5.663   1.729
 2620TIP3   OH2 7865   1.154   5.184   0.473
 2620TIP3    H1 7866   1.238   5.220   0.503
 2620TIP3    H2 7867   1.161   5.091   0.493
 2621TIP3   OH2 7868   2.465   2.236   3.440
 2621TIP3    H1 7869   2.492   2.308   3.383
 2621TIP3    H2 7870   2.520   2.246   3.518
 2622TIP3   OH2 7871   1.425   3.112   3.477
 2622TIP3    H1 7872   1.473   3.107   3.560
 2622TIP3    H2 7873   1.478   3.064   3.414
 2623TIP3   OH2 7874   3.346   2.752   2.072
 2623TIP3    H1 7875   3.375   2.720   2.158
 2623TIP3    H2 7876   3.424   2.793   2.035
 2624TIP3   OH2 7877   6.316   4.383   3.946
 2624TIP3    H1 7878   6.354   4.456   3.897
 2624TIP3    H2 7879   6.380   4.313   3.938
 2625TIP3   OH2 7880   0.901   3.850   4.747
 2625TIP3    H1 7881   0.879   3.785   4.681
 2625TIP3    H2 7882   0.915   3.799   4.827
 2626TIP3   OH2 7883   6.008   5.783   1.867
 2626TIP3    H1 7884   5.944   5.766   1.936
 2626TIP3    H2 7885   5.957   5.827   1.799
 2627TIP3   OH2 7886   3.287   0.252   2.907
 2627TIP3    H1 7887   3.318   0.275   2.819
 2627TIP3    H2 7888   3.300   0.332   2.958
 2628TIP3   OH2 7889   1.594   3.609   4.064
 2628TIP3    H1 7890   1.539   3.686   4.047
 2628TIP3    H2 7891   1.557   3.542   4.007
 2629TIP3   OH2 7892   2.359   2.892   2.009
 2629TIP3    H1 7893   2.325   2.877   1.921
 2629TIP3    H2 7894   2.298   2.846   2.066
 2630TIP3   OH2 7895   2.409   5.808   1.820
 2630TIP3    H1 7896   2.494   5.805   1.864
 2630TIP3    H2 7897   2.356   5.742   1.866
 2631TIP3   OH2 7898   4.859   4.249   4.796
 2631TIP3    H1 7899   4.915   4.282   4.867
 2631TIP3    H2 7900   4.784   4.308   4.796
 2632TIP3   OH2 7901   2.334   5.024   0.834
 2632TIP3    H1 7902   2.412   4.983   0.797
 2632TIP3    H2 7903   2.262   4.966   0.808
 2633TIP3   OH2 7904   1.295   4.938   2.402
 2633TIP3    H1 7905   1.266   4.860   2.447
 2633TIP3    H2 7906   1.350   4.906   2.331
 2634TIP3   OH2 7907   5.119   3.575   2.708
 2634TIP3    H1 7908   5.202   3.611   2.738
 2634TIP3    H2 7909   5.053   3.619   2.761
 2635TIP3   OH2 7910   4.122   5.122   3.839
 2635TIP3    H1 7911   4.135   5.133   3.933
 2635TIP3    H2 7912   4.072   5.041   3.831
 2636TIP3   OH2 7913   0.168   5.941   0.463
 2636TIP3    H1 7914   0.108   5.997   0.512
 2636TIP3    H2 7915   0.207   5.883   0.529
 2637TIP3   OH2 7916   6.302   1.047   3.977
 2637TIP3    H1 7917   6.297   1.007   3.890
 2637TIP3    H2 7918   6.333   0.977   4.034
 2638TIP3   OH2 7919   2.359   4.831   1.245
 2638TIP3    H1 7920   2.369   4.809   1.153
 2638TIP3    H2 7921   2.435   4.885   1.266
 2639TIP3   OH2 7922   1.934   2.407   0.727
 2639TIP3    H1 7923   2.020   2.369   0.707
 2639TIP3    H2 7924   1.947   2.502   0.717
 2640TIP3   OH2 7925   0.455   0.293   1.110
 2640TIP3    H1 7926   0.512   0.234   1.159
 2640TIP3    H2 7927   0.368   0.280   1.149
 2641TIP3   OH2 7928   0.106   1.741   0.861
 2641TIP3    H1 7929   0.091   1.811   0.923
 2641TIP3    H2 7930   0.146   1.671   0.912
 2642TIP3   OH2 7931   2.526   1.632   4.005
 2642TIP3    H1 7932   2.462   1.641   3.934
 2642TIP3    H2 7933   2.610   1.629   3.960
 2643TIP3   OH2 7934   2.357   5.025   1.868
 2643TIP3    H1 7935   2.315   5.086   1.808
 2643TIP3    H2 7936   2.381   4.950   1.813
 2644TIP3   OH2 7937   3.600   0.421   4.122
 2644TIP3    H1 7938   3.628   0.444   4.211
 2644TIP3    H2 7939   3.638   0.335   4.107
 2645TIP3   OH2 7940   2.773   2.293   4.118
 2645TIP3    H1 7941   2.711   2.309   4.047
 2645TIP3    H2 7942   2.776   2.375   4.167
 2646TIP3   OH2 7943   1.229   2.713   5.161
 2646TIP3    H1 7944   1.192   2.713   5.072
 2646TIP3    H2 7945   1.187   2.639   5.205
 2647TIP3   OH2 7946   3.820   5.435   2.806
 2647TIP3    H1 7947   3.911   5.407   2.811
 2647TIP3    H2 7948   3.811   5.474   2.719
 2648TIP3   OH2 7949   4.168   2.191   3.543
 2648TIP3    H1 7950   4.188   2.271   3.591
 2648TIP3    H2 7951   4.125   2.221   3.463
 2649TIP3   OH2 7952   4.745   4.772   4.088
 2649TIP3    H1 7953   4.693   4.836   4.136
 2649TIP3    H2 7954   4.793   4.824   4.022
 2650TIP3   OH2 7955   5.295   5.367   1.329
 2650TIP3    H1 7956   5.225   5.431   1.347
 2650TIP3    H2 7957   5.272   5.329   1.245
 2651TIP3   OH2 7958   1.152   3.328   2.688
 2651TIP3    H1 7959   1.189   3.250   2.730
 2651TIP3    H2 7960   1.213   3.398   2.710
 2652TIP3   OH2 7961   5.784   4.258   3.700
 2652TIP3    H1 7962   5.836   4.337   3.691
 2652TIP3    H2 7963   5.775   4.245   3.794
 2653TIP3   OH2 7964   4.240   3.343   0.954
 2653TIP3    H1 7965   4.282   3.296   1.026
 2653TIP3    H2 7966   4.146   3.328   0.966
 2654TIP3   OH2 7967   6.205   4.178   2.164
 2654TIP3    H1 7968   6.162   4.258   2.133
 2654TIP3    H2 7969   6.261   4.208   2.235
 2655TIP3   OH2 7970   2.379   0.076   1.766
 2655TIP3    H1 7971   2.404   0.041   1.680
 2655TIP3    H2 7972   2.416   0.164   1.767
 2656TIP3   OH2 7973   3.902   5.444   3.858
 2656TIP3    H1 7974   3.823   5.402   3.892
 2656TIP3    H2 7975   3.919   5.515   3.919
 2657TIP3   OH2 7976   1.040   3.764   0.649
 2657TIP3    H1 7977   1.019   3.788   0.739
 2657TIP3    H2 7978   1.040   3.847   0.602
 2658TIP3   OH2 7979   5.662   3.875   3.097
 2658TIP3    H1 7980   5.650   3.786   3.064
 2658TIP3    H2 7981   5.583   3.893   3.148
 2659TIP3   OH2 7982   1.970   4.409   4.511
 2659TIP3    H1 7983   1.895   4.460   4.482
 2659TIP3    H2 7984   1.947   4.318   4.492
 2660TIP3   OH2 7985   2.450   4.145   3.917
 2660TIP3    H1 7986   2.371   4.118   3.963
 2660TIP3    H2 7987   2.433   4.236   3.893
 2661TIP3   OH2 7988   4.527   2.058   5.119
 2661TIP3    H1 7989   4.586   2.099   5.182
 2661TIP3    H2 7990   4.441   2.094   5.140
 2662TIP3   OH2 7991   3.472   2.448   3.610
 2662TIP3    H1 7992   3.524   2.528   3.601
 2662TIP3    H2 7993   3.525   2.380   3.568
 2663TIP3   OH2 7994   3.459   0.451   0.582
 2663TIP3    H1 7995   3.455   0.355   0.584
 2663TIP3    H2 7996   3.545   0.472   0.618
 2664TIP3   OH2 7997   4.074   4.768   4.814
 2664TIP3    H1 7998   4.108   4.702   4.874
 2664TIP3    H2 7999   4.136   4.769   4.741
 2665TIP3   OH2 8000   2.071   0.613   4.725
 2665TIP3    H1 8001   2.133   0.561   4.674
 2665TIP3    H2 8002   2.037   0.552   4.790
 2666TIP3   OH2 8003   2.499   2.857   3.723
 2666TIP3    H1 8004   2.407   2.867   3.748
 2666TIP3    H2 8005   2.501   2.778   3.670
 2667TIP3   OH2 8006   5.986   0.146   3.807
 2667TIP3    H1 8007   6.068   0.192   3.826
 2667TIP3    H2 8008   5.997   0.112   3.719
 2668TIP3   OH2 8009   3.659   3.760   4.670
 2668TIP3    H1 8010   3.651   3.727   4.759
 2668TIP3    H2 8011   3.586   3.720   4.622
 2669TIP3   OH2 8012   2.640   1.012   3.644
 2669TIP3    H1 8013   2.616   0.950   3.575
 2669TIP3    H2 8014   2.730   1.038   3.624
 2670TIP3   OH2 8015   0.856   3.758   4.468
 2670TIP3    H1 8016   0.949   3.768   4.446
 2670TIP3    H2 8017   0.852   3.675   4.516
 2671TIP3   OH2 8018   3.503   2.127   2.035
 2671TIP3    H1 8019   3.517   2.221   2.037
 2671TIP3    H2 8020   3.441   2.110   2.105
 2672TIP3   OH2 8021   5.743   1.824   4.053
 2672TIP3    H1 8022   5.824   1.847   4.007
 2672TIP3    H2 8023   5.713   1.744   4.010
 2673TIP3   OH2 8024   0.304   4.031   0.688
 2673TIP3    H1 8025   0.254   4.019   0.769
 2673TIP3    H2 8026   0.287   4.121   0.663
 2674TIP3   OH2 8027   1.946   1.879   3.855
 2674TIP3    H1 8028   1.874   1.863   3.916
 2674TIP3    H2 8029   1.906   1.922   3.780
 2675TIP3   OH2 8030   0.547   0.585   0.648
 2675TIP3    H1 8031   0.604   0.662   0.644
 2675TIP3    H2 8032   0.607   0.510   0.645
 2676TIP3   OH2 8033   3.418   4.060   4.189
 2676TIP3    H1 8034   3.373   4.049   4.273
 2676TIP3    H2 8035   3.389   3.985   4.137
 2677TIP3   OH2 8036   1.278   4.884   2.041
 2677TIP3    H1 8037   1.280   4.838   1.958
 2677TIP3    H2 8038   1.204   4.944   2.035
 2678TIP3   OH2 8039   1.653   4.982   4.731
 2678TIP3    H1 8040   1.699   4.899   4.717
 2678TIP3    H2 8041   1.699   5.022   4.805
 2679TIP3   OH2 8042   3.692   5.279   5.055
 2679TIP3    H1 8043   3.700   5.294   4.961
 2679TIP3    H2 8044   3.693   5.184   5.064
 2680TIP3   OH2 8045   1.020   3.320   1.762
 2680TIP3    H1 8046   0.936   3.274   1.755
 2680TIP3    H2 8047   1.075   3.260   1.813
 2681TIP3   OH2 8048   0.566   4.562   4.209
 2681TIP3    H1 8049   0.638   4.624   4.217
 2681TIP3    H2 8050   0.492   4.605   4.250
 2682TIP3   OH2 8051   1.885   4.297   3.826
 2682TIP3    H1 8052   1.959   4.248   3.789
 2682TIP3    H2 8053   1.912   4.388   3.821
 2683TIP3   OH2 8054   5.967   5.082   4.958
 2683TIP3    H1 8055   5.934   4.997   4.985
 2683TIP3    H2 8056   6.062   5.078   4.974
 2684TIP3   OH2 8057   4.313   2.365   3.988
 2684TIP3    H1 8058   4.233   2.407   3.958
 2684TIP3    H2 8059   4.370   2.437   4.016
 2685TIP3   OH2 8060   2.220   4.607   1.302
 2685TIP3    H1 8061   2.277   4.684   1.298
 2685TIP3    H2 8062   2.179   4.604   1.216
 2686TIP3   OH2 8063   5.256   1.220   2.317
 2686TIP3    H1 8064   5.264   1.125   2.326
 2686TIP3    H2 8065   5.345   1.251   2.301
 2687TIP3   OH2 8066   5.602   3.519   3.685
 2687TIP3    H1 8067   5.585   3.599   3.634
 2687TIP3    H2 8068   5.668   3.472   3.633
 2688TIP3   OH2 8069   1.636   2.048   0.879
 2688TIP3    H1 8070   1.685   1.975   0.842
 2688TIP3    H2 8071   1.592   2.089   0.805
 2689TIP3   OH2 8072   4.006   0.415   4.307
 2689TIP3    H1 8073   4.004   0.495   4.359
 2689TIP3    H2 8074   4.099   0.392   4.302
 2690TIP3   OH2 8075   2.433   0.846   2.979
 2690TIP3    H1 8076   2.411   0.937   2.962
 2690TIP3    H2 8077   2.502   0.850   3.046
 2691TIP3   OH2 8078   1.521   4.624   4.750
 2691TIP3    H1 8079   1.578   4.568   4.699
 2691TIP3    H2 8080   1.450   4.648   4.690
 2692TIP3   OH2 8081   1.005   4.788   0.149
 2692TIP3    H1 8082   1.041   4.856   0.205
 2692TIP3    H2 8083   0.964   4.835   0.076
 2693TIP3   OH2 8084   0.950   0.940   0.241
 2693TIP3    H1 8085   0.955   0.891   0.159
 2693TIP3    H2 8086   1.041   0.953   0.267
 2694TIP3   OH2 8087   4.823   0.762   0.068
 2694TIP3    H1 8088   4.837   0.745  -0.025
 2694TIP3    H2 8089   4.749   0.823   0.071
 2695TIP3   OH2 8090   4.924   2.204   5.074
 2695TIP3    H1 8091   4.846   2.207   5.019
 2695TIP3    H2 8092   4.996   2.223   5.015
 2696TIP3   OH2 8093   1.655   5.463   2.810
 2696TIP3    H1 8094   1.567   5.486   2.839
 2696TIP3    H2 8095   1.678   5.386   2.863
 2697TIP3   OH2 8096   0.312   3.716   3.177
 2697TIP3    H1 8097   0.236   3.674   3.138
 2697TIP3    H2 8098   0.384   3.654   3.164
 2698TIP3   OH2 8099   3.963   1.006   0.894
 2698TIP3    H1 8100   3.922   0.932   0.850
 2698TIP3    H2 8101   4.051   1.011   0.858
 2699TIP3   OH2 8102   0.899   4.025   4.325
 2699TIP3    H1 8103   0.952   3.949   4.302
 2699TIP3    H2 8104   0.826   3.989   4.376
 2700TIP3   OH2 8105   3.665   2.733   2.406
 2700TIP3    H1 8106   3.689   2.674   2.478
 2700TIP3    H2 8107   3.703   2.817   2.431
 2701TIP3   OH2 8108   2.083   4.397   0.229
 2701TIP3    H1 8109   2.004   4.383   0.177
 2701TIP3    H2 8110   2.155   4.390   0.165
 2702TIP3   OH2 8111   4.350   3.869   1.329
 2702TIP3    H1 8112   4.344   3.774   1.317
 2702TIP3    H2 8113   4.291   3.905   1.263
 2703TIP3   OH2 8114   2.236   2.856   3.831
 2703TIP3    H1 8115   2.180   2.914   3.780
 2703TIP3    H2 8116   2.215   2.768   3.798
 2704TIP3   OH2 8117   4.192   0.381   0.205
 2704TIP3    H1 8118   4.159   0.305   0.255
 2704TIP3    H2 8119   4.287   0.374   0.211
 2705TIP3   OH2 8120   1.758   2.387   2.090
 2705TIP3    H1 8121   1.754   2.322   2.160
 2705TIP3    H2 8122   1.666   2.409   2.073
 2706TIP3   OH2 8123   0.635   0.581   4.275
 2706TIP3    H1 8124   0.565   0.644   4.259
 2706TIP3    H2 8125   0.608   0.502   4.227
 2707TIP3   OH2 8126   2.195   1.081   0.331
 2707TIP3    H1 8127   2.103   1.065   0.351
 2707TIP3    H2 8128   2.214   1.023   0.257
 2708TIP3   OH2 8129   0.136   2.371   4.773
 2708TIP3    H1 8130   0.187   2.312   4.719
 2708TIP3    H2 8131   0.095   2.314   4.839
 2709TIP3   OH2 8132   0.532   1.440   0.463
 2709TIP3    H1 8133   0.469   1.511   0.451
 2709TIP3    H2 8134   0.577   1.462   0.545
 2710TIP3   OH2 8135   5.579   4.546   3.167
 2710TIP3    H1 8136   5.560   4.638   3.186
 2710TIP3    H2 8137   5.644   4.521   3.233
 2711TIP3   OH2 8138   4.585   3.979   2.140
 2711TIP3    H1 8139   4.498   4.017   2.124
 2711TIP3    H2 8140   4.640   4.015   2.071
 2712TIP3   OH2 8141   6.114   5.872   0.520
 2712TIP3    H1 8142   6.074   5.886   0.606
 2712TIP3    H2 8143   6.169   5.794   0.533
 2713TIP3   OH2 8144   4.916   4.905   3.905
 2713TIP3    H1 8145   4.841   4.962   3.920
 2713TIP3    H2 8146   4.952   4.934   3.821
 2714TIP3   OH2 8147   3.758   2.762   3.967
 2714TIP3    H1 8148   3.843   2.730   3.998
 2714TIP3    H2 8149   3.694   2.714   4.020
 2715TIP3   OH2 8150   4.013   0.226   1.645
 2715TIP3    H1 8151   4.004   0.283   1.569
 2715TIP3    H2 8152   4.055   0.147   1.611
 2716TIP3   OH2 8153   6.257   0.049   2.611
 2716TIP3    H1 8154   6.228   0.139   2.619
 2716TIP3    H2 8155   6.351   0.052   2.630
 2717TIP3   OH2 8156   0.295   5.751   0.586
 2717TIP3    H1 8157   0.281   5.689   0.659
 2717TIP3    H2 8158   0.387   5.776   0.594
 2718TIP3   OH2 8159   6.360   2.606   2.360
 2718TIP3    H1 8160   6.340   2.549   2.434
 2718TIP3    H2 8161   6.277   2.648   2.339
 2719TIP3   OH2 8162   4.415   0.927   2.824
 2719TIP3    H1 8163   4.499   0.971   2.830
 2719TIP3    H2 8164   4.435   0.834   2.831
 2720TIP3   OH2 8165   5.898   4.417   2.637
 2720TIP3    H1 8166   5.827   4.479   2.622
 2720TIP3    H2 8167   5.926   4.391   2.549
 2721TIP3   OH2 8168   2.919   3.647   3.347
 2721TIP3    H1 8169   2.849   3.581   3.339
 2721TIP3    H2 8170   2.952   3.657   3.257
 2722TIP3   OH2 8171   1.229   0.234   1.805
 2722TIP3    H1 8172   1.238   0.244   1.710
 2722TIP3    H2 8173   1.222   0.324   1.838
 2723TIP3   OH2 8174   2.746   0.558   4.261
 2723TIP3    H1 8175   2.713   0.494   4.324
 2723TIP3    H2 8176   2.668   0.604   4.230
 2724TIP3   OH2 8177   2.897   4.852   2.385
 2724TIP3    H1 8178   2.890   4.769   2.433
 2724TIP3    H2 8179   2.825   4.905   2.417
 2725TIP3   OH2 8180   3.737   0.325   4.755
 2725TIP3    H1 8181   3.682   0.246   4.759
 2725TIP3    H2 8182   3.770   0.327   4.666
 2726TIP3   OH2 8183   0.787   2.505   4.440
 2726TIP3    H1 8184   0.828   2.559   4.507
 2726TIP3    H2 8185   0.797   2.415   4.471
 2727TIP3   OH2 8186   2.881   2.656   3.367
 2727TIP3    H1 8187   2.914   2.620   3.285
 2727TIP3    H2 8188   2.796   2.613   3.379
 2728TIP3   OH2 8189   0.820   2.605   1.155
 2728TIP3    H1 8190   0.884   2.577   1.089
 2728TIP3    H2 8191   0.841   2.554   1.233
 2729TIP3   OH2 8192   0.884   5.013   4.671
 2729TIP3    H1 8193   0.974   4.983   4.678
 2729TIP3    H2 8194   0.891   5.106   4.648
 2730TIP3   OH2 8195   4.124   0.116   0.241
 2730TIP3    H1 8196   4.075   0.051   0.292
 2730TIP3    H2 8197   4.133   0.076   0.154
 2731TIP3   OH2 8198   1.476   4.139   3.627
 2731TIP3    H1 8199   1.386   4.137   3.659
 2731TIP3    H2 8200   1.528   4.162   3.703
 2732TIP3   OH2 8201   1.714   3.799   2.350
 2732TIP3    H1 8202   1.650   3.774   2.416
 2732TIP3    H2 8203   1.756   3.878   2.384
 2733TIP3   OH2 8204   1.300   2.509   0.102
 2733TIP3    H1 8205   1.362   2.581   0.103
 2733TIP3    H2 8206   1.275   2.500   0.010
 2734TIP3   OH2 8207   1.806   3.942   4.208
 2734TIP3    H1 8208   1.819   3.899   4.292
 2734TIP3    H2 8209   1.880   4.002   4.200
 2735TIP3   OH2 8210   3.931   5.347   1.280
 2735TIP3    H1 8211   3.926   5.380   1.370
 2735TIP3    H2 8212   4.024   5.347   1.259
 2736TIP3   OH2 8213   3.911   2.968   0.243
 2736TIP3    H1 8214   3.951   2.971   0.330
 2736TIP3    H2 8215   3.978   3.004   0.185
 2737TIP3   OH2 8216   0.122   2.235   5.142
 2737TIP3    H1 8217   0.206   2.234   5.096
 2737TIP3    H2 8218   0.087   2.323   5.125
 2738TIP3   OH2 8219   0.523   4.429   4.482
 2738TIP3    H1 8220   0.506   4.420   4.576
 2738TIP3    H2 8221   0.454   4.487   4.451
 2739TIP3   OH2 8222   0.514   5.885   4.138
 2739TIP3    H1 8223   0.457   5.853   4.208
 2739TIP3    H2 8224   0.597   5.839   4.153
 2740TIP3   OH2 8225   1.707   2.941   1.629
 2740TIP3    H1 8226   1.787   2.953   1.680
 2740TIP3    H2 8227   1.649   3.010   1.658
 2741TIP3   OH2 8228   2.889   2.183   5.124
 2741TIP3    H1 8229   2.930   2.105   5.087
 2741TIP3    H2 8230   2.796   2.175   5.100
 2742TIP3   OH2 8231   4.854   4.908   1.693
 2742TIP3    H1 8232   4.798   4.985   1.701
 2742TIP3    H2 8233   4.815   4.858   1.622
 2743TIP3   OH2 8234   4.278   1.201   3.629
 2743TIP3    H1 8235   4.195   1.185   3.584
 2743TIP3    H2 8236   4.345   1.171   3.567
 2744TIP3   OH2 8237   0.419   0.424   3.626
 2744TIP3    H1 8238   0.411   0.329   3.617
 2744TIP3    H2 8239   0.332   0.458   3.606
 2745TIP3   OH2 8240   2.685   1.368   2.306
 2745TIP3    H1 8241   2.626   1.304   2.347
 2745TIP3    H2 8242   2.637   1.450   2.310
 2746TIP3   OH2 8243   2.292   0.526   2.819
 2746TIP3    H1 8244   2.379   0.489   2.836
 2746TIP3    H2 8245   2.268   0.570   2.901
 2747TIP3   OH2 8246   1.433   1.456   3.452
 2747TIP3    H1 8247   1.448   1.517   3.524
 2747TIP3    H2 8248   1.445   1.369   3.490
 2748TIP3   OH2 8249   0.598   1.586   3.281
 2748TIP3    H1 8250   0.678   1.635   3.301
 2748TIP3    H2 8251   0.532   1.653   3.265
 2749TIP3   OH2 8252   3.755   2.983   2.510
 2749TIP3    H1 8253   3.684   3.045   2.523
 2749TIP3    H2 8254   3.799   3.011   2.430
 2750TIP3   OH2 8255   3.061   2.543   0.783
 2750TIP3    H1 8256   3.065   2.468   0.842
 2750TIP3    H2 8257   3.153   2.567   0.769
 2751TIP3   OH2 8258   0.233   1.526   4.920
 2751TIP3    H1 8259   0.201   1.551   5.007
 2751TIP3    H2 8260   0.254   1.609   4.877
 2752TIP3   OH2 8261   3.261   0.459   3.535
 2752TIP3    H1 8262   3.181   0.452   3.484
 2752TIP3    H2 8263   3.257   0.547   3.574
 2753TIP3   OH2 8264   4.596   5.751   0.100
 2753TIP3    H1 8265   4.511   5.785   0.073
 2753TIP3    H2 8266   4.588   5.656   0.087
 2754TIP3   OH2 8267   3.022   3.673   0.710
 2754TIP3    H1 8268   3.066   3.637   0.633
 2754TIP3    H2 8269   3.019   3.768   0.693
 2755TIP3   OH2 8270   0.468   5.351   2.908
 2755TIP3    H1 8271   0.418   5.409   2.850
 2755TIP3    H2 8272   0.459   5.264   2.869
 2756TIP3   OH2 8273   0.522   2.904   4.017
 2756TIP3    H1 8274   0.602   2.947   4.048
 2756TIP3    H2 8275   0.531   2.814   4.046
 2757TIP3   OH2 8276   0.537   4.478   0.506
 2757TIP3    H1 8277   0.468   4.518   0.559
 2757TIP3    H2 8278   0.511   4.496   0.415
 2758TIP3   OH2 8279   4.706   2.710   1.111
 2758TIP3    H1 8280   4.667   2.724   1.024
 2758TIP3    H2 8281   4.682   2.620   1.133
 2759TIP3   OH2 8282   1.260   5.502   2.699
 2759TIP3    H1 8283   1.178   5.550   2.712
 2759TIP3    H2 8284   1.305   5.549   2.628
 2760TIP3   OH2 8285   2.833   5.207   2.401
 2760TIP3    H1 8286   2.778   5.214   2.479
 2760TIP3    H2 8287   2.918   5.177   2.433
 2761TIP3   OH2 8288   5.573   2.911   3.720
 2761TIP3    H1 8289   5.635   2.899   3.792
 2761TIP3    H2 8290   5.606   2.989   3.674
 2762TIP3   OH2 8291   5.924   3.947   1.223
 2762TIP3    H1 8292   5.968   3.866   1.247
 2762TIP3    H2 8293   5.960   4.013   1.283
 2763TIP3   OH2 8294   3.873   4.789   3.427
 2763TIP3    H1 8295   3.919   4.871   3.443
 2763TIP3    H2 8296   3.794   4.814   3.379
 2764TIP3   OH2 8297   2.898   1.481   3.491
 2764TIP3    H1 8298   2.947   1.450   3.415
 2764TIP3    H2 8299   2.812   1.439   3.484
 2765TIP3   OH2 8300   5.837   4.256   1.555
 2765TIP3    H1 8301   5.777   4.222   1.622
 2765TIP3    H2 8302   5.786   4.322   1.508
 2766TIP3   OH2 8303   5.955   3.141   1.851
 2766TIP3    H1 8304   5.896   3.191   1.795
 2766TIP3    H2 8305   5.904   3.123   1.930
 2767TIP3   OH2 8306   6.046   5.480   1.478
 2767TIP3    H1 8307   6.139   5.490   1.499
 2767TIP3    H2 8308   6.032   5.536   1.402
 2768TIP3   OH2 8309   4.896   0.394   0.938
 2768TIP3    H1 8310   4.950   0.442   1.000
 2768TIP3    H2 8311   4.806   0.421   0.959
 2769TIP3   OH2 8312   5.367   2.707   1.208
 2769TIP3    H1 8313   5.339   2.622   1.175
 2769TIP3    H2 8314   5.450   2.724   1.164
 2770TIP3   OH2 8315   3.555   1.091   2.006
 2770TIP3    H1 8316   3.525   1.139   1.929
 2770TIP3    H2 8317   3.491   1.110   2.074
 2771TIP3   OH2 8318   3.486   0.357   2.046
 2771TIP3    H1 8319   3.456   0.362   2.137
 2771TIP3    H2 8320   3.480   0.264   2.024
 2772TIP3   OH2 8321   4.968   5.980   1.971
 2772TIP3    H1 8322   5.060   5.996   1.992
 2772TIP3    H2 8323   4.971   5.927   1.892
 2773TIP3   OH2 8324   1.496   3.493   1.622
 2773TIP3    H1 8325   1.410   3.454   1.637
 2773TIP3    H2 8326   1.499   3.507   1.527
 2774TIP3   OH2 8327   4.131   2.816   2.108
 2774TIP3    H1 8328   4.111   2.834   2.200
 2774TIP3    H2 8329   4.067   2.750   2.082
 2775TIP3   OH2 8330   0.693   2.483   1.795
 2775TIP3    H1 8331   0.657   2.406   1.840
 2775TIP3    H2 8332   0.641   2.556   1.827
 2776TIP3   OH2 8333   2.095   5.472   3.329
 2776TIP3    H1 8334   2.033   5.508   3.266
 2776TIP3    H2 8335   2.051   5.478   3.413
 2777TIP3   OH2 8336   5.379   0.566   4.398
 2777TIP3    H1 8337   5.432   0.626   4.345
 2777TIP3    H2 8338   5.340   0.622   4.465
 2778TIP3   OH2 8339   2.398   3.327   4.636
 2778TIP3    H1 8340   2.472   3.268   4.647
 2778TIP3    H2 8341   2.366   3.310   4.548
 2779TIP3   OH2 8342   0.829   5.057   1.887
 2779TIP3    H1 8343   0.773   5.118   1.936
 2779TIP3    H2 8344   0.783   5.042   1.805
 2780TIP3   OH2 8345   1.506   4.731   2.899
 2780TIP3    H1 8346   1.522   4.639   2.879
 2780TIP3    H2 8347   1.580   4.777   2.860
 2781TIP3   OH2 8348   4.990   4.520   0.891
 2781TIP3    H1 8349   4.939   4.598   0.869
 2781TIP3    H2 8350   5.010   4.530   0.984
 2782TIP3   OH2 8351   3.609   4.273   0.678
 2782TIP3    H1 8352   3.618   4.358   0.722
 2782TIP3    H2 8353   3.625   4.292   0.586
 2783TIP3   OH2 8354   3.051   3.331   2.983
 2783TIP3    H1 8355   3.094   3.281   2.914
 2783TIP3    H2 8356   3.122   3.357   3.042
 2784TIP3   OH2 8357   3.999   3.097   4.034
 2784TIP3    H1 8358   4.090   3.077   4.056
 2784TIP3    H2 8359   3.948   3.042   4.094
 2785TIP3   OH2 8360   6.188   1.026   4.756
 2785TIP3    H1 8361   6.126   0.984   4.697
 2785TIP3    H2 8362   6.158   1.003   4.843
 2786TIP3   OH2 8363   5.174   4.720   2.146
 2786TIP3    H1 8364   5.219   4.692   2.066
 2786TIP3    H2 8365   5.169   4.815   2.138
 2787TIP3   OH2 8366   2.957   1.582   1.541
 2787TIP3    H1 8367   2.988   1.672   1.539
 2787TIP3    H2 8368   2.867   1.587   1.510
 2788TIP3   OH2 8369   0.699   2.009   2.191
 2788TIP3    H1 8370   0.608   1.987   2.173
 2788TIP3    H2 8371   0.726   1.948   2.259
 2789TIP3   OH2 8372   4.124   2.479   2.458
 2789TIP3    H1 8373   4.195   2.497   2.397
 2789TIP3    H2 8374   4.071   2.559   2.458
 2790TIP3   OH2 8375   3.465   5.661   1.672
 2790TIP3    H1 8376   3.542   5.717   1.678
 2790TIP3    H2 8377   3.447   5.635   1.763
 2791TIP3   OH2 8378   5.765   4.476   0.516
 2791TIP3    H1 8379   5.825   4.401   0.524
 2791TIP3    H2 8380   5.812   4.539   0.463
 2792TIP3   OH2 8381   1.660   5.931   3.615
 2792TIP3    H1 8382   1.576   5.976   3.605
 2792TIP3    H2 8383   1.726   6.001   3.607
 2793TIP3   OH2 8384   5.499   1.984   0.433
 2793TIP3    H1 8385   5.480   1.973   0.526
 2793TIP3    H2 8386   5.462   1.906   0.392
 2794TIP3   OH2 8387   0.328   0.649   1.076
 2794TIP3    H1 8388   0.330   0.609   0.989
 2794TIP3    H2 8389   0.385   0.725   1.068
 2795TIP3   OH2 8390   4.877   2.380   2.163
 2795TIP3    H1 8391   4.795   2.428   2.151
 2795TIP3    H2 8392   4.854   2.289   2.147
 2796TIP3   OH2 8393   1.565   5.438   0.067
 2796TIP3    H1 8394   1.651   5.458   0.106
 2796TIP3    H2 8395   1.571   5.472  -0.022
 2797TIP3   OH2 8396   0.820   2.504   4.750
 2797TIP3    H1 8397   0.749   2.558   4.786
 2797TIP3    H2 8398   0.898   2.557   4.764
 2798TIP3   OH2 8399   5.704   1.618   3.330
 2798TIP3    H1 8400   5.662   1.618   3.244
 2798TIP3    H2 8401   5.635   1.646   3.390
 2799TIP3   OH2 8402   6.331   3.495   4.410
 2799TIP3    H1 8403   6.326   3.413   4.460
 2799TIP3    H2 8404   6.273   3.481   4.335
 2800TIP3   OH2 8405   3.988   4.198   2.027
 2800TIP3    H1 8406   4.014   4.227   1.940
 2800TIP3    H2 8407   3.914   4.254   2.050
 2801TIP3   OH2 8408   5.042   3.073   2.085
 2801TIP3    H1 8409   5.124   3.121   2.102
 2801TIP3    H2 8410   5.069   2.998   2.032
 2802TIP3   OH2 8411   3.558   2.394   2.049
 2802TIP3    H1 8412   3.571   2.486   2.072
 2802TIP3    H2 8413   3.595   2.386   1.961
 2803TIP3   OH2 8414   0.323   2.790   0.158
 2803TIP3    H1 8415   0.244   2.763   0.205
 2803TIP3    H2 8416   0.383   2.716   0.167
 2804TIP3   OH2 8417   5.377   3.527   4.499
 2804TIP3    H1 8418   5.329   3.606   4.470
 2804TIP3    H2 8419   5.450   3.520   4.438
 2805TIP3   OH2 8420   5.910   2.067   2.766
 2805TIP3    H1 8421   5.883   2.152   2.731
 2805TIP3    H2 8422   5.829   2.015   2.766
 2806TIP3   OH2 8423   2.025   0.928   4.696
 2806TIP3    H1 8424   2.075   0.933   4.777
 2806TIP3    H2 8425   1.999   0.836   4.688
 2807TIP3   OH2 8426   0.040   3.805   1.810
 2807TIP3    H1 8427   0.124   3.796   1.854
 2807TIP3    H2 8428  -0.005   3.722   1.826
 2808TIP3   OH2 8429   0.809   3.175   1.231
 2808TIP3    H1 8430   0.833   3.121   1.156
 2808TIP3    H2 8431   0.720   3.205   1.211
 2809TIP3   OH2 8432   3.451   0.632   2.992
 2809TIP3    H1 8433   3.421   0.550   3.032
 2809TIP3    H2 8434   3.473   0.608   2.902
 2810TIP3   OH2 8435   4.982   2.672   2.281
 2810TIP3    H1 8436   5.040   2.604   2.316
 2810TIP3    H2 8437   5.013   2.753   2.321
 2811TIP3   OH2 8438   5.953   2.389   3.343
 2811TIP3    H1 8439   5.911   2.343   3.271
 2811TIP3    H2 8440   5.884   2.401   3.408
 2812TIP3   OH2 8441   5.349   3.877   2.087
 2812TIP3    H1 8442   5.444   3.865   2.086
 2812TIP3    H2 8443   5.320   3.838   2.169
 2813TIP3   OH2 8444   0.471   0.808   4.004
 2813TIP3    H1 8445   0.411   0.776   4.072
 2813TIP3    H2 8446   0.429   0.887   3.970
 2814TIP3   OH2 8447   3.742   1.260   1.235
 2814TIP3    H1 8448   3.792   1.289   1.159
 2814TIP3    H2 8449   3.689   1.337   1.259
 2815TIP3   OH2 8450   5.169   0.953   2.208
 2815TIP3    H1 8451   5.076   0.931   2.201
 2815TIP3    H2 8452   5.195   0.921   2.295
 2816TIP3   OH2 8453   3.768   4.214   2.461
 2816TIP3    H1 8454   3.766   4.218   2.557
 2816TIP3    H2 8455   3.832   4.279   2.436
 2817TIP3   OH2 8456   2.335   3.818   3.416
 2817TIP3    H1 8457   2.281   3.846   3.342
 2817TIP3    H2 8458   2.421   3.856   3.398
 2818TIP3   OH2 8459   3.855   2.868   0.783
 2818TIP3    H1 8460   3.837   2.957   0.812
 2818TIP3    H2 8461   3.947   2.854   0.805
 2819TIP3   OH2 8462   2.864   5.898   4.981
 2819TIP3    H1 8463   2.881   5.945   4.899
 2819TIP3    H2 8464   2.940   5.917   5.036
 2820TIP3   OH2 8465   2.347   1.222   2.205
 2820TIP3    H1 8466   2.422   1.184   2.159
 2820TIP3    H2 8467   2.382   1.250   2.289
 2821TIP3   OH2 8468   1.808   0.299   4.899
 2821TIP3    H1 8469   1.788   0.392   4.915
 2821TIP3    H2 8470   1.793   0.287   4.805
 2822TIP3   OH2 8471   1.993   3.909   1.255
 2822TIP3    H1 8472   1.938   3.834   1.233
 2822TIP3    H2 8473   2.046   3.880   1.329
 2823TIP3   OH2 8474   4.698   3.755   2.233
 2823TIP3    H1 8475   4.752   3.760   2.154
 2823TIP3    H2 8476   4.639   3.830   2.227
 2824TIP3   OH2 8477   2.369   0.936   0.719
 2824TIP3    H1 8478   2.397   0.950   0.810
 2824TIP3    H2 8479   2.386   1.020   0.676
 2825TIP3   OH2 8480   4.779   1.236   2.096
 2825TIP3    H1 8481   4.691   1.253   2.129
 2825TIP3    H2 8482   4.837   1.283   2.156
 2826TIP3   OH2 8483   2.517   1.589   5.022
 2826TIP3    H1 8484   2.458   1.665   5.017
 2826TIP3    H2 8485   2.459   1.514   5.010
 2827TIP3   OH2 8486   5.512   4.913   2.303
 2827TIP3    H1 8487   5.478   4.898   2.215
 2827TIP3    H2 8488   5.535   5.006   2.304
 2828TIP3   OH2 8489   0.299   4.384   3.989
 2828TIP3    H1 8490   0.381   4.336   4.000
 2828TIP3    H2 8491   0.261   4.387   4.077
 2829TIP3   OH2 8492   0.695   4.039   1.145
 2829TIP3    H1 8493   0.667   4.010   1.058
 2829TIP3    H2 8494   0.787   4.062   1.134
 2830TIP3   OH2 8495   3.183   2.008   4.522
 2830TIP3    H1 8496   3.160   1.928   4.569
 2830TIP3    H2 8497   3.242   1.978   4.453
 2831TIP3   OH2 8498   6.198  -0.003   0.344
 2831TIP3    H1 8499   6.159   0.067   0.396
 2831TIP3    H2 8500   6.160  -0.084   0.378
 2832TIP3   OH2 8501   6.168   2.529   1.789
 2832TIP3    H1 8502   6.089   2.576   1.818
 2832TIP3    H2 8503   6.145   2.437   1.799
 2833TIP3   OH2 8504   0.677   1.232   3.431
 2833TIP3    H1 8505   0.629   1.292   3.489
 2833TIP3    H2 8506   0.757   1.212   3.479
 2834TIP3   OH2 8507   1.357   4.350   0.039
 2834TIP3    H1 8508   1.340   4.386  -0.048
 2834TIP3    H2 8509   1.284   4.381   0.093
 2835TIP3   OH2 8510   3.029   3.728   1.361
 2835TIP3    H1 8511   3.057   3.683   1.441
 2835TIP3    H2 8512   2.954   3.677   1.330
 2836TIP3   OH2 8513   0.738   2.032   0.483
 2836TIP3    H1 8514   0.782   1.982   0.415
 2836TIP3    H2 8515   0.773   2.121   0.475
 2837TIP3   OH2 8516   2.763   3.491   3.571
 2837TIP3    H1 8517   2.747   3.582   3.597
 2837TIP3    H2 8518   2.845   3.467   3.615
 2838TIP3   OH2 8519   3.310   2.312   1.088
 2838TIP3    H1 8520   3.382   2.352   1.040
 2838TIP3    H2 8521   3.238   2.310   1.025
 2839TIP3   OH2 8522   5.867   5.514   3.394
 2839TIP3    H1 8523   5.952   5.540   3.431
 2839TIP3    H2 8524   5.824   5.597   3.373
 2840TIP3   OH2 8525   3.423   4.231   0.182
 2840TIP3    H1 8526   3.333   4.200   0.189
 2840TIP3    H2 8527   3.471   4.157   0.147
 2841TIP3   OH2 8528   5.200   4.331   4.816
 2841TIP3    H1 8529   5.189   4.287   4.900
 2841TIP3    H2 8530   5.152   4.276   4.754
 2842TIP3   OH2 8531   5.380   5.139   0.554
 2842TIP3    H1 8532   5.328   5.138   0.474
 2842TIP3    H2 8533   5.456   5.193   0.532
 2843TIP3   OH2 8534   0.991   2.986   4.835
 2843TIP3    H1 8535   0.979   2.900   4.874
 2843TIP3    H2 8536   0.984   2.971   4.741
 2844TIP3   OH2 8537   0.639   3.832   4.348
 2844TIP3    H1 8538   0.714   3.784   4.384
 2844TIP3    H2 8539   0.604   3.775   4.279
 2845TIP3   OH2 8540   1.085   1.491   4.488
 2845TIP3    H1 8541   0.998   1.511   4.455
 2845TIP3    H2 8542   1.074   1.482   4.583
 2846TIP3   OH2 8543   6.178   3.113   2.734
 2846TIP3    H1 8544   6.125   3.044   2.774
 2846TIP3    H2 8545   6.230   3.068   2.668
 2847TIP3   OH2 8546   5.118   2.457   3.977
 2847TIP3    H1 8547   5.060   2.401   4.028
 2847TIP3    H2 8548   5.061   2.523   3.938
 2848TIP3   OH2 8549  -0.045   0.496   5.185
 2848TIP3    H1 8550   0.020   0.521   5.120
 2848TIP3    H2 8551  -0.032   0.402   5.198
 2849TIP3   OH2 8552   1.238   3.649   0.411
 2849TIP3    H1 8553   1.259   3.742   0.420
 2849TIP3    H2 8554   1.247   3.630   0.318
 2850TIP3   OH2 8555   5.363   5.905   0.959
 2850TIP3    H1 8556   5.372   5.940   0.870
 2850TIP3    H2 8557   5.453   5.886   0.987
 2851TIP3   OH2 8558   3.562   5.090   4.022
 2851TIP3    H1 8559   3.572   4.998   3.997
 2851TIP3    H2 8560   3.473   5.113   3.994
 2852TIP3   OH2 8561   0.121   1.004   1.403
 2852TIP3    H1 8562   0.035   0.981   1.368
 2852TIP3    H2 8563   0.158   1.064   1.339
 2853TIP3   OH2 8564   1.754   1.389   1.885
 2853TIP3    H1 8565   1.807   1.322   1.928
 2853TIP3    H2 8566   1.735   1.353   1.798
 2854TIP3   OH2 8567   3.820   2.499   0.832
 2854TIP3    H1 8568   3.793   2.523   0.744
 2854TIP3    H2 8569   3.789   2.571   0.888
 2855TIP3   OH2 8570   4.752   3.119   1.019
 2855TIP3    H1 8571   4.845   3.110   1.001
 2855TIP3    H2 8572   4.730   3.207   0.990
 2856TIP3   OH2 8573   2.907   4.194   0.818
 2856TIP3    H1 8574   2.873   4.185   0.730
 2856TIP3    H2 8575   2.952   4.279   0.818
 2857TIP3   OH2 8576   3.164   2.819   0.295
 2857TIP3    H1 8577   3.184   2.911   0.311
 2857TIP3    H2 8578   3.178   2.806   0.202
 2858TIP3   OH2 8579   4.793   1.463   1.832
 2858TIP3    H1 8580   4.882   1.429   1.839
 2858TIP3    H2 8581   4.737   1.390   1.860
 2859TIP3   OH2 8582   4.430   2.581   3.752
 2859TIP3    H1 8583   4.458   2.602   3.841
 2859TIP3    H2 8584   4.463   2.493   3.737
 2860TIP3   OH2 8585   1.511   4.109   0.097
 2860TIP3    H1 8586   1.473   4.023   0.084
 2860TIP3    H2 8587   1.454   4.169   0.048
 2861TIP3   OH2 8588   2.341   0.668   3.541
 2861TIP3    H1 8589   2.298   0.603   3.486
 2861TIP3    H2 8590   2.403   0.618   3.594
 2862TIP3   OH2 8591   2.038   3.436   0.612
 2862TIP3    H1 8592   2.054   3.530   0.616
 2862TIP3    H2 8593   1.947   3.428   0.583
 2863TIP3   OH2 8594   0.981   5.738   0.691
 2863TIP3    H1 8595   0.909   5.740   0.627
 2863TIP3    H2 8596   0.945   5.781   0.769
 2864TIP3   OH2 8597   2.582   3.800   1.585
 2864TIP3    H1 8598   2.558   3.823   1.496
 2864TIP3    H2 8599   2.611   3.882   1.625
 2865TIP3   OH2 8600   1.383   0.319   3.567
 2865TIP3    H1 8601   1.366   0.236   3.612
 2865TIP3    H2 8602   1.330   0.314   3.487
 2866TIP3   OH2 8603   0.048   2.664   1.694
 2866TIP3    H1 8604   0.069   2.641   1.603
 2866TIP3    H2 8605  -0.046   2.646   1.702
 2867TIP3   OH2 8606   2.315   2.472   4.862
 2867TIP3    H1 8607   2.255   2.546   4.861
 2867TIP3    H2 8608   2.402   2.510   4.852
 2868TIP3   OH2 8609   1.688   4.429   4.509
 2868TIP3    H1 8610   1.713   4.339   4.532
 2868TIP3    H2 8611   1.606   4.418   4.460
 2869TIP3   OH2 8612   1.203   5.788   1.574
 2869TIP3    H1 8613   1.131   5.809   1.634
 2869TIP3    H2 8614   1.204   5.862   1.512
 2870TIP3   OH2 8615   1.016   3.531   0.496
 2870TIP3    H1 8616   1.006   3.607   0.553
 2870TIP3    H2 8617   1.106   3.537   0.464
 2871TIP3   OH2 8618   4.278   5.921   3.942
 2871TIP3    H1 8619   4.220   5.922   3.867
 2871TIP3    H2 8620   4.311   6.010   3.949
 2872TIP3   OH2 8621   3.014   0.588   4.230
 2872TIP3    H1 8622   3.025   0.680   4.257
 2872TIP3    H2 8623   2.927   0.564   4.263
 2873TIP3   OH2 8624   0.143   3.213   4.663
 2873TIP3    H1 8625   0.075   3.147   4.680
 2873TIP3    H2 8626   0.197   3.212   4.742
 2874TIP3   OH2 8627   0.318   3.228   2.980
 2874TIP3    H1 8628   0.239   3.188   3.017
 2874TIP3    H2 8629   0.376   3.154   2.961
 2875TIP3   OH2 8630   6.039   2.096   3.638
 2875TIP3    H1 8631   6.014   2.178   3.679
 2875TIP3    H2 8632   6.025   2.029   3.705
 2876TIP3   OH2 8633   4.707   0.723   4.126
 2876TIP3    H1 8634   4.702   0.785   4.198
 2876TIP3    H2 8635   4.644   0.756   4.061
 2877TIP3   OH2 8636   6.312   0.139   5.008
 2877TIP3    H1 8637   6.265   0.055   5.007
 2877TIP3    H2 8638   6.254   0.200   4.963
 2878TIP3   OH2 8639   4.010   3.428   4.761
 2878TIP3    H1 8640   3.916   3.425   4.741
 2878TIP3    H2 8641   4.014   3.432   4.856
 2879TIP3   OH2 8642   2.721   1.983   2.571
 2879TIP3    H1 8643   2.750   1.921   2.504
 2879TIP3    H2 8644   2.628   1.998   2.551
 2880TIP3   OH2 8645   5.230   2.803   2.902
 2880TIP3    H1 8646   5.313   2.830   2.940
 2880TIP3    H2 8647   5.252   2.770   2.815
 2881TIP3   OH2 8648   3.434   0.668   4.557
 2881TIP3    H1 8649   3.344   0.688   4.532
 2881TIP3    H2 8650   3.430   0.579   4.593
 2882TIP3   OH2 8651   3.903   0.610   3.545
 2882TIP3    H1 8652   3.847   0.640   3.617
 2882TIP3    H2 8653   3.970   0.677   3.537
 2883TIP3   OH2 8654   1.896   3.108   2.668
 2883TIP3    H1 8655   1.934   3.084   2.584
 2883TIP3    H2 8656   1.970   3.134   2.722
 2884TIP3   OH2 8657   4.624   4.430   5.168
 2884TIP3    H1 8658   4.551   4.434   5.106
 2884TIP3    H2 8659   4.675   4.509   5.150
 2885TIP3   OH2 8660   1.788   2.640   4.686
 2885TIP3    H1 8661   1.717   2.602   4.635
 2885TIP3    H2 8662   1.755   2.639   4.776
 2886TIP3   OH2 8663   2.095   3.119   1.910
 2886TIP3    H1 8664   2.056   3.048   1.962
 2886TIP3    H2 8665   2.100   3.083   1.821
 2887TIP3   OH2 8666   3.655   0.169   1.855
 2887TIP3    H1 8667   3.596   0.095   1.867
 2887TIP3    H2 8668   3.645   0.193   1.763
 2888TIP3   OH2 8669   3.988   1.560   3.869
 2888TIP3    H1 8670   4.017   1.640   3.825
 2888TIP3    H2 8671   4.053   1.494   3.844
 2889TIP3   OH2 8672   5.920   4.228   0.479
 2889TIP3    H1 8673   5.992   4.166   0.493
 2889TIP3    H2 8674   5.841   4.176   0.490
 2890TIP3   OH2 8675   1.991   0.869   4.373
 2890TIP3    H1 8676   1.929   0.804   4.406
 2890TIP3    H2 8677   1.989   0.940   4.438
 2891TIP3   OH2 8678   5.463   1.503  -0.038
 2891TIP3    H1 8679   5.519   1.446   0.015
 2891TIP3    H2 8680   5.480   1.591  -0.005
 2892TIP3   OH2 8681   0.638   4.696   0.754
 2892TIP3    H1 8682   0.646   4.611   0.797
 2892TIP3    H2 8683   0.556   4.732   0.787
 2893TIP3   OH2 8684   0.725   1.246   1.787
 2893TIP3    H1 8685   0.736   1.329   1.741
 2893TIP3    H2 8686   0.644   1.209   1.752
 2894TIP3   OH2 8687   3.795   5.655   1.665
 2894TIP3    H1 8688   3.851   5.715   1.714
 2894TIP3    H2 8689   3.751   5.603   1.732
 2895TIP3   OH2 8690   0.348   2.466   4.370
 2895TIP3    H1 8691   0.303   2.381   4.368
 2895TIP3    H2 8692   0.293   2.524   4.317
 2896TIP3   OH2 8693   1.687   4.236   4.824
 2896TIP3    H1 8694   1.606   4.185   4.826
 2896TIP3    H2 8695   1.738   4.202   4.897
 2897TIP3   OH2 8696   0.483   3.266   1.713
 2897TIP3    H1 8697   0.478   3.192   1.652
 2897TIP3    H2 8698   0.401   3.262   1.762
 2898TIP3   OH2 8699   4.075   1.334   1.651
 2898TIP3    H1 8700   4.002   1.382   1.691
 2898TIP3    H2 8701   4.125   1.401   1.604
 2899TIP3   OH2 8702   3.720   5.199   1.202
 2899TIP3    H1 8703   3.791   5.259   1.223
 2899TIP3    H2 8704   3.713   5.202   1.107
 2900TIP3   OH2 8705   5.042   3.338   1.063
 2900TIP3    H1 8706   5.000   3.423   1.072
 2900TIP3    H2 8707   5.059   3.310   1.153
 2901TIP3   OH2 8708   1.405   3.844   3.755
 2901TIP3    H1 8709   1.370   3.805   3.835
 2901TIP3    H2 8710   1.474   3.903   3.785
 2902TIP3   OH2 8711   0.865   0.932   3.095
 2902TIP3    H1 8712   0.855   0.923   3.000
 2902TIP3    H2 8713   0.789   0.888   3.132
 2903TIP3   OH2 8714   3.016   3.901   2.136
 2903TIP3    H1 8715   3.043   3.834   2.198
 2903TIP3    H2 8716   3.066   3.978   2.161
 2904TIP3   OH2 8717   5.092   1.145   4.701
 2904TIP3    H1 8718   5.035   1.121   4.773
 2904TIP3    H2 8719   5.121   1.061   4.665
 2905TIP3   OH2 8720   1.129   5.639   1.280
 2905TIP3    H1 8721   1.041   5.606   1.296
 2905TIP3    H2 8722   1.184   5.561   1.273
 2906TIP3   OH2 8723   2.803   3.819   4.894
 2906TIP3    H1 8724   2.733   3.770   4.938
 2906TIP3    H2 8725   2.863   3.843   4.965
 2907TIP3   OH2 8726   0.679   5.570   2.791
 2907TIP3    H1 8727   0.719   5.616   2.717
 2907TIP3    H2 8728   0.623   5.634   2.833
 2908TIP3   OH2 8729   0.827   0.090   5.040
 2908TIP3    H1 8730   0.842   0.133   4.956
 2908TIP3    H2 8731   0.743   0.125   5.070
 2909TIP3   OH2 8732   5.425   1.968   0.924
 2909TIP3    H1 8733   5.388   2.034   0.983
 2909TIP3    H2 8734   5.414   2.005   0.837
 2910TIP3   OH2 8735   1.937   2.060   2.929
 2910TIP3    H1 8736   2.006   2.120   2.959
 2910TIP3    H2 8737   1.864   2.117   2.907
 2911TIP3   OH2 8738   4.451   0.859   1.980
 2911TIP3    H1 8739   4.405   0.906   2.049
 2911TIP3    H2 8740   4.544   0.873   1.999
 2912TIP3   OH2 8741   4.813   3.241   1.472
 2912TIP3    H1 8742   4.718   3.229   1.480
 2912TIP3    H2 8743   4.836   3.193   1.393
 2913TIP3   OH2 8744   4.763   0.168   4.938
 2913TIP3    H1 8745   4.851   0.191   4.970
 2913TIP3    H2 8746   4.710   0.246   4.955
 2914TIP3   OH2 8747   4.740   4.505   2.968
 2914TIP3    H1 8748   4.705   4.504   2.879
 2914TIP3    H2 8749   4.664   4.495   3.025
 2915TIP3   OH2 8750   1.358   4.351   3.152
 2915TIP3    H1 8751   1.266   4.376   3.148
 2915TIP3    H2 8752   1.360   4.275   3.211
 2916TIP3   OH2 8753   2.540   1.436   4.202
 2916TIP3    H1 8754   2.463   1.391   4.167
 2916TIP3    H2 8755   2.555   1.508   4.141
 2917TIP3   OH2 8756   3.772   5.738   4.675
 2917TIP3    H1 8757   3.769   5.650   4.637
 2917TIP3    H2 8758   3.814   5.791   4.608
 2918TIP3   OH2 8759   4.376   0.981   4.963
 2918TIP3    H1 8760   4.408   0.947   4.879
 2918TIP3    H2 8761   4.326   1.060   4.939
 2919TIP3   OH2 8762   1.961   1.527   2.055
 2919TIP3    H1 8763   1.923   1.588   2.117
 2919TIP3    H2 8764   1.891   1.510   1.992
 2920TIP3   OH2 8765   5.267   4.013   3.244
 2920TIP3    H1 8766   5.223   3.992   3.161
 2920TIP3    H2 8767   5.337   3.949   3.251
 2921TIP3   OH2 8768   0.844   4.796   2.261
 2921TIP3    H1 8769   0.925   4.753   2.232
 2921TIP3    H2 8770   0.787   4.724   2.287
 2922TIP3   OH2 8771   0.946   3.574   2.685
 2922TIP3    H1 8772   0.924   3.576   2.592
 2922TIP3    H2 8773   0.961   3.481   2.704
 2923TIP3   OH2 8774   0.348   2.706   1.238
 2923TIP3    H1 8775   0.270   2.744   1.279
 2923TIP3    H2 8776   0.412   2.778   1.237
 2924TIP3   OH2 8777   6.181   2.023   2.504
 2924TIP3    H1 8778   6.240   2.071   2.446
 2924TIP3    H2 8779   6.184   2.072   2.586
 2925TIP3   OH2 8780   0.361   2.848   2.112
 2925TIP3    H1 8781   0.435   2.792   2.089
 2925TIP3    H2 8782   0.330   2.813   2.196
 2926TIP3   OH2 8783   1.931   0.959   3.346
 2926TIP3    H1 8784   2.013   0.915   3.323
 2926TIP3    H2 8785   1.893   0.905   3.415
 2927TIP3   OH2 8786   3.607   1.322   4.142
 2927TIP3    H1 8787   3.620   1.273   4.061
 2927TIP3    H2 8788   3.670   1.285   4.204
 2928TIP3   OH2 8789   0.053   5.641   0.232
 2928TIP3    H1 8790   0.037   5.564   0.178
 2928TIP3    H2 8791  -0.001   5.628   0.310
 2929TIP3   OH2 8792   2.973   3.323   4.095
 2929TIP3    H1 8793   2.985   3.273   4.014
 2929TIP3    H2 8794   2.880   3.316   4.113
 2930TIP3   OH2 8795   1.233   5.235   3.001
 2930TIP3    H1 8796   1.225   5.208   3.092
 2930TIP3    H2 8797   1.228   5.154   2.950
 2931TIP3   OH2 8798   6.113   1.348   3.062
 2931TIP3    H1 8799   6.069   1.408   3.122
 2931TIP3    H2 8800   6.079   1.262   3.084
 2932TIP3   OH2 8801   2.450   5.262   1.064
 2932TIP3    H1 8802   2.487   5.174   1.068
 2932TIP3    H2 8803   2.508   5.314   1.119
 2933TIP3   OH2 8804   0.900   2.442   3.793
 2933TIP3    H1 8805   0.913   2.499   3.717
 2933TIP3    H2 8806   0.824   2.478   3.838
 2934TIP3   OH2 8807   1.837   3.402   2.773
 2934TIP3    H1 8808   1.743   3.396   2.791
 2934TIP3    H2 8809   1.869   3.313   2.790
 2935TIP3   OH2 8810   2.694   1.321   0.504
 2935TIP3    H1 8811   2.691   1.341   0.598
 2935TIP3    H2 8812   2.638   1.244   0.494
 2936TIP3   OH2 8813   2.293   1.052   3.967
 2936TIP3    H1 8814   2.384   1.035   3.941
 2936TIP3    H2 8815   2.293   1.047   4.062
 2937TIP3   OH2 8816   5.996   0.649   2.542
 2937TIP3    H1 8817   5.929   0.654   2.610
 2937TIP3    H2 8818   6.055   0.580   2.570
 2938TIP3   OH2 8819   2.408   5.964   4.113
 2938TIP3    H1 8820   2.449   6.047   4.139
 2938TIP3    H2 8821   2.332   5.956   4.170
 2939TIP3   OH2 8822   4.730   5.858   4.405
 2939TIP3    H1 8823   4.655   5.804   4.380
 2939TIP3    H2 8824   4.776   5.875   4.323
 2940TIP3   OH2 8825   2.746   5.309   3.075
 2940TIP3    H1 8826   2.775   5.243   3.137
 2940TIP3    H2 8827   2.728   5.261   2.995
 2941TIP3   OH2 8828   5.909   1.913   0.634
 2941TIP3    H1 8829   5.984   1.889   0.579
 2941TIP3    H2 8830   5.868   1.986   0.588
 2942TIP3   OH2 8831   1.772   2.291   4.414
 2942TIP3    H1 8832   1.767   2.339   4.497
 2942TIP3    H2 8833   1.794   2.201   4.439
 2943TIP3   OH2 8834   2.894   2.280   1.574
 2943TIP3    H1 8835   2.958   2.347   1.550
 2943TIP3    H2 8836   2.918   2.256   1.664
 2944TIP3   OH2 8837   4.539   0.607   3.596
 2944TIP3    H1 8838   4.603   0.678   3.592
 2944TIP3    H2 8839   4.508   0.598   3.505
 2945TIP3   OH2 8840   4.194   3.338   3.038
 2945TIP3    H1 8841   4.166   3.256   2.998
 2945TIP3    H2 8842   4.220   3.313   3.127
 2946TIP3   OH2 8843   2.494   4.885   3.915
 2946TIP3    H1 8844   2.467   4.976   3.901
 2946TIP3    H2 8845   2.496   4.874   4.010
 2947TIP3   OH2 8846   4.818   2.552   0.453
 2947TIP3    H1 8847   4.793   2.512   0.370
 2947TIP3    H2 8848   4.751   2.524   0.515
 2948TIP3   OH2 8849   4.691   5.060   3.990
 2948TIP3    H1 8850   4.691   5.143   3.942
 2948TIP3    H2 8851   4.712   5.085   4.080
 2949TIP3   OH2 8852   5.802   1.385   0.698
 2949TIP3    H1 8853   5.740   1.424   0.759
 2949TIP3    H2 8854   5.748   1.329   0.642
 2950TIP3   OH2 8855   0.397   3.532   4.525
 2950TIP3    H1 8856   0.376   3.480   4.602
 2950TIP3    H2 8857   0.455   3.601   4.557
 2951TIP3   OH2 8858   6.045   5.497   2.307
 2951TIP3    H1 8859   5.969   5.511   2.365
 2951TIP3    H2 8860   6.024   5.417   2.259
 2952TIP3   OH2 8861   5.092   1.764   3.168
 2952TIP3    H1 8862   5.121   1.675   3.153
 2952TIP3    H2 8863   5.173   1.814   3.180
 2953TIP3   OH2 8864   5.216   0.309   2.801
 2953TIP3    H1 8865   5.192   0.276   2.888
 2953TIP3    H2 8866   5.136   0.301   2.749
 2954TIP3   OH2 8867   0.172   4.028   2.736
 2954TIP3    H1 8868   0.106   3.969   2.700
 2954TIP3    H2 8869   0.231   3.971   2.785
 2955TIP3   OH2 8870   4.522   0.754   3.922
 2955TIP3    H1 8871   4.512   0.830   3.865
 2955TIP3    H2 8872   4.457   0.691   3.890
 2956TIP3   OH2 8873   0.333   1.686   0.427
 2956TIP3    H1 8874   0.289   1.768   0.405
 2956TIP3    H2 8875   0.423   1.711   0.445
 2957TIP3   OH2 8876   4.924   5.501   2.829
 2957TIP3    H1 8877   5.018   5.485   2.836
 2957TIP3    H2 8878   4.910   5.523   2.736
 2958TIP3   OH2 8879   5.643   2.083   2.089
 2958TIP3    H1 8880   5.585   2.061   2.162
 2958TIP3    H2 8881   5.714   2.133   2.129
 2959TIP3   OH2 8882   1.144   3.043   4.281
 2959TIP3    H1 8883   1.149   3.134   4.309
 2959TIP3    H2 8884   1.112   3.047   4.191
 2960TIP3   OH2 8885   3.459   2.872   1.052
 2960TIP3    H1 8886   3.482   2.795   1.001
 2960TIP3    H2 8887   3.480   2.946   0.995
 2961TIP3   OH2 8888   5.009   4.833   2.591
 2961TIP3    H1 8889   5.026   4.766   2.658
 2961TIP3    H2 8890   5.082   4.825   2.530
 2962TIP3   OH2 8891   5.679   3.161   2.295
 2962TIP3    H1 8892   5.655   3.127   2.381
 2962TIP3    H2 8893   5.600   3.206   2.264
 2963TIP3   OH2 8894   5.993   5.993   3.004
 2963TIP3    H1 8895   6.013   5.940   3.081
 2963TIP3    H2 8896   6.000   5.932   2.931
 2964TIP3   OH2 8897   5.722   4.637   0.865
 2964TIP3    H1 8898   5.679   4.615   0.948
 2964TIP3    H2 8899   5.682   4.579   0.801
 2965TIP3   OH2 8900   4.132   5.575   4.256
 2965TIP3    H1 8901   4.056   5.521   4.278
 2965TIP3    H2 8902   4.102   5.633   4.186
 2966TIP3   OH2 8903   2.229   4.052   1.565
 2966TIP3    H1 8904   2.149   4.106   1.564
 2966TIP3    H2 8905   2.283   4.087   1.494
 2967TIP3   OH2 8906   3.869   2.920   1.888
 2967TIP3    H1 8907   3.797   2.959   1.937
 2967TIP3    H2 8908   3.948   2.947   1.936
 2968TIP3   OH2 8909   2.411   3.604   1.403
 2968TIP3    H1 8910   2.461   3.594   1.322
 2968TIP3    H2 8911   2.456   3.549   1.467
 2969TIP3   OH2 8912   1.885   5.030   3.959
 2969TIP3    H1 8913   1.823   5.043   3.887
 2969TIP3    H2 8914   1.970   5.025   3.916
 2970TIP3   OH2 8915   5.520   5.331   1.502
 2970TIP3    H1 8916   5.474   5.274   1.564
 2970TIP3    H2 8917   5.454   5.352   1.435
 2971TIP3   OH2 8918   6.347   4.038   0.823
 2971TIP3    H1 8919   6.396   4.108   0.866
 2971TIP3    H2 8920   6.264   4.034   0.871
 2972TIP3   OH2 8921   1.459   3.279   2.123
 2972TIP3    H1 8922   1.518   3.348   2.153
 2972TIP3    H2 8923   1.389   3.326   2.077
 2973TIP3   OH2 8924   0.372   1.279   3.556
 2973TIP3    H1 8925   0.285   1.317   3.570
 2973TIP3    H2 8926   0.432   1.347   3.586
 2974TIP3   OH2 8927   5.748   5.521   2.069
 2974TIP3    H1 8928   5.652   5.527   2.070
 2974TIP3    H2 8929   5.776   5.598   2.020
 2975TIP3   OH2 8930   1.473   4.918   4.522
 2975TIP3    H1 8931   1.430   5.003   4.512
 2975TIP3    H2 8932   1.547   4.936   4.580
 2976TIP3   OH2 8933   2.495   0.311   1.657
 2976TIP3    H1 8934   2.437   0.344   1.588
 2976TIP3    H2 8935   2.559   0.257   1.610
 2977TIP3   OH2 8936   2.624   1.343   3.434
 2977TIP3    H1 8937   2.569   1.299   3.499
 2977TIP3    H2 8938   2.568   1.411   3.397
 2978TIP3   OH2 8939   5.304   0.440   2.151
 2978TIP3    H1 8940   5.218   0.418   2.115
 2978TIP3    H2 8941   5.306   0.536   2.150
 2979TIP3   OH2 8942   3.315   2.594   4.190
 2979TIP3    H1 8943   3.230   2.553   4.204
 2979TIP3    H2 8944   3.374   2.549   4.250
 2980TIP3   OH2 8945   3.655   3.571   0.329
 2980TIP3    H1 8946   3.601   3.650   0.330
 2980TIP3    H2 8947   3.603   3.506   0.376
 2981TIP3   OH2 8948   3.442   4.117   3.879
 2981TIP3    H1 8949   3.468   4.040   3.931
 2981TIP3    H2 8950   3.361   4.089   3.836
 2982TIP3   OH2 8951   1.969   0.130   1.545
 2982TIP3    H1 8952   1.879   0.112   1.574
 2982TIP3    H2 8953   1.990   0.214   1.585
 2983TIP3   OH2 8954   1.309   5.165   4.482
 2983TIP3    H1 8955   1.286   5.250   4.519
 2983TIP3    H2 8956   1.336   5.184   4.392
 2984TIP3   OH2 8957   4.611   3.804   1.247
 2984TIP3    H1 8958   4.687   3.860   1.229
 2984TIP3    H2 8959   4.572   3.842   1.326
 2985TIP3   OH2 8960   6.007   0.898   3.361
 2985TIP3    H1 8961   6.050   0.917   3.277
 2985TIP3    H2 8962   5.929   0.953   3.361
 2986TIP3   OH2 8963   1.440   2.239   2.225
 2986TIP3    H1 8964   1.417   2.176   2.294
 2986TIP3    H2 8965   1.508   2.195   2.174
 2987TIP3   OH2 8966   0.392   1.697   1.990
 2987TIP3    H1 8967   0.400   1.673   1.898
 2987TIP3    H2 8968   0.333   1.631   2.028
 2988TIP3   OH2 8969   5.637   4.947   3.013
 2988TIP3    H1 8970   5.581   4.994   2.951
 2988TIP3    H2 8971   5.688   4.887   2.959
 2989TIP3   OH2 8972   0.241   5.868   2.928
 2989TIP3    H1 8973   0.248   5.963   2.937
 2989TIP3    H2 8974   0.153   5.848   2.957
 2990TIP3   OH2 8975   2.512   5.563   4.112
 2990TIP3    H1 8976   2.488   5.622   4.040
 2990TIP3    H2 8977   2.495   5.476   4.077
 2991TIP3   OH2 8978   1.845   5.557   0.739
 2991TIP3    H1 8979   1.756   5.573   0.769
 2991TIP3    H2 8980   1.866   5.469   0.770
 2992TIP3   OH2 8981   1.586   2.151   1.977
 2992TIP3    H1 8982   1.590   2.100   1.896
 2992TIP3    H2 8983   1.577   2.242   1.948
 2993TIP3   OH2 8984   5.356   4.959   4.826
 2993TIP3    H1 8985   5.420   5.030   4.821
 2993TIP3    H2 8986   5.306   4.977   4.905
 2994TIP3   OH2 8987   2.857   4.043   3.274
 2994TIP3    H1 8988   2.861   4.094   3.356
 2994TIP3    H2 8989   2.904   4.097   3.211
 2995TIP3   OH2 8990   0.153   0.138   2.769
 2995TIP3    H1 8991   0.131   0.062   2.822
 2995TIP3    H2 8992   0.246   0.153   2.784
 2996TIP3   OH2 8993   2.122   3.289   4.219
 2996TIP3    H1 8994   2.061   3.308   4.291
 2996TIP3    H2 8995   2.117   3.366   4.162
 2997TIP3   OH2 8996   0.698   5.811   3.107
 2997TIP3    H1 8997   0.622   5.770   3.148
 2997TIP3    H2 8998   0.758   5.739   3.091
 2998TIP3   OH2 8999   0.507   4.751   2.011
 2998TIP3    H1 9000   0.594   4.783   1.988
 2998TIP3    H2 9001   0.508   4.659   1.987
 2999TIP3   OH2 9002   1.754   1.306   0.607
 2999TIP3    H1 9003   1.685   1.330   0.669
 2999TIP3    H2 9004   1.793   1.389   0.581
 3000TIP3   OH2 9005   1.687   2.928   0.285
 3000TIP3    H1 9006   1.704   2.863   0.216
 3000TIP3    H2 9007   1.592   2.943   0.279
 3001TIP3   OH2 9008   1.277   5.529   2.097
 3001TIP3    H1 9009   1.229   5.473   2.158
 3001TIP3    H2 9010   1.337   5.579   2.153
 3002TIP3   OH2 9011   0.559   2.049   2.605
 3002TIP3    H1 9012   0.482   2.092   2.568
 3002TIP3    H2 9013   0.633   2.102   2.575
 3003TIP3   OH2 9014   0.463   1.072   0.304
 3003TIP3    H1 9015   0.379   1.110   0.328
 3003TIP3    H2 9016   0.476   1.096   0.213
 3004TIP3   OH2 9017   4.391   1.034   2.177
 3004TIP3    H1 9018   4.327   0.985   2.227
 3004TIP3    H2 9019   4.361   1.125   2.182
 3005TIP3   OH2 9020   0.334   5.042   0.482
 3005TIP3    H1 9021   0.404   5.106   0.497
 3005TIP3    H2 9022   0.257   5.096   0.461
 3006TIP3   OH2 9023   4.929   5.284   3.642
 3006TIP3    H1 9024   4.925   5.347   3.569
 3006TIP3    H2 9025   4.971   5.333   3.712
 3007TIP3   OH2 9026   4.612   3.718   4.315
 3007TIP3    H1 9027   4.525   3.735   4.279
 3007TIP3    H2 9028   4.603   3.634   4.359
 3008TIP3   OH2 9029   0.542   4.104   3.528
 3008TIP3    H1 9030   0.454   4.128   3.557
 3008TIP3    H2 9031   0.600   4.140   3.596
 3009TIP3   OH2 9032   4.324   3.877   0.382
 3009TIP3    H1 9033   4.298   3.785   0.389
 3009TIP3    H2 9034   4.281   3.920   0.456
 3010TIP3   OH2 9035   6.050   4.994   4.199
 3010TIP3    H1 9036   5.990   5.046   4.253
 3010TIP3    H2 9037   6.137   5.026   4.223
 3011TIP3   OH2 9038   0.756   1.468   0.658
 3011TIP3    H1 9039   0.829   1.407   0.667
 3011TIP3    H2 9040   0.787   1.536   0.598
 3012TIP3   OH2 9041   6.027   3.790   4.527
 3012TIP3    H1 9042   6.093   3.785   4.596
 3012TIP3    H2 9043   5.952   3.833   4.569
 3013TIP3   OH2 9044   3.718   5.344   2.096
 3013TIP3    H1 9045   3.715   5.258   2.055
 3013TIP3    H2 9046   3.805   5.349   2.136
 3014TIP3   OH2 9047   0.946   1.876   2.055
 3014TIP3    H1 9048   0.945   1.805   2.119
 3014TIP3    H2 9049   0.898   1.947   2.098
 3015TIP3   OH2 9050   2.062   0.379   1.587
 3015TIP3    H1 9051   2.155   0.400   1.581
 3015TIP3    H2 9052   2.025   0.448   1.642
 3016TIP3   OH2 9053   0.215   5.846   0.038
 3016TIP3    H1 9054   0.175   5.767   0.075
 3016TIP3    H2 9055   0.296   5.815  -0.002
 3017TIP3   OH2 9056   3.087   2.370   5.139
 3017TIP3    H1 9057   3.147   2.297   5.154
 3017TIP3    H2 9058   3.002   2.327   5.125
 3018TIP3   OH2 9059   3.064   5.709   5.147
 3018TIP3    H1 9060   3.149   5.740   5.117
 3018TIP3    H2 9061   3.030   5.781   5.201
 3019TIP3   OH2 9062   2.387   0.227   3.712
 3019TIP3    H1 9063   2.355   0.303   3.760
 3019TIP3    H2 9064   2.425   0.170   3.778
 3020TIP3   OH2 9065   4.248   5.737   5.133
 3020TIP3    H1 9066   4.310   5.725   5.061
 3020TIP3    H2 9067   4.255   5.655   5.183
 3021TIP3   OH2 9068   2.849   0.555   2.136
 3021TIP3    H1 9069   2.775   0.494   2.138
 3021TIP3    H2 9070   2.813   0.636   2.100
 3022TIP3   OH2 9071   0.921   5.479   0.475
 3022TIP3    H1 9072   0.882   5.402   0.433
 3022TIP3    H2 9073   0.853   5.546   0.470
 3023TIP3   OH2 9074   1.610   3.115   4.462
 3023TIP3    H1 9075   1.564   3.198   4.473
 3023TIP3    H2 9076   1.540   3.049   4.464
 3024TIP3   OH2 9077   1.753   5.741   5.088
 3024TIP3    H1 9078   1.743   5.754   4.994
 3024TIP3    H2 9079   1.833   5.688   5.096
 3025TIP3   OH2 9080   2.087   4.723   3.080
 3025TIP3    H1 9081   2.151   4.675   3.133
 3025TIP3    H2 9082   2.100   4.691   2.991
 3026TIP3   OH2 9083   3.999   0.938   5.102
 3026TIP3    H1 9084   3.909   0.965   5.086
 3026TIP3    H2 9085   4.048   0.973   5.027
 3027TIP3   OH2 9086   5.049   1.997   2.027
 3027TIP3    H1 9087   5.105   2.053   2.080
 3027TIP3    H2 9088   4.960   2.026   2.047
 3028TIP3   OH2 9089   5.394   0.721   2.157
 3028TIP3    H1 9090   5.338   0.796   2.137
 3028TIP3    H2 9091   5.436   0.699   2.074
 3029TIP3   OH2 9092   5.993   1.527   3.256
 3029TIP3    H1 9093   5.902   1.557   3.258
 3029TIP3    H2 9094   6.012   1.503   3.347
 3030TIP3   OH2 9095   0.500   1.474   0.784
 3030TIP3    H1 9096   0.446   1.550   0.763
 3030TIP3    H2 9097   0.574   1.479   0.724
 3031TIP3   OH2 9098   4.465   4.531   4.012
 3031TIP3    H1 9099   4.446   4.440   3.986
 3031TIP3    H2 9100   4.522   4.564   3.942
 3032TIP3   OH2 9101   0.960   4.637   1.581
 3032TIP3    H1 9102   1.013   4.650   1.659
 3032TIP3    H2 9103   1.003   4.690   1.514
 3033TIP3   OH2 9104   2.538   0.806   2.376
 3033TIP3    H1 9105   2.613   0.833   2.431
 3033TIP3    H2 9106   2.500   0.732   2.423
 3034TIP3   OH2 9107   1.512   0.111   3.336
 3034TIP3    H1 9108   1.445   0.110   3.404
 3034TIP3    H2 9109   1.575   0.177   3.365
 3035TIP3   OH2 9110   5.450   4.143   4.724
 3035TIP3    H1 9111   5.430   4.142   4.630
 3035TIP3    H2 9112   5.382   4.197   4.763
 3036TIP3   OH2 9113   0.761   5.472   0.103
 3036TIP3    H1 9114   0.760   5.502   0.194
 3036TIP3    H2 9115   0.809   5.389   0.106
 3037TIP3   OH2 9116   0.849   2.199   0.068
 3037TIP3    H1 9117   0.793   2.167  -0.003
 3037TIP3    H2 9118   0.932   2.220   0.025
 3038TIP3   OH2 9119   2.540   3.261   1.152
 3038TIP3    H1 9120   2.613   3.240   1.211
 3038TIP3    H2 9121   2.462   3.253   1.207
 3039TIP3   OH2 9122   4.469   1.531   4.301
 3039TIP3    H1 9123   4.512   1.615   4.285
 3039TIP3    H2 9124   4.392   1.553   4.353
 3040TIP3   OH2 9125   5.107   1.860   3.945
 3040TIP3    H1 9126   5.144   1.805   4.014
 3040TIP3    H2 9127   5.127   1.949   3.972
 3041TIP3   OH2 9128   3.617   5.835   1.916
 3041TIP3    H1 9129   3.574   5.891   1.851
 3041TIP3    H2 9130   3.710   5.844   1.899
 3042TIP3   OH2 9131   0.787   4.345   3.567
 3042TIP3    H1 9132   0.816   4.261   3.531
 3042TIP3    H2 9133   0.739   4.387   3.496
 3043TIP3   OH2 9134   5.863   0.682   3.770
 3043TIP3    H1 9135   5.922   0.687   3.695
 3043TIP3    H2 9136   5.830   0.593   3.768
 3044TIP3   OH2 9137   3.327   2.621   1.831
 3044TIP3    H1 9138   3.330   2.648   1.923
 3044TIP3    H2 9139   3.261   2.678   1.792
 3045TIP3   OH2 9140   3.480   4.593   4.457
 3045TIP3    H1 9141   3.440   4.673   4.489
 3045TIP3    H2 9142   3.407   4.539   4.429
 3046TIP3   OH2 9143   5.860   2.235   4.704
 3046TIP3    H1 9144   5.945   2.270   4.731
 3046TIP3    H2 9145   5.798   2.306   4.719
 3047TIP3   OH2 9146   3.735   1.687   3.539
 3047TIP3    H1 9147   3.708   1.602   3.505
 3047TIP3    H2 9148   3.674   1.749   3.498
 3048TIP3   OH2 9149   4.813   5.102   2.305
 3048TIP3    H1 9150   4.842   5.136   2.390
 3048TIP3    H2 9151   4.894   5.089   2.255
 3049TIP3   OH2 9152   0.468   0.690   2.980
 3049TIP3    H1 9153   0.424   0.632   2.917
 3049TIP3    H2 9154   0.472   0.775   2.936
 3050TIP3   OH2 9155   0.139   0.227   3.500
 3050TIP3    H1 9156   0.233   0.219   3.482
 3050TIP3    H2 9157   0.134   0.295   3.568
 3051TIP3   OH2 9158   4.186   2.418   4.790
 3051TIP3    H1 9159   4.214   2.485   4.728
 3051TIP3    H2 9160   4.258   2.356   4.793
 3052TIP3   OH2 9161   2.550   4.831   0.442
 3052TIP3    H1 9162   2.520   4.906   0.391
 3052TIP3    H2 9163   2.473   4.804   0.492
 3053TIP3   OH2 9164   3.630   1.980   2.609
 3053TIP3    H1 9165   3.548   1.993   2.561
 3053TIP3    H2 9166   3.679   2.061   2.595
 3054TIP3   OH2 9167   1.976   1.441   3.052
 3054TIP3    H1 9168   2.024   1.475   2.977
 3054TIP3    H2 9169   1.906   1.505   3.067
 3055TIP3   OH2 9170   4.521   5.332   0.799
 3055TIP3    H1 9171   4.471   5.402   0.757
 3055TIP3    H2 9172   4.472   5.252   0.778
 3056TIP3   OH2 9173   2.242   0.664   3.076
 3056TIP3    H1 9174   2.158   0.702   3.050
 3056TIP3    H2 9175   2.308   0.726   3.045
 3057TIP3   OH2 9176   1.695   2.750   4.211
 3057TIP3    H1 9177   1.722   2.774   4.122
 3057TIP3    H2 9178   1.756   2.797   4.268
 3058TIP3   OH2 9179   0.595   4.810   4.013
 3058TIP3    H1 9180   0.591   4.726   3.967
 3058TIP3    H2 9181   0.649   4.792   4.090
 3059TIP3   OH2 9182   0.441   3.354   5.065
 3059TIP3    H1 9183   0.475   3.265   5.070
 3059TIP3    H2 9184   0.491   3.403   5.130
 3060TIP3   OH2 9185   5.204   5.184   0.352
 3060TIP3    H1 9186   5.193   5.274   0.321
 3060TIP3    H2 9187   5.279   5.151   0.302
 3061TIP3   OH2 9188   2.050   1.867   2.584
 3061TIP3    H1 9189   1.980   1.848   2.647
 3061TIP3    H2 9190   2.031   1.811   2.509
 3062TIP3   OH2 9191   3.487   2.120   0.321
 3062TIP3    H1 9192   3.401   2.137   0.360
 3062TIP3    H2 9193   3.534   2.071   0.388
 3063TIP3   OH2 9194   5.969   4.876   1.545
 3063TIP3    H1 9195   5.934   4.870   1.634
 3063TIP3    H2 9196   6.064   4.881   1.557
 3064TIP3   OH2 9197   3.714   5.413   3.455
 3064TIP3    H1 9198   3.797   5.382   3.417
 3064TIP3    H2 9199   3.708   5.504   3.428
 3065TIP3   OH2 9200   5.636   3.079   3.333
 3065TIP3    H1 9201   5.562   3.018   3.335
 3065TIP3    H2 9202   5.713   3.024   3.345
 3066TIP3   OH2 9203   5.462   3.546   4.787
 3066TIP3    H1 9204   5.394   3.488   4.751
 3066TIP3    H2 9205   5.436   3.634   4.758
 3067TIP3   OH2 9206   3.528   2.601   0.299
 3067TIP3    H1 9207   3.579   2.521   0.284
 3067TIP3    H2 9208   3.440   2.570   0.319
 3068TIP3   OH2 9209   2.998   1.729   4.799
 3068TIP3    H1 9210   2.922   1.691   4.842
 3068TIP3    H2 9211   3.029   1.660   4.740
 3069TIP3   OH2 9212   1.234   0.796   0.657
 3069TIP3    H1 9213   1.252   0.727   0.594
 3069TIP3    H2 9214   1.201   0.869   0.604
 3070TIP3   OH2 9215   2.843   2.894   4.506
 3070TIP3    H1 9216   2.882   2.831   4.567
 3070TIP3    H2 9217   2.765   2.926   4.551
 3071TIP3   OH2 9218   5.271   5.259   3.640
 3071TIP3    H1 9219   5.314   5.176   3.659
 3071TIP3    H2 9220   5.248   5.294   3.726
 3072TIP3   OH2 9221   0.912   4.109   3.449
 3072TIP3    H1 9222   0.897   4.084   3.358
 3072TIP3    H2 9223   0.960   4.034   3.486
 3073TIP3   OH2 9224   5.869   0.102   0.114
 3073TIP3    H1 9225   5.958   0.071   0.094
 3073TIP3    H2 9226   5.816   0.023   0.116
 3074TIP3   OH2 9227   4.485   5.402   2.618
 3074TIP3    H1 9228   4.461   5.490   2.648
 3074TIP3    H2 9229   4.519   5.359   2.696
 3075TIP3   OH2 9230   3.315   5.774   5.064
 3075TIP3    H1 9231   3.398   5.785   5.109
 3075TIP3    H2 9232   3.328   5.819   4.980
 3076TIP3   OH2 9233   4.259   0.187   3.986
 3076TIP3    H1 9234   4.338   0.158   3.941
 3076TIP3    H2 9235   4.228   0.109   4.032
 3077TIP3   OH2 9236   3.751   4.407   3.770
 3077TIP3    H1 9237   3.743   4.412   3.865
 3077TIP3    H2 9238   3.661   4.391   3.739
 3078TIP3   OH2 9239   6.122   2.308   4.279
 3078TIP3    H1 9240   6.162   2.368   4.217
 3078TIP3    H2 9241   6.063   2.364   4.330
 3079TIP3   OH2 9242   0.673   5.418   4.752
 3079TIP3    H1 9243   0.726   5.379   4.682
 3079TIP3    H2 9244   0.637   5.342   4.800
 3080TIP3   OH2 9245   1.867   5.818   3.875
 3080TIP3    H1 9246   1.857   5.913   3.883
 3080TIP3    H2 9247   1.943   5.806   3.818
 3081TIP3   OH2 9248   4.950   0.293   2.302
 3081TIP3    H1 9249   4.967   0.280   2.209
 3081TIP3    H2 9250   5.024   0.345   2.334
 3082TIP3   OH2 9251   2.331   2.927   0.958
 3082TIP3    H1 9252   2.277   3.005   0.944
 3082TIP3    H2 9253   2.285   2.857   0.910
 3083TIP3   OH2 9254   1.673   2.711   3.557
 3083TIP3    H1 9255   1.720   2.729   3.639
 3083TIP3    H2 9256   1.609   2.644   3.581
 3084TIP3   OH2 9257   2.141   4.613   4.644
 3084TIP3    H1 9258   2.084   4.542   4.614
 3084TIP3    H2 9259   2.134   4.680   4.576
 3085TIP3   OH2 9260   3.663   1.323   4.939
 3085TIP3    H1 9261   3.731   1.359   4.995
 3085TIP3    H2 9262   3.691   1.233   4.921
 3086TIP3   OH2 9263   1.311   5.142   1.353
 3086TIP3    H1 9264   1.372   5.161   1.424
 3086TIP3    H2 9265   1.227   5.129   1.397
 3087TIP3   OH2 9266   3.939   0.363   0.745
 3087TIP3    H1 9267   3.980   0.291   0.794
 3087TIP3    H2 9268   3.880   0.404   0.808
 3088TIP3   OH2 9269   5.201   5.708   2.895
 3088TIP3    H1 9270   5.121   5.759   2.883
 3088TIP3    H2 9271   5.192   5.668   2.981
 3089TIP3   OH2 9272   4.098   1.518   2.162
 3089TIP3    H1 9273   4.159   1.532   2.235
 3089TIP3    H2 9274   4.014   1.501   2.205
 3090TIP3   OH2 9275   5.567   0.215   4.144
 3090TIP3    H1 9276   5.607   0.251   4.223
 3090TIP3    H2 9277   5.640   0.194   4.087
 3091TIP3   OH2 9278   3.146   0.371   0.285
 3091TIP3    H1 9279   3.135   0.403   0.374
 3091TIP3    H2 9280   3.059   0.381   0.245
 3092TIP3   OH2 9281   3.165   0.262   3.260
 3092TIP3    H1 9282   3.116   0.180   3.258
 3092TIP3    H2 9283   3.234   0.247   3.324
 3093TIP3   OH2 9284   2.767   4.533   1.354
 3093TIP3    H1 9285   2.824   4.601   1.319
 3093TIP3    H2 9286   2.792   4.454   1.307
 3094TIP3   OH2 9287   3.936   3.877   4.985
 3094TIP3    H1 9288   3.934   3.971   4.965
 3094TIP3    H2 9289   3.950   3.835   4.900
 3095TIP3   OH2 9290   6.205   4.577   1.142
 3095TIP3    H1 9291   6.147   4.515   1.099
 3095TIP3    H2 9292   6.252   4.526   1.208
 3096TIP3   OH2 9293   0.518   4.879   1.637
 3096TIP3    H1 9294   0.552   4.792   1.655
 3096TIP3    H2 9295   0.504   4.880   1.542
 3097TIP3   OH2 9296   1.216   2.416   4.223
 3097TIP3    H1 9297   1.123   2.437   4.231
 3097TIP3    H2 9298   1.261   2.490   4.263
 3098TIP3   OH2 9299   6.062   5.115   3.387
 3098TIP3    H1 9300   6.015   5.172   3.327
 3098TIP3    H2 9301   6.051   5.157   3.473
 3099TIP3   OH2 9302   3.094   1.062   3.168
 3099TIP3    H1 9303   3.109   1.131   3.103
 3099TIP3    H2 9304   3.049   0.993   3.120
 3100TIP3   OH2 9305   4.946   2.714   0.702
 3100TIP3    H1 9306   5.033   2.677   0.710
 3100TIP3    H2 9307   4.907   2.669   0.627
 3101TIP3   OH2 9308   1.029   0.062   1.945
 3101TIP3    H1 9309   1.058   0.005   1.874
 3101TIP3    H2 9310   1.023   0.149   1.906
 3102TIP3   OH2 9311   3.519   0.163   3.048
 3102TIP3    H1 9312   3.426   0.183   3.042
 3102TIP3    H2 9313   3.541   0.124   2.964
 3103TIP3   OH2 9314   2.669   3.140   1.443
 3103TIP3    H1 9315   2.744   3.155   1.500
 3103TIP3    H2 9316   2.697   3.070   1.384
 3104TIP3   OH2 9317   0.649   1.735   2.633
 3104TIP3    H1 9318   0.648   1.688   2.716
 3104TIP3    H2 9319   0.654   1.828   2.658
 3105TIP3   OH2 9320   2.910   1.061   4.207
 3105TIP3    H1 9321   2.820   1.092   4.194
 3105TIP3    H2 9322   2.954   1.077   4.124
 3106TIP3   OH2 9323   5.069   3.923   4.464
 3106TIP3    H1 9324   4.977   3.917   4.439
 3106TIP3    H2 9325   5.116   3.926   4.381
 3107TIP3   OH2 9326   4.503   5.128   4.502
 3107TIP3    H1 9327   4.465   5.198   4.450
 3107TIP3    H2 9328   4.569   5.171   4.556
 3108TIP3   OH2 9329   0.880   4.312   2.676
 3108TIP3    H1 9330   0.934   4.274   2.607
 3108TIP3    H2 9331   0.887   4.249   2.749
 3109TIP3   OH2 9332   4.030   0.442   2.141
 3109TIP3    H1 9333   4.018   0.522   2.191
 3109TIP3    H2 9334   3.948   0.433   2.091
 3110TIP3   OH2 9335   5.378   5.455   0.936
 3110TIP3    H1 9336   5.426   5.422   1.012
 3110TIP3    H2 9337   5.329   5.380   0.904
 3111TIP3   OH2 9338   3.896   4.226   3.187
 3111TIP3    H1 9339   3.889   4.162   3.116
 3111TIP3    H2 9340   3.856   4.182   3.262
 3112TIP3   OH2 9341   1.081   4.064   0.502
 3112TIP3    H1 9342   0.992   4.097   0.511
 3112TIP3    H2 9343   1.090   4.046   0.408
 3113TIP3   OH2 9344   0.703   1.322   1.367
 3113TIP3    H1 9345   0.692   1.385   1.296
 3113TIP3    H2 9346   0.657   1.244   1.338
 3114TIP3   OH2 9347   3.092   2.464   0.051
 3114TIP3    H1 9348   3.032   2.483   0.124
 3114TIP3    H2 9349   3.106   2.370   0.055
 3115TIP3   OH2 9350   1.383   1.645   4.076
 3115TIP3    H1 9351   1.435   1.691   4.142
 3115TIP3    H2 9352   1.314   1.601   4.126
 3116TIP3   OH2 9353   5.382   1.755   0.333
 3116TIP3    H1 9354   5.378   1.663   0.358
 3116TIP3    H2 9355   5.302   1.771   0.284
 3117TIP3   OH2 9356   5.538   2.569   0.588
 3117TIP3    H1 9357   5.543   2.659   0.557
 3117TIP3    H2 9358   5.547   2.516   0.509
 3118TIP3   OH2 9359   4.061   3.844   0.138
 3118TIP3    H1 9360   4.129   3.821   0.201
 3118TIP3    H2 9361   4.107   3.894   0.070
 3119TIP3   OH2 9362   1.255   3.512   1.034
 3119TIP3    H1 9363   1.229   3.562   0.957
 3119TIP3    H2 9364   1.262   3.421   1.004
 3120TIP3   OH2 9365   2.895   2.084   2.240
 3120TIP3    H1 9366   2.909   2.114   2.329
 3120TIP3    H2 9367   2.983   2.076   2.203
 3121TIP3   OH2 9368   3.872   5.627   2.420
 3121TIP3    H1 9369   3.810   5.696   2.400
 3121TIP3    H2 9370   3.934   5.666   2.481
 3122TIP3   OH2 9371   5.202   4.872   4.323
 3122TIP3    H1 9372   5.130   4.839   4.270
 3122TIP3    H2 9373   5.273   4.809   4.309
 3123TIP3   OH2 9374   2.124   1.927   0.902
 3123TIP3    H1 9375   2.041   1.928   0.853
 3123TIP3    H2 9376   2.146   1.834   0.910
 3124TIP3   OH2 9377   4.460   0.373   3.039
 3124TIP3    H1 9378   4.533   0.431   3.062
 3124TIP3    H2 9379   4.382   0.419   3.068
 3125TIP3   OH2 9380   5.932   3.909   2.026
 3125TIP3    H1 9381   5.950   3.815   2.020
 3125TIP3    H2 9382   6.007   3.950   1.982
 3126TIP3   OH2 9383   4.677   0.769   0.595
 3126TIP3    H1 9384   4.703   0.767   0.687
 3126TIP3    H2 9385   4.753   0.805   0.548
 3127TIP3   OH2 9386   5.069   4.910   1.480
 3127TIP3    H1 9387   5.031   4.870   1.558
 3127TIP3    H2 9388   5.022   4.992   1.469
 3128TIP3   OH2 9389   1.318   3.505   0.632
 3128TIP3    H1 9390   1.232   3.483   0.666
 3128TIP3    H2 9391   1.301   3.551   0.550
 3129TIP3   OH2 9392   2.436   1.336   1.632
 3129TIP3    H1 9393   2.463   1.340   1.540
 3129TIP3    H2 9394   2.421   1.242   1.648
 3130TIP3   OH2 9395   0.412   3.709   0.439
 3130TIP3    H1 9396   0.429   3.795   0.477
 3130TIP3    H2 9397   0.340   3.723   0.378
 3131TIP3   OH2 9398   6.164   5.771   4.229
 3131TIP3    H1 9399   6.237   5.812   4.183
 3131TIP3    H2 9400   6.086   5.816   4.196
 3132TIP3   OH2 9401   2.955   4.888   2.781
 3132TIP3    H1 9402   2.991   4.802   2.760
 3132TIP3    H2 9403   2.991   4.947   2.715
 3133TIP3   OH2 9404   1.195   2.836   3.670
 3133TIP3    H1 9405   1.152   2.904   3.617
 3133TIP3    H2 9406   1.132   2.816   3.739
 3134TIP3   OH2 9407   4.630   0.970   2.263
 3134TIP3    H1 9408   4.658   1.024   2.337
 3134TIP3    H2 9409   4.542   1.000   2.242
 3135TIP3   OH2 9410   4.471   2.381   1.772
 3135TIP3    H1 9411   4.468   2.449   1.839
 3135TIP3    H2 9412   4.564   2.365   1.759
 3136TIP3   OH2 9413   1.392   3.246   1.300
 3136TIP3    H1 9414   1.448   3.242   1.222
 3136TIP3    H2 9415   1.316   3.192   1.277
 3137TIP3   OH2 9416   2.786   3.281   2.377
 3137TIP3    H1 9417   2.763   3.245   2.291
 3137TIP3    H2 9418   2.706   3.323   2.407
 3138TIP3   OH2 9419   5.452   5.067   1.677
 3138TIP3    H1 9420   5.364   5.081   1.644
 3138TIP3    H2 9421   5.499   5.026   1.604
 3139TIP3   OH2 9422   4.691   0.996   1.053
 3139TIP3    H1 9423   4.614   0.958   1.094
 3139TIP3    H2 9424   4.659   1.032   0.970
 3140TIP3   OH2 9425   4.681   5.212   0.393
 3140TIP3    H1 9426   4.645   5.125   0.414
 3140TIP3    H2 9427   4.764   5.193   0.349
 3141TIP3   OH2 9428   0.553   2.787   3.414
 3141TIP3    H1 9429   0.505   2.731   3.351
 3141TIP3    H2 9430   0.624   2.825   3.362
 3142TIP3   OH2 9431   1.253   1.181   2.349
 3142TIP3    H1 9432   1.223   1.265   2.315
 3142TIP3    H2 9433   1.206   1.116   2.297
 3143TIP3   OH2 9434   5.042   1.361   1.461
 3143TIP3    H1 9435   5.066   1.290   1.402
 3143TIP3    H2 9436   4.998   1.425   1.405
 3144TIP3   OH2 9437   1.098   2.153   4.687
 3144TIP3    H1 9438   1.132   2.068   4.715
 3144TIP3    H2 9439   1.167   2.188   4.631
 3145TIP3   OH2 9440   1.108   5.461   3.124
 3145TIP3    H1 9441   1.148   5.497   3.203
 3145TIP3    H2 9442   1.176   5.404   3.087
 3146TIP3   OH2 9443   3.953   2.874   5.120
 3146TIP3    H1 9444   3.914   2.948   5.074
 3146TIP3    H2 9445   4.039   2.904   5.146
 3147TIP3   OH2 9446   2.042   5.872   3.254
 3147TIP3    H1 9447   2.063   5.870   3.161
 3147TIP3    H2 9448   2.083   5.953   3.286
 3148TIP3   OH2 9449   3.004   0.313   2.245
 3148TIP3    H1 9450   2.912   0.320   2.271
 3148TIP3    H2 9451   3.002   0.303   2.150
 3149TIP3   OH2 9452   2.605   4.623   5.007
 3149TIP3    H1 9453   2.553   4.700   4.983
 3149TIP3    H2 9454   2.635   4.588   4.923
 3150TIP3   OH2 9455   4.423   0.019   2.118
 3150TIP3    H1 9456   4.404   0.094   2.175
 3150TIP3    H2 9457   4.362  -0.049   2.146
 3151TIP3   OH2 9458   4.078   1.464   4.222
 3151TIP3    H1 9459   4.092   1.497   4.311
 3151TIP3    H2 9460   4.160   1.482   4.177
 3152TIP3   OH2 9461   3.614   3.851   0.387
 3152TIP3    H1 9462   3.709   3.838   0.384
 3152TIP3    H2 9463   3.603   3.946   0.386
 3153TIP3   OH2 9464   0.143   3.208   4.138
 3153TIP3    H1 9465   0.097   3.125   4.154
 3153TIP3    H2 9466   0.077   3.276   4.156
 3154TIP3   OH2 9467   0.020   2.147   4.536
 3154TIP3    H1 9468   0.067   2.064   4.525
 3154TIP3    H2 9469  -0.072   2.122   4.543
 3155TIP3   OH2 9470   4.336   2.542   2.308
 3155TIP3    H1 9471   4.343   2.470   2.246
 3155TIP3    H2 9472   4.423   2.548   2.349
 3156TIP3   OH2 9473   0.317   0.724   0.435
 3156TIP3    H1 9474   0.408   0.733   0.461
 3156TIP3    H2 9475   0.268   0.774   0.501
 3157TIP3   OH2 9476   0.904   0.235   4.824
 3157TIP3    H1 9477   0.997   0.218   4.809
 3157TIP3    H2 9478   0.881   0.305   4.763
 3158TIP3   OH2 9479   4.940   4.018   4.968
 3158TIP3    H1 9480   4.944   3.977   4.882
 3158TIP3    H2 9481   4.854   4.061   4.970
 3159TIP3   OH2 9482   1.744   2.303   2.616
 3159TIP3    H1 9483   1.767   2.228   2.670
 3159TIP3    H2 9484   1.649   2.299   2.609
 3160TIP3   OH2 9485   3.203   2.828   1.707
 3160TIP3    H1 9486   3.109   2.845   1.716
 3160TIP3    H2 9487   3.215   2.805   1.615
 3161TIP3   OH2 9488   2.305   2.934   0.113
 3161TIP3    H1 9489   2.243   2.994   0.071
 3161TIP3    H2 9490   2.340   2.881   0.041
 3162TIP3   OH2 9491   4.054   5.608   1.930
 3162TIP3    H1 9492   3.979   5.662   1.906
 3162TIP3    H2 9493   4.091   5.650   2.008
 3163TIP3   OH2 9494   5.251   1.955   3.456
 3163TIP3    H1 9495   5.227   1.881   3.511
 3163TIP3    H2 9496   5.169   2.000   3.438
 3164TIP3   OH2 9497   5.773   2.340   3.555
 3164TIP3    H1 9498   5.757   2.414   3.613
 3164TIP3    H2 9499   5.711   2.273   3.585
 3165TIP3   OH2 9500   1.320   0.206   3.909
 3165TIP3    H1 9501   1.282   0.261   3.841
 3165TIP3    H2 9502   1.283   0.119   3.893
 3166TIP3   OH2 9503   1.804   5.015   4.959
 3166TIP3    H1 9504   1.887   4.996   4.917
 3166TIP3    H2 9505   1.820   5.003   5.052
 3167TIP3   OH2 9506   3.033   3.152   3.880
 3167TIP3    H1 9507   3.127   3.150   3.895
 3167TIP3    H2 9508   3.013   3.068   3.838
 3168TIP3   OH2 9509   1.759   3.291   3.094
 3168TIP3    H1 9510   1.804   3.213   3.127
 3168TIP3    H2 9511   1.747   3.345   3.173
 3169TIP3   OH2 9512   6.105   5.612   3.918
 3169TIP3    H1 9513   6.161   5.680   3.879
 3169TIP3    H2 9514   6.165   5.541   3.940
 3170TIP3   OH2 9515   3.185   4.071   3.706
 3170TIP3    H1 9516   3.099   4.041   3.733
 3170TIP3    H2 9517   3.187   4.163   3.732
 3171TIP3   OH2 9518   1.825   3.922   2.977
 3171TIP3    H1 9519   1.841   4.014   2.955
 3171TIP3    H2 9520   1.840   3.918   3.072
 3172TIP3   OH2 9521   4.473   2.570   1.977
 3172TIP3    H1 9522   4.517   2.517   2.043
 3172TIP3    H2 9523   4.380   2.546   1.985
 3173TIP3   OH2 9524   2.202   3.530   3.827
 3173TIP3    H1 9525   2.200   3.620   3.795
 3173TIP3    H2 9526   2.275   3.490   3.780
 3174TIP3   OH2 9527   4.498   5.673   4.380
 3174TIP3    H1 9528   4.410   5.697   4.408
 3174TIP3    H2 9529   4.492   5.667   4.284
 3175TIP3   OH2 9530   0.933   1.294   3.515
 3175TIP3    H1 9531   0.998   1.363   3.502
 3175TIP3    H2 9532   0.975   1.231   3.574
 3176TIP3   OH2 9533   3.600   5.764   3.897
 3176TIP3    H1 9534   3.541   5.836   3.874
 3176TIP3    H2 9535   3.597   5.760   3.993
 3177TIP3   OH2 9536   6.190   3.633   0.890
 3177TIP3    H1 9537   6.191   3.711   0.834
 3177TIP3    H2 9538   6.273   3.637   0.938
 3178TIP3   OH2 9539   6.025   5.258   2.473
 3178TIP3    H1 9540   5.977   5.180   2.444
 3178TIP3    H2 9541   5.957   5.320   2.499
 3179TIP3   OH2 9542   0.243   5.829   1.197
 3179TIP3    H1 9543   0.189   5.857   1.122
 3179TIP3    H2 9544   0.293   5.907   1.221
 3180TIP3   OH2 9545   5.528   5.308   1.151
 3180TIP3    H1 9546   5.519   5.213   1.143
 3180TIP3    H2 9547   5.501   5.328   1.241
 3181TIP3   OH2 9548   2.900   2.983   4.979
 3181TIP3    H1 9549   2.809   3.011   4.966
 3181TIP3    H2 9550   2.952   3.049   4.934
 3182TIP3   OH2 9551   6.342   4.988   4.182
 3182TIP3    H1 9552   6.357   4.936   4.103
 3182TIP3    H2 9553   6.402   4.950   4.247
 3183TIP3   OH2 9554   6.367   4.603   1.360
 3183TIP3    H1 9555   6.375   4.530   1.420
 3183TIP3    H2 9556   6.280   4.639   1.378
 3184TIP3   OH2 9557   5.111   1.653   0.453
 3184TIP3    H1 9558   5.079   1.743   0.463
 3184TIP3    H2 9559   5.096   1.633   0.360
 3185TIP3   OH2 9560   0.445   4.676   3.364
 3185TIP3    H1 9561   0.349   4.683   3.365
 3185TIP3    H2 9562   0.467   4.670   3.271
 3186TIP3   OH2 9563   5.342   5.144   0.024
 3186TIP3    H1 9564   5.392   5.116  -0.053
 3186TIP3    H2 9565   5.341   5.068   0.081
 3187TIP3   OH2 9566   2.819   3.168   0.215
 3187TIP3    H1 9567   2.867   3.123   0.285
 3187TIP3    H2 9568   2.887   3.198   0.155
 3188TIP3   OH2 9569   5.540   3.643   0.413
 3188TIP3    H1 9570   5.447   3.645   0.436
 3188TIP3    H2 9571   5.542   3.607   0.324
 3189TIP3   OH2 9572   0.605   1.274   0.979
 3189TIP3    H1 9573   0.579   1.328   1.053
 3189TIP3    H2 9574   0.605   1.333   0.904
 3190TIP3   OH2 9575   1.399   3.107   0.714
 3190TIP3    H1 9576   1.441   3.098   0.629
 3190TIP3    H2 9577   1.409   3.021   0.756
 3191TIP3   OH2 9578   2.184   0.966   1.166
 3191TIP3    H1 9579   2.214   0.879   1.138
 3191TIP3    H2 9580   2.198   1.022   1.090
 3192TIP3   OH2 9581   4.281   1.540   4.029
 3192TIP3    H1 9582   4.306   1.627   4.059
 3192TIP3    H2 9583   4.361   1.504   3.990
 3193TIP3   OH2 9584   4.930   5.572   1.837
 3193TIP3    H1 9585   4.855   5.562   1.896
 3193TIP3    H2 9586   4.931   5.665   1.814
 3194TIP3   OH2 9587   2.860   0.417   3.217
 3194TIP3    H1 9588   2.841   0.501   3.177
 3194TIP3    H2 9589   2.925   0.377   3.159
 3195TIP3   OH2 9590   2.982   5.674   0.338
 3195TIP3    H1 9591   2.941   5.680   0.251
 3195TIP3    H2 9592   2.967   5.760   0.377
 3196TIP3   OH2 9593   4.785   3.995   3.510
 3196TIP3    H1 9594   4.718   4.040   3.460
 3196TIP3    H2 9595   4.830   4.064   3.559
 3197TIP3   OH2 9596   0.126   2.249   0.802
 3197TIP3    H1 9597   0.128   2.273   0.894
 3197TIP3    H2 9598   0.036   2.266   0.774
 3198TIP3   OH2 9599   2.743   2.294   1.919
 3198TIP3    H1 9600   2.736   2.344   2.001
 3198TIP3    H2 9601   2.808   2.342   1.868
 3199TIP3   OH2 9602   4.425   4.318   4.356
 3199TIP3    H1 9603   4.385   4.278   4.279
 3199TIP3    H2 9604   4.474   4.393   4.322
 3200TIP3   OH2 9605   0.097   3.361   3.632
 3200TIP3    H1 9606   0.023   3.311   3.597
 3200TIP3    H2 9607   0.160   3.295   3.660
 3201TIP3   OH2 9608   4.530   1.271   3.127
 3201TIP3    H1 9609   4.536   1.293   3.220
 3201TIP3    H2 9610   4.533   1.176   3.124
 3202TIP3   OH2 9611   0.223   0.339   3.089
 3202TIP3    H1 9612   0.157   0.408   3.099
 3202TIP3    H2 9613   0.175   0.266   3.048
 3203TIP3   OH2 9614   5.957   0.570   2.160
 3203TIP3    H1 9615   5.886   0.634   2.167
 3203TIP3    H2 9616   5.915   0.486   2.180
 3204TIP3   OH2 9617   4.332   1.218   4.426
 3204TIP3    H1 9618   4.279   1.219   4.347
 3204TIP3    H2 9619   4.269   1.234   4.497
 3205TIP3   OH2 9620   5.140   0.413   0.716
 3205TIP3    H1 9621   5.127   0.498   0.759
 3205TIP3    H2 9622   5.233   0.412   0.693
 3206TIP3   OH2 9623   4.431   4.139   0.366
 3206TIP3    H1 9624   4.458   4.170   0.452
 3206TIP3    H2 9625   4.388   4.055   0.382
 3207TIP3   OH2 9626   0.213   0.449   4.234
 3207TIP3    H1 9627   0.139   0.389   4.240
 3207TIP3    H2 9628   0.223   0.483   4.323
 3208TIP3   OH2 9629   2.334   4.342   4.857
 3208TIP3    H1 9630   2.362   4.250   4.860
 3208TIP3    H2 9631   2.310   4.363   4.947
 3209TIP3   OH2 9632   4.628   4.515   2.704
 3209TIP3    H1 9633   4.646   4.456   2.631
 3209TIP3    H2 9634   4.682   4.592   2.685
 3210TIP3   OH2 9635   5.577   1.785   1.352
 3210TIP3    H1 9636   5.542   1.808   1.266
 3210TIP3    H2 9637   5.637   1.857   1.373
 3211TIP3   OH2 9638   2.442   2.852   3.407
 3211TIP3    H1 9639   2.505   2.872   3.338
 3211TIP3    H2 9640   2.394   2.775   3.374
 3212TIP3   OH2 9641   3.283   2.694   4.824
 3212TIP3    H1 9642   3.308   2.643   4.747
 3212TIP3    H2 9643   3.202   2.654   4.854
 3213TIP3   OH2 9644   3.850   1.745   0.661
 3213TIP3    H1 9645   3.768   1.736   0.711
 3213TIP3    H2 9646   3.918   1.751   0.728
 3214TIP3   OH2 9647   0.647   4.906   0.201
 3214TIP3    H1 9648   0.640   4.824   0.153
 3214TIP3    H2 9649   0.620   4.973   0.138
 3215TIP3   OH2 9650   1.731   1.973   1.802
 3215TIP3    H1 9651   1.759   1.927   1.881
 3215TIP3    H2 9652   1.811   1.984   1.751
 3216TIP3   OH2 9653   2.316   4.435   0.103
 3216TIP3    H1 9654   2.361   4.517   0.085
 3216TIP3    H2 9655   2.362   4.399   0.179
 3217TIP3   OH2 9656   5.873   1.672   2.821
 3217TIP3    H1 9657   5.885   1.728   2.744
 3217TIP3    H2 9658   5.938   1.603   2.812
 3218TIP3   OH2 9659   0.113   1.939   5.169
 3218TIP3    H1 9660   0.021   1.965   5.158
 3218TIP3    H2 9661   0.158   2.021   5.191
 3219TIP3   OH2 9662   0.389   2.311   4.118
 3219TIP3    H1 9663   0.464   2.266   4.155
 3219TIP3    H2 9664   0.352   2.361   4.191
 3220TIP3   OH2 9665   6.066   1.970   2.186
 3220TIP3    H1 9666   6.142   1.937   2.234
 3220TIP3    H2 9667   6.092   2.057   2.158
 3221TIP3   OH2 9668   2.541   1.140   1.158
 3221TIP3    H1 9669   2.536   1.234   1.141
 3221TIP3    H2 9670   2.559   1.134   1.252
 3222TIP3   OH2 9671   4.023   3.679   1.152
 3222TIP3    H1 9672   3.952   3.740   1.132
 3222TIP3    H2 9673   3.999   3.641   1.236
 3223TIP3   OH2 9674   2.056   4.532   1.073
 3223TIP3    H1 9675   2.046   4.443   1.040
 3223TIP3    H2 9676   2.070   4.585   0.994
 3224TIP3   OH2 9677   0.138   4.331   1.178
 3224TIP3    H1 9678   0.215   4.361   1.225
 3224TIP3    H2 9679   0.107   4.256   1.229
 3225TIP3   OH2 9680   4.322   4.844   3.022
 3225TIP3    H1 9681   4.356   4.756   3.006
 3225TIP3    H2 9682   4.293   4.874   2.936
 3226TIP3   OH2 9683   1.294   1.329   5.127
 3226TIP3    H1 9684   1.350   1.406   5.124
 3226TIP3    H2 9685   1.291   1.304   5.219
 3227TIP3   OH2 9686   2.123   5.448   0.958
 3227TIP3    H1 9687   2.087   5.533   0.981
 3227TIP3    H2 9688   2.200   5.439   1.014
 3228TIP3   OH2 9689   1.795   4.439   1.891
 3228TIP3    H1 9690   1.843   4.471   1.967
 3228TIP3    H2 9691   1.840   4.477   1.815
 3229TIP3   OH2 9692   2.482   0.858   3.402
 3229TIP3    H1 9693   2.564   0.816   3.377
 3229TIP3    H2 9694   2.428   0.787   3.437
 3230TIP3   OH2 9695   0.011   0.883   5.063
 3230TIP3    H1 9696   0.060   0.803   5.046
 3230TIP3    H2 9697   0.052   0.949   5.006
 3231TIP3   OH2 9698   4.084   2.429   1.531
 3231TIP3    H1 9699   4.042   2.385   1.458
 3231TIP3    H2 9700   4.030   2.408   1.607
 3232TIP3   OH2 9701   2.465   1.479   0.261
 3232TIP3    H1 9702   2.495   1.439   0.180
 3232TIP3    H2 9703   2.385   1.431   0.283
 3233TIP3   OH2 9704   2.144   5.828   0.029
 3233TIP3    H1 9705   2.198   5.818   0.107
 3233TIP3    H2 9706   2.150   5.921   0.008
 3234TIP3   OH2 9707   0.535   1.969   4.736
 3234TIP3    H1 9708   0.586   1.944   4.812
 3234TIP3    H2 9709   0.565   2.058   4.716
 3235TIP3   OH2 9710   5.179   4.360   4.402
 3235TIP3    H1 9711   5.098   4.308   4.407
 3235TIP3    H2 9712   5.150   4.450   4.415
 3236TIP3   OH2 9713   1.514   4.019   4.423
 3236TIP3    H1 9714   1.554   4.054   4.503
 3236TIP3    H2 9715   1.455   4.088   4.393
 3237TIP3   OH2 9716   4.047   2.824   4.400
 3237TIP3    H1 9717   3.978   2.793   4.459
 3237TIP3    H2 9718   4.122   2.841   4.457
 3238TIP3   OH2 9719   4.459   3.725   0.790
 3238TIP3    H1 9720   4.468   3.696   0.881
 3238TIP3    H2 9721   4.399   3.799   0.794
 3239TIP3   OH2 9722   3.652   2.972   0.153
 3239TIP3    H1 9723   3.637   2.878   0.147
 3239TIP3    H2 9724   3.743   2.981   0.181
 3240TIP3   OH2 9725   3.464   3.047   2.212
 3240TIP3    H1 9726   3.456   3.114   2.280
 3240TIP3    H2 9727   3.557   3.046   2.190
 3241TIP3   OH2 9728   2.623   1.072   3.182
 3241TIP3    H1 9729   2.662   1.156   3.203
 3241TIP3    H2 9730   2.529   1.086   3.191
 3242TIP3   OH2 9731   4.352   3.390   3.503
 3242TIP3    H1 9732   4.347   3.295   3.517
 3242TIP3    H2 9733   4.318   3.403   3.415
 3243TIP3   OH2 9734   0.904   4.731   3.417
 3243TIP3    H1 9735   0.858   4.703   3.496
 3243TIP3    H2 9736   0.845   4.709   3.345
 3244TIP3   OH2 9737   5.830   2.024   0.884
 3244TIP3    H1 9738   5.885   1.968   0.939
 3244TIP3    H2 9739   5.834   1.984   0.797
 3245TIP3   OH2 9740   5.796   5.504   5.087
 3245TIP3    H1 9741   5.887   5.530   5.073
 3245TIP3    H2 9742   5.768   5.557   5.162
 3246TIP3   OH2 9743   1.827   3.696   3.950
 3246TIP3    H1 9744   1.758   3.653   4.001
 3246TIP3    H2 9745   1.821   3.788   3.974
 3247TIP3   OH2 9746   2.578   2.904   1.108
 3247TIP3    H1 9747   2.487   2.924   1.087
 3247TIP3    H2 9748   2.573   2.828   1.167
 3248TIP3   OH2 9749   5.875   5.619   3.046
 3248TIP3    H1 9750   5.868   5.671   2.966
 3248TIP3    H2 9751   5.894   5.530   3.015
 3249TIP3   OH2 9752   4.899   2.800   1.633
 3249TIP3    H1 9753   4.870   2.890   1.645
 3249TIP3    H2 9754   4.824   2.756   1.593
 3250TIP3   OH2 9755   5.451   2.661   3.695
 3250TIP3    H1 9756   5.422   2.614   3.774
 3250TIP3    H2 9757   5.475   2.748   3.727
 3251TIP3   OH2 9758   1.839   1.101   3.132
 3251TIP3    H1 9759   1.789   1.181   3.145
 3251TIP3    H2 9760   1.848   1.063   3.219
 3252TIP3   OH2 9761   1.693   2.364   4.173
 3252TIP3    H1 9762   1.602   2.340   4.151
 3252TIP3    H2 9763   1.707   2.324   4.259
 3253TIP3   OH2 9764   4.881   5.864   3.645
 3253TIP3    H1 9765   4.914   5.810   3.574
 3253TIP3    H2 9766   4.916   5.823   3.725
 3254TIP3   OH2 9767   5.795   0.535   0.627
 3254TIP3    H1 9768   5.800   0.489   0.711
 3254TIP3    H2 9769   5.740   0.479   0.572
 3255TIP3   OH2 9770   6.327   1.603   0.157
 3255TIP3    H1 9771   6.320   1.698   0.164
 3255TIP3    H2 9772   6.294   1.583   0.069
 3256TIP3   OH2 9773   0.525   3.102   5.037
 3256TIP3    H1 9774   0.509   3.008   5.038
 3256TIP3    H2 9775   0.618   3.111   5.016
 3257TIP3   OH2 9776   2.135   1.721   5.074
 3257TIP3    H1 9777   2.107   1.641   5.029
 3257TIP3    H2 9778   2.085   1.720   5.156
 3258TIP3   OH2 9779   5.756   4.220   4.463
 3258TIP3    H1 9780   5.779   4.156   4.396
 3258TIP3    H2 9781   5.695   4.280   4.420
 3259TIP3   OH2 9782   2.989   0.332   4.034
 3259TIP3    H1 9783   2.982   0.372   4.121
 3259TIP3    H2 9784   2.926   0.260   4.036
 3260TIP3   OH2 9785   1.751   1.479   4.233
 3260TIP3    H1 9786   1.658   1.491   4.248
 3260TIP3    H2 9787   1.758   1.395   4.188
 3261TIP3   OH2 9788   3.207   4.233   4.288
 3261TIP3    H1 9789   3.124   4.216   4.333
 3261TIP3    H2 9790   3.203   4.178   4.209
 3262TIP3   OH2 9791   2.077   3.280   4.566
 3262TIP3    H1 9792   2.167   3.247   4.571
 3262TIP3    H2 9793   2.048   3.284   4.657
 3263TIP3   OH2 9794   1.707   1.580   0.168
 3263TIP3    H1 9795   1.700   1.487   0.144
 3263TIP3    H2 9796   1.631   1.621   0.126
 3264TIP3   OH2 9797   0.464   2.187   1.562
 3264TIP3    H1 9798   0.381   2.154   1.596
 3264TIP3    H2 9799   0.465   2.280   1.586
 3265TIP3   OH2 9800   2.849   5.103   0.231
 3265TIP3    H1 9801   2.859   5.024   0.284
 3265TIP3    H2 9802   2.910   5.166   0.269
 3266TIP3   OH2 9803   2.698   1.864   4.061
 3266TIP3    H1 9804   2.729   1.798   3.998
 3266TIP3    H2 9805   2.713   1.824   4.147
 3267TIP3   OH2 9806   1.503   3.463   3.502
 3267TIP3    H1 9807   1.587   3.457   3.455
 3267TIP3    H2 9808   1.485   3.557   3.507
 3268TIP3   OH2 9809   5.964   1.924   4.863
 3268TIP3    H1 9810   6.050   1.899   4.829
 3268TIP3    H2 9811   5.917   1.958   4.787
 3269TIP3   OH2 9812   4.775   1.238   5.109
 3269TIP3    H1 9813   4.794   1.332   5.110
 3269TIP3    H2 9814   4.680   1.233   5.104
 3270TIP3   OH2 9815   3.825   1.578   4.313
 3270TIP3    H1 9816   3.807   1.484   4.310
 3270TIP3    H2 9817   3.904   1.589   4.260
 3271TIP3   OH2 9818   4.928   5.325   1.055
 3271TIP3    H1 9819   4.961   5.360   0.973
 3271TIP3    H2 9820   4.858   5.385   1.081
 3272TIP3   OH2 9821   1.748   4.634   2.147
 3272TIP3    H1 9822   1.722   4.700   2.082
 3272TIP3    H2 9823   1.833   4.664   2.178
 3273TIP3   OH2 9824   0.544   5.581   4.495
 3273TIP3    H1 9825   0.509   5.504   4.540
 3273TIP3    H2 9826   0.481   5.651   4.514
 3274TIP3   OH2 9827   4.769   0.986   3.884
 3274TIP3    H1 9828   4.723   1.066   3.912
 3274TIP3    H2 9829   4.719   0.955   3.809
 3275TIP3   OH2 9830   3.682   5.011   5.000
 3275TIP3    H1 9831   3.770   4.973   4.996
 3275TIP3    H2 9832   3.625   4.944   4.963
 3276TIP3   OH2 9833   3.099   4.716   1.703
 3276TIP3    H1 9834   3.060   4.802   1.722
 3276TIP3    H2 9835   3.030   4.654   1.724
 3277TIP3   OH2 9836   5.410   0.906   0.280
 3277TIP3    H1 9837   5.402   0.811   0.275
 3277TIP3    H2 9838   5.331   0.934   0.327
 3278TIP3   OH2 9839   4.360   4.276   1.715
 3278TIP3    H1 9840   4.378   4.341   1.647
 3278TIP3    H2 9841   4.349   4.194   1.667
 3279TIP3   OH2 9842   3.309   1.160   4.050
 3279TIP3    H1 9843   3.391   1.130   4.011
 3279TIP3    H2 9844   3.311   1.128   4.140
 3280TIP3   OH2 9845   1.460   0.104   1.883
 3280TIP3    H1 9846   1.369   0.135   1.883
 3280TIP3    H2 9847   1.511   0.181   1.910
 3281TIP3   OH2 9848   5.802   3.112   5.052
 3281TIP3    H1 9849   5.766   3.195   5.083
 3281TIP3    H2 9850   5.821   3.126   4.960
 3282TIP3   OH2 9851   2.151   5.128   4.255
 3282TIP3    H1 9852   2.109   5.141   4.340
 3282TIP3    H2 9853   2.203   5.048   4.266
 3283TIP3   OH2 9854   1.937   4.866   1.290
 3283TIP3    H1 9855   1.976   4.903   1.370
 3283TIP3    H2 9856   2.001   4.885   1.221
 3284TIP3   OH2 9857   5.215   2.709   4.515
 3284TIP3    H1 9858   5.259   2.794   4.520
 3284TIP3    H2 9859   5.209   2.681   4.606
 3285TIP3   OH2 9860   3.821   2.829   1.134
 3285TIP3    H1 9861   3.790   2.893   1.071
 3285TIP3    H2 9862   3.913   2.815   1.113
 3286TIP3   OH2 9863   1.109   0.745   2.066
 3286TIP3    H1 9864   1.026   0.713   2.104
 3286TIP3    H2 9865   1.138   0.674   2.009
 3287TIP3   OH2 9866   6.099   0.593   0.156
 3287TIP3    H1 9867   6.036   0.624   0.221
 3287TIP3    H2 9868   6.052   0.598   0.073
 3288TIP3   OH2 9869   2.789   2.704   2.050
 3288TIP3    H1 9870   2.880   2.725   2.071
 3288TIP3    H2 9871   2.784   2.710   1.955
 3289TIP3   OH2 9872   0.178   5.150   1.699
 3289TIP3    H1 9873   0.272   5.168   1.699
 3289TIP3    H2 9874   0.172   5.055   1.704
 3290TIP3   OH2 9875   6.110   0.669   4.228
 3290TIP3    H1 9876   6.152   0.753   4.245
 3290TIP3    H2 9877   6.143   0.611   4.296
 3291TIP3   OH2 9878   6.329   5.148   3.334
 3291TIP3    H1 9879   6.248   5.097   3.335
 3291TIP3    H2 9880   6.357   5.148   3.243
 3292TIP3   OH2 9881   0.048   5.701   3.368
 3292TIP3    H1 9882   0.067   5.763   3.298
 3292TIP3    H2 9883  -0.047   5.705   3.379
 3293TIP3   OH2 9884   4.878   4.790   0.480
 3293TIP3    H1 9885   4.870   4.707   0.527
 3293TIP3    H2 9886   4.892   4.765   0.389
 3294TIP3   OH2 9887   6.132   1.390   2.368
 3294TIP3    H1 9888   6.170   1.342   2.441
 3294TIP3    H2 9889   6.147   1.483   2.389
 3295TIP3   OH2 9890   0.151   3.543   0.745
 3295TIP3    H1 9891   0.159   3.448   0.757
 3295TIP3    H2 9892   0.121   3.575   0.830
 3296TIP3   OH2 9893   1.114   5.495   0.063
 3296TIP3    H1 9894   1.118   5.456   0.151
 3296TIP3    H2 9895   1.118   5.589   0.079
 3297TIP3   OH2 9896   2.861   0.946   5.033
 3297TIP3    H1 9897   2.907   1.029   5.022
 3297TIP3    H2 9898   2.894   0.912   5.117
 3298TIP3   OH2 9899   4.182   4.198   0.227
 3298TIP3    H1 9900   4.158   4.115   0.185
 3298TIP3    H2 9901   4.269   4.182   0.263
 3299TIP3   OH2 9902   2.669   4.118   2.218
 3299TIP3    H1 9903   2.681   4.056   2.146
 3299TIP3    H2 9904   2.752   4.118   2.265
 3300TIP3   OH2 9905   0.429   0.959   1.023
 3300TIP3    H1 9906   0.483   0.911   1.085
 3300TIP3    H2 9907   0.490   0.991   0.957
 3301TIP3   OH2 9908   4.652   3.390   0.215
 3301TIP3    H1 9909   4.706   3.385   0.137
 3301TIP3    H2 9910   4.699   3.339   0.280
 3302TIP3   OH2 9911   5.077   5.514   2.230
 3302TIP3    H1 9912   5.124   5.511   2.314
 3302TIP3    H2 9913   5.001   5.459   2.245
 3303TIP3   OH2 9914   0.490   5.377   0.180
 3303TIP3    H1 9915   0.515   5.365   0.272
 3303TIP3    H2 9916   0.450   5.464   0.178
 3304TIP3   OH2 9917   1.025  -0.022   4.067
 3304TIP3    H1 9918   1.003   0.071   4.076
 3304TIP3    H2 9919   0.965  -0.054   3.999
 3305TIP3   OH2 9920   1.029   5.686   2.785
 3305TIP3    H1 9921   1.109   5.733   2.765
 3305TIP3    H2 9922   0.961   5.753   2.790
 3306TIP3   OH2 9923   3.364   0.282   4.042
 3306TIP3    H1 9924   3.454   0.314   4.050
 3306TIP3    H2 9925   3.343   0.292   3.949
 3307TIP3   OH2 9926   4.624   3.094   2.349
 3307TIP3    H1 9927   4.666   3.171   2.387
 3307TIP3    H2 9928   4.537   3.124   2.323
 3308TIP3   OH2 9929   3.978   5.810   2.649
 3308TIP3    H1 9930   4.006   5.895   2.614
 3308TIP3    H2 9931   3.895   5.828   2.692
 3309TIP3   OH2 9932   5.722   3.449   2.040
 3309TIP3    H1 9933   5.783   3.523   2.037
 3309TIP3    H2 9934   5.675   3.453   1.957
 3310TIP3   OH2 9935   0.483   1.906   0.847
 3310TIP3    H1 9936   0.443   1.833   0.800
 3310TIP3    H2 9937   0.574   1.908   0.816
 3311TIP3   OH2 9938   0.270   2.297   2.163
 3311TIP3    H1 9939   0.318   2.357   2.105
 3311TIP3    H2 9940   0.259   2.217   2.110
 3312TIP3   OH2 9941   2.372   0.453   0.346
 3312TIP3    H1 9942   2.382   0.466   0.440
 3312TIP3    H2 9943   2.309   0.382   0.338
 3313TIP3   OH2 9944   6.124   4.559   3.583
 3313TIP3    H1 9945   6.162   4.477   3.552
 3313TIP3    H2 9946   6.143   4.622   3.514
 3314TIP3   OH2 9947   1.220   5.570   0.580
 3314TIP3    H1 9948   1.144   5.549   0.526
 3314TIP3    H2 9949   1.184   5.625   0.650
 3315TIP3   OH2 9950   4.582   2.031   3.623
 3315TIP3    H1 9951   4.676   2.050   3.620
 3315TIP3    H2 9952   4.575   1.939   3.598
 3316TIP3   OH2 9953   1.544   0.677   3.059
 3316TIP3    H1 9954   1.584   0.611   3.002
 3316TIP3    H2 9955   1.589   0.758   3.037
 3317TIP3   OH2 9956   4.808   3.927   4.400
 3317TIP3    H1 9957   4.770   3.840   4.410
 3317TIP3    H2 9958   4.736   3.982   4.369
 3318TIP3   OH2 9959   1.589   4.469   2.955
 3318TIP3    H1 9960   1.521   4.402   2.951
 3318TIP3    H2 9961   1.669   4.424   2.929
 3319TIP3   OH2 9962   2.554   4.424   0.955
 3319TIP3    H1 9963   2.486   4.357   0.956
 3319TIP3    H2 9964   2.584   4.429   1.046
 3320TIP3   OH2 9965   0.843   1.957   5.199
 3320TIP3    H1 9966   0.906   2.003   5.143
 3320TIP3    H2 9967   0.816   2.021   5.265
 3321TIP3   OH2 9968   1.262   0.723   3.049
 3321TIP3    H1 9969   1.218   0.642   3.074
 3321TIP3    H2 9970   1.355   0.701   3.054
 3322TIP3   OH2 9971   0.489   5.072   3.749
 3322TIP3    H1 9972   0.483   5.026   3.666
 3322TIP3    H2 9973   0.511   5.004   3.813
 3323TIP3   OH2 9974   5.776   3.264   2.704
 3323TIP3    H1 9975   5.746   3.190   2.652
 3323TIP3    H2 9976   5.860   3.288   2.666
 3324TIP3   OH2 9977   1.710   4.456   0.665
 3324TIP3    H1 9978   1.636   4.423   0.615
 3324TIP3    H2 9979   1.780   4.466   0.599
 3325TIP3   OH2 9980   6.398   0.732   3.952
 3325TIP3    H1 9981   6.416   0.779   4.033
 3325TIP3    H2 9982   6.303   0.722   3.950
 3326TIP3   OH2 9983   5.565   2.076   0.684
 3326TIP3    H1 9984   5.643   2.095   0.631
 3326TIP3    H2 9985   5.599   2.029   0.760
 3327TIP3   OH2 9986   0.105   4.065   0.413
 3327TIP3    H1 9987   0.149   4.136   0.460
 3327TIP3    H2 9988   0.175   4.009   0.381
 3328TIP3   OH2 9989   0.039   3.400   0.075
 3328TIP3    H1 9990   0.077   3.314   0.061
 3328TIP3    H2 9991  -0.038   3.384   0.130
 3329TIP3   OH2 9992   3.846   4.861   2.062
 3329TIP3    H1 9993   3.938   4.867   2.038
 3329TIP3    H2 9994   3.819   4.774   2.034
 3330TIP3   OH2 9995   4.836   2.496   4.686
 3330TIP3    H1 9996   4.779   2.522   4.758
 3330TIP3    H2 9997   4.924   2.499   4.723
 3331TIP3   OH2 9998   5.824   0.757   4.698
 3331TIP3    H1 9999   5.753   0.765   4.634
 3331TIP3    H210000   5.797   0.814   4.771
 3332TIP3   OH210001   0.999   1.550   1.587
 3332TIP3    H110002   0.956   1.635   1.581
 3332TIP3    H210003   0.944   1.498   1.645
 3333TIP3   OH210004   0.354   4.232   4.336
 3333TIP3    H110005   0.321   4.145   4.362
 3333TIP3    H210006   0.409   4.259   4.409
 3334TIP3   OH210007   5.539   5.776   1.837
 3334TIP3    H110008   5.445   5.788   1.844
 3334TIP3    H210009   5.576   5.854   1.878
 3335TIP3   OH210010   5.991   3.141   2.422
 3335TIP3    H110011   6.023   3.203   2.487
 3335TIP3    H210012   5.921   3.093   2.466
 3336TIP3   OH210013   0.711   1.559   2.259
 3336TIP3    H110014   0.757   1.490   2.306
 3336TIP3    H210015   0.642   1.513   2.211
 3337TIP3   OH210016   5.350   3.835   3.646
 3337TIP3    H110017   5.273   3.885   3.618
 3337TIP3    H210018   5.335   3.747   3.613
 3338TIP3   OH210019   2.904   3.106   3.579
 3338TIP3    H110020   2.899   3.082   3.487
 3338TIP3    H210021   2.814   3.127   3.604
 3339TIP3   OH210022   0.840   5.642   1.549
 3339TIP3    H110023   0.874   5.729   1.527
 3339TIP3    H210024   0.844   5.593   1.467
 3340TIP3   OH210025   0.828   2.283   3.335
 3340TIP3    H110026   0.777   2.362   3.315
 3340TIP3    H210027   0.880   2.268   3.257
 3341TIP3   OH210028   3.296   3.884   5.170
 3341TIP3    H110029   3.288   3.905   5.077
 3341TIP3    H210030   3.357   3.950   5.205
 3342TIP3   OH210031   3.636   5.209   2.820
 3342TIP3    H110032   3.675   5.296   2.809
 3342TIP3    H210033   3.637   5.194   2.914
 3343TIP3   OH210034   2.067   0.429   4.963
 3343TIP3    H110035   2.015   0.439   5.043
 3343TIP3    H210036   2.157   0.442   4.992
 3344TIP3   OH210037   2.423   2.891   0.575
 3344TIP3    H110038   2.429   2.942   0.655
 3344TIP3    H210039   2.513   2.889   0.541
 3345TIP3   OH210040   2.627   5.691   3.594
 3345TIP3    H110041   2.684   5.686   3.518
 3345TIP3    H210042   2.657   5.620   3.651
 3346TIP3   OH210043   3.776   2.116   0.644
 3346TIP3    H110044   3.682   2.124   0.628
 3346TIP3    H210045   3.814   2.194   0.605
 3347TIP3   OH210046   0.737   1.663   4.357
 3347TIP3    H110047   0.690   1.734   4.313
 3347TIP3    H210048   0.736   1.687   4.449
 3348TIP3   OH210049   1.170   3.785   3.002
 3348TIP3    H110050   1.149   3.707   3.054
 3348TIP3    H210051   1.096   3.796   2.943
 3349TIP3   OH210052   1.963   3.907   0.565
 3349TIP3    H110053   1.985   3.835   0.624
 3349TIP3    H210054   2.027   3.901   0.494
 3350TIP3   OH210055   4.959   0.106   4.279
 3350TIP3    H110056   5.036   0.074   4.327
 3350TIP3    H210057   4.901   0.140   4.347
 3351TIP3   OH210058   0.110   0.477   2.683
 3351TIP3    H110059   0.186   0.487   2.740
 3351TIP3    H210060   0.089   0.566   2.655
 3352TIP3   OH210061   2.344   3.428   4.345
 3352TIP3    H110062   2.284   3.394   4.278
 3352TIP3    H210063   2.316   3.518   4.360
 3353TIP3   OH210064   1.911   2.860   4.764
 3353TIP3    H110065   1.873   2.778   4.732
 3353TIP3    H210066   1.899   2.922   4.691
 3354TIP3   OH210067   4.885   1.185   2.639
 3354TIP3    H110068   4.934   1.186   2.721
 3354TIP3    H210069   4.946   1.220   2.574
 3355TIP3   OH210070   3.185   5.733   2.369
 3355TIP3    H110071   3.102   5.768   2.336
 3355TIP3    H210072   3.163   5.644   2.396
 3356TIP3   OH210073   5.575   0.572   4.177
 3356TIP3    H110074   5.603   0.492   4.222
 3356TIP3    H210075   5.645   0.591   4.115
 3357TIP3   OH210076   0.755   4.623   3.649
 3357TIP3    H110077   0.787   4.621   3.739
 3357TIP3    H210078   0.778   4.537   3.613
 3358TIP3   OH210079   6.119   3.883   0.200
 3358TIP3    H110080   6.104   3.900   0.107
 3358TIP3    H210081   6.180   3.809   0.202
 3359TIP3   OH210082   2.218   1.699   4.654
 3359TIP3    H110083   2.259   1.685   4.740
 3359TIP3    H210084   2.283   1.667   4.592
 3360TIP3   OH210085   4.739   0.846   5.154
 3360TIP3    H110086   4.654   0.834   5.195
 3360TIP3    H210087   4.721   0.844   5.060
 3361TIP3   OH210088   4.930   2.438   4.227
 3361TIP3    H110089   4.950   2.348   4.202
 3361TIP3    H210090   4.883   2.429   4.310
 3362TIP3   OH210091   1.290   5.158   1.795
 3362TIP3    H110092   1.327   5.243   1.821
 3362TIP3    H210093   1.229   5.136   1.866
 3363TIP3   OH210094   2.668   0.638   1.092
 3363TIP3    H110095   2.679   0.549   1.058
 3363TIP3    H210096   2.736   0.689   1.048
 3364TIP3   OH210097   1.923   0.458   2.563
 3364TIP3    H110098   1.905   0.470   2.470
 3364TIP3    H210099   1.863   0.518   2.607
 3365TIP3   OH210100   3.608   3.927   3.686
 3365TIP3    H110101   3.603   4.016   3.720
 3365TIP3    H210102   3.698   3.900   3.703
 3366TIP3   OH210103   0.401   0.474   4.668
 3366TIP3    H110104   0.404   0.570   4.661
 3366TIP3    H210105   0.410   0.456   4.761
 3367TIP3   OH210106   2.668   4.048   4.787
 3367TIP3    H110107   2.742   3.991   4.804
 3367TIP3    H210108   2.665   4.107   4.863
 3368TIP3   OH210109   3.981   6.035   3.575
 3368TIP3    H110110   3.984   5.976   3.500
 3368TIP3    H210111   4.070   6.034   3.610
 3369TIP3   OH210112   3.759   3.582   3.574
 3369TIP3    H110113   3.843   3.545   3.598
 3369TIP3    H210114   3.742   3.649   3.640
 3370TIP3   OH210115   3.276   4.405   4.070
 3370TIP3    H110116   3.246   4.451   4.148
 3370TIP3    H210117   3.260   4.313   4.088
 3371TIP3   OH210118   0.132   1.320   3.946
 3371TIP3    H110119   0.105   1.280   4.029
 3371TIP3    H210120   0.056   1.310   3.889
 3372TIP3   OH210121   0.864   3.019   2.816
 3372TIP3    H110122   0.843   2.938   2.771
 3372TIP3    H210123   0.902   2.991   2.900
 3373TIP3   OH210124   5.753   0.688   1.582
 3373TIP3    H110125   5.769   0.782   1.572
 3373TIP3    H210126   5.780   0.669   1.672
 3374TIP3   OH210127   3.562   4.273   4.165
 3374TIP3    H110128   3.489   4.211   4.162
 3374TIP3    H210129   3.624   4.234   4.227
 3375TIP3   OH210130   4.271   2.156   2.524
 3375TIP3    H110131   4.328   2.201   2.587
 3375TIP3    H210132   4.197   2.124   2.576
 3376TIP3   OH210133   4.303   0.379   2.069
 3376TIP3    H110134   4.211   0.373   2.046
 3376TIP3    H210135   4.338   0.449   2.013
 3377TIP3   OH210136   1.684   4.985   3.527
 3377TIP3    H110137   1.712   5.054   3.466
 3377TIP3    H210138   1.758   4.925   3.532
 3378TIP3   OH210139   4.345   2.137   1.819
 3378TIP3    H110140   4.274   2.154   1.881
 3378TIP3    H210141   4.393   2.220   1.814
 3379TIP3   OH210142   4.693   5.128   1.755
 3379TIP3    H110143   4.599   5.138   1.743
 3379TIP3    H210144   4.730   5.211   1.725
 3380TIP3   OH210145   1.646   0.508   3.800
 3380TIP3    H110146   1.619   0.436   3.857
 3380TIP3    H210147   1.677   0.576   3.859
 3381TIP3   OH210148   1.175   5.708   1.900
 3381TIP3    H110149   1.081   5.705   1.881
 3381TIP3    H210150   1.183   5.669   1.988
 3382TIP3   OH210151   5.781   4.036   4.278
 3382TIP3    H110152   5.823   4.070   4.199
 3382TIP3    H210153   5.779   3.941   4.264
 3383TIP3   OH210154   1.474   5.542   3.453
 3383TIP3    H110155   1.507   5.597   3.524
 3383TIP3    H210156   1.516   5.457   3.466
 3384TIP3   OH210157   0.800   1.124   0.116
 3384TIP3    H110158   0.791   1.218   0.133
 3384TIP3    H210159   0.861   1.094   0.183
 3385TIP3   OH210160   5.196   1.993   0.234
 3385TIP3    H110161   5.184   2.042   0.152
 3385TIP3    H210162   5.235   2.057   0.294
 3386TIP3   OH210163   4.864   1.768   4.978
 3386TIP3    H110164   4.890   1.782   5.069
 3386TIP3    H210165   4.945   1.741   4.935
 3387TIP3   OH210166   3.370   0.449   2.510
 3387TIP3    H110167   3.451   0.409   2.541
 3387TIP3    H210168   3.372   0.437   2.415
 3388TIP3   OH210169   2.181   3.375   0.991
 3388TIP3    H110170   2.248   3.395   0.926
 3388TIP3    H210171   2.163   3.459   1.034
 3389TIP3   OH210172   6.343   0.954   0.654
 3389TIP3    H110173   6.351   0.964   0.749
 3389TIP3    H210174   6.313   1.040   0.623
 3390TIP3   OH210175   1.929   3.786   2.062
 3390TIP3    H110176   1.983   3.738   1.999
 3390TIP3    H210177   1.943   3.742   2.145
 3391TIP3   OH210178   3.044   4.429   0.789
 3391TIP3    H110179   3.112   4.389   0.734
 3391TIP3    H210180   3.014   4.505   0.739
 3392TIP3   OH210181   2.663   5.393   1.994
 3392TIP3    H110182   2.694   5.393   2.084
 3392TIP3    H210183   2.573   5.362   1.999
 3393TIP3   OH210184   6.052   1.365   0.327
 3393TIP3    H110185   6.077   1.341   0.238
 3393TIP3    H210186   6.124   1.420   0.358
 3394TIP3   OH210187   3.572   1.609   0.677
 3394TIP3    H110188   3.566   1.656   0.760
 3394TIP3    H210189   3.532   1.669   0.613
 3395TIP3   OH210190   5.344   0.940   3.799
 3395TIP3    H110191   5.253   0.954   3.772
 3395TIP3    H210192   5.379   1.028   3.810
 3396TIP3   OH210193   4.968   0.468   1.503
 3396TIP3    H110194   4.921   0.476   1.419
 3396TIP3    H210195   5.052   0.428   1.479
 3397TIP3   OH210196   1.355   4.972   4.792
 3397TIP3    H110197   1.356   4.921   4.873
 3397TIP3    H210198   1.445   4.970   4.761
 3398TIP3   OH210199   4.265   3.855   2.189
 3398TIP3    H110200   4.296   3.848   2.279
 3398TIP3    H210201   4.300   3.939   2.157
 3399TIP3   OH210202   6.352   3.490   2.824
 3399TIP3    H110203   6.321   3.417   2.878
 3399TIP3    H210204   6.314   3.567   2.865
 3400TIP3   OH210205   3.318   5.371   2.455
 3400TIP3    H110206   3.288   5.437   2.517
 3400TIP3    H210207   3.375   5.418   2.395
 3401TIP3   OH210208   4.143   4.579   1.206
 3401TIP3    H110209   4.152   4.484   1.198
 3401TIP3    H210210   4.111   4.592   1.296
 3402TIP3   OH210211   3.416   1.429   4.310
 3402TIP3    H110212   3.497   1.399   4.269
 3402TIP3    H210213   3.347   1.379   4.267
 3403TIP3   OH210214   6.082   5.731   4.558
 3403TIP3    H110215   6.008   5.694   4.607
 3403TIP3    H210216   6.041   5.774   4.482
 3404TIP3   OH210217   3.177   5.047   3.672
 3404TIP3    H110218   3.087   5.019   3.685
 3404TIP3    H210219   3.220   4.973   3.630
 3405TIP3   OH210220   3.400   5.544   1.220
 3405TIP3    H110221   3.389   5.611   1.287
 3405TIP3    H210222   3.440   5.470   1.267
 3406TIP3   OH210223   4.776   3.325   2.278
 3406TIP3    H110224   4.706   3.390   2.282
 3406TIP3    H210225   4.856   3.377   2.266
 3407TIP3   OH210226   3.240   5.105   1.142
 3407TIP3    H110227   3.313   5.154   1.104
 3407TIP3    H210228   3.268   5.013   1.138
 3408TIP3   OH210229   5.794   3.628   0.491
 3408TIP3    H110230   5.837   3.702   0.449
 3408TIP3    H210231   5.703   3.633   0.462
 3409TIP3   OH210232   1.680   3.741   1.924
 3409TIP3    H110233   1.760   3.763   1.971
 3409TIP3    H210234   1.706   3.674   1.861
 3410TIP3   OH210235   5.558   3.758   1.215
 3410TIP3    H110236   5.550   3.843   1.257
 3410TIP3    H210237   5.637   3.765   1.161
 3411TIP3   OH210238   0.103   2.720   0.364
 3411TIP3    H110239   0.122   2.626   0.359
 3411TIP3    H210240   0.141   2.748   0.447
 3412TIP3   OH210241   1.957   3.586   1.321
 3412TIP3    H110242   1.959   3.546   1.408
 3412TIP3    H210243   1.918   3.519   1.265
 3413TIP3   OH210244   0.310   3.214   0.479
 3413TIP3    H110245   0.388   3.260   0.510
 3413TIP3    H210246   0.330   3.190   0.389
 3414TIP3   OH210247   0.851   3.540   3.686
 3414TIP3    H110248   0.946   3.542   3.678
 3414TIP3    H210249   0.822   3.625   3.654
 3415TIP3   OH210250   4.237   0.454   3.141
 3415TIP3    H110251   4.184   0.509   3.199
 3415TIP3    H210252   4.173   0.396   3.100
 3416TIP3   OH210253   3.506   0.790   1.998
 3416TIP3    H110254   3.528   0.879   2.023
 3416TIP3    H210255   3.589   0.743   1.995
 3417TIP3   OH210256   4.763   2.371   0.223
 3417TIP3    H110257   4.791   2.282   0.206
 3417TIP3    H210258   4.809   2.424   0.157
 3418TIP3   OH210259   4.688   5.565   1.317
 3418TIP3    H110260   4.777   5.597   1.330
 3418TIP3    H210261   4.638   5.604   1.389
 3419TIP3   OH210262   1.329   3.319   2.451
 3419TIP3    H110263   1.240   3.300   2.481
 3419TIP3    H210264   1.385   3.266   2.509
 3420TIP3   OH210265   3.178   1.130   2.639
 3420TIP3    H110266   3.233   1.125   2.717
 3420TIP3    H210267   3.106   1.187   2.663
 3421TIP3   OH210268   0.079   4.764   0.324
 3421TIP3    H110269   0.172   4.776   0.306
 3421TIP3    H210270   0.037   4.843   0.290
 3422TIP3   OH210271   5.680   2.889   1.248
 3422TIP3    H110272   5.670   2.823   1.179
 3422TIP3    H210273   5.768   2.924   1.235
 3423TIP3   OH210274   3.122   0.837   1.471
 3423TIP3    H110275   3.093   0.860   1.559
 3423TIP3    H210276   3.208   0.797   1.483
 3424TIP3   OH210277   3.103   2.050   2.065
 3424TIP3    H110278   3.096   1.955   2.057
 3424TIP3    H210279   3.136   2.078   1.980
 3425TIP3   OH210280   1.092   1.962   1.542
 3425TIP3    H110281   1.102   1.950   1.637
 3425TIP3    H210282   1.014   1.911   1.520
 3426TIP3   OH210283   2.613   2.936   2.085
 3426TIP3    H110284   2.661   2.853   2.081
 3426TIP3    H210285   2.536   2.921   2.030
 3427TIP3   OH210286   0.628   5.770   5.029
 3427TIP3    H110287   0.546   5.805   4.995
 3427TIP3    H210288   0.639   5.811   5.114
 3428TIP3   OH210289   1.174   0.116   2.900
 3428TIP3    H110290   1.253   0.150   2.943
 3428TIP3    H210291   1.132   0.192   2.862
 3429TIP3   OH210292   5.551   1.758   0.118
 3429TIP3    H110293   5.490   1.793   0.183
 3429TIP3    H210294   5.624   1.724   0.169
 3430TIP3   OH210295   1.343   5.286   4.175
 3430TIP3    H110296   1.273   5.341   4.211
 3430TIP3    H210297   1.422   5.314   4.221
 3431TIP3   OH210298   3.143   0.072   4.216
 3431TIP3    H110299   3.212   0.049   4.154
 3431TIP3    H210300   3.066   0.087   4.161
 3432TIP3   OH210301   2.203   4.019   4.020
 3432TIP3    H110302   2.131   4.052   4.074
 3432TIP3    H210303   2.161   3.992   3.939
 3433TIP3   OH210304   4.946   0.108   1.852
 3433TIP3    H110305   4.927   0.038   1.789
 3433TIP3    H210306   4.872   0.108   1.912
 3434TIP3   OH210307   3.286   4.346   3.565
 3434TIP3    H110308   3.208   4.354   3.619
 3434TIP3    H210309   3.263   4.282   3.498
 3435TIP3   OH210310   3.592   5.069   1.619
 3435TIP3    H110311   3.587   5.111   1.705
 3435TIP3    H210312   3.599   5.142   1.558
 3436TIP3   OH210313   1.093   1.888   1.821
 3436TIP3    H110314   1.040   1.883   1.901
 3436TIP3    H210315   1.184   1.887   1.852
 3437TIP3   OH210316   2.172   3.989   4.704
 3437TIP3    H110317   2.221   4.047   4.646
 3437TIP3    H210318   2.239   3.945   4.756
 3438TIP3   OH210319   1.207   0.213   0.433
 3438TIP3    H110320   1.145   0.249   0.497
 3438TIP3    H210321   1.161   0.216   0.350
 3439TIP3   OH210322   0.189   0.150   1.705
 3439TIP3    H110323   0.258   0.087   1.727
 3439TIP3    H210324   0.109   0.111   1.743
 3440TIP3   OH210325   6.286   4.283   4.626
 3440TIP3    H110326   6.203   4.254   4.588
 3440TIP3    H210327   6.268   4.290   4.720
 3441TIP3   OH210328   2.195   0.924   3.597
 3441TIP3    H110329   2.112   0.884   3.570
 3441TIP3    H210330   2.261   0.878   3.545
 3442TIP3   OH210331   4.605   4.572   3.779
 3442TIP3    H110332   4.649   4.501   3.733
 3442TIP3    H210333   4.662   4.649   3.765
 3443TIP3   OH210334   4.840   2.709   3.378
 3443TIP3    H110335   4.786   2.693   3.455
 3443TIP3    H210336   4.793   2.666   3.306
 3444TIP3   OH210337   0.192   2.635   4.262
 3444TIP3    H110338   0.215   2.719   4.302
 3444TIP3    H210339   0.125   2.656   4.196
 3445TIP3   OH210340   1.316   3.205   4.609
 3445TIP3    H110341   1.237   3.248   4.577
 3445TIP3    H210342   1.318   3.121   4.564
 3446TIP3   OH210343   1.838   4.409   0.077
 3446TIP3    H110344   1.745   4.414   0.100
 3446TIP3    H210345   1.845   4.454  -0.006
 3447TIP3   OH210346   4.928   3.373   2.713
 3447TIP3    H110347   5.013   3.415   2.698
 3447TIP3    H210348   4.865   3.431   2.672
 3448TIP3   OH210349   0.184   2.500   1.867
 3448TIP3    H110350   0.173   2.582   1.818
 3448TIP3    H210351   0.111   2.446   1.838
 3449TIP3   OH210352   3.446   0.163   0.605
 3449TIP3    H110353   3.418   0.099   0.670
 3449TIP3    H210354   3.429   0.121   0.521
 3450TIP3   OH210355   2.699   5.820   1.303
 3450TIP3    H110356   2.642   5.897   1.297
 3450TIP3    H210357   2.639   5.745   1.302
 3451TIP3   OH210358   1.832   1.723   2.458
 3451TIP3    H110359   1.802   1.651   2.513
 3451TIP3    H210360   1.755   1.779   2.446
 3452TIP3   OH210361   4.973   2.931   0.931
 3452TIP3    H110362   5.052   2.984   0.941
 3452TIP3    H210363   4.949   2.907   1.021
 3453TIP3   OH210364   3.483   3.035   2.858
 3453TIP3    H110365   3.415   2.992   2.909
 3453TIP3    H210366   3.475   2.996   2.771
 3454TIP3   OH210367   4.041   0.674   1.858
 3454TIP3    H110368   4.050   0.731   1.782
 3454TIP3    H210369   4.079   0.591   1.831
 3455TIP3   OH210370   1.427   1.077   4.681
 3455TIP3    H110371   1.384   0.995   4.707
 3455TIP3    H210372   1.407   1.138   4.752
 3456TIP3   OH210373   5.284   5.465   4.468
 3456TIP3    H110374   5.279   5.521   4.390
 3456TIP3    H210375   5.350   5.507   4.523
 3457TIP3   OH210376   0.462   2.562   2.308
 3457TIP3    H110377   0.418   2.489   2.351
 3457TIP3    H210378   0.397   2.633   2.308
 3458TIP3   OH210379   3.689   1.370   2.212
 3458TIP3    H110380   3.746   1.446   2.223
 3458TIP3    H210381   3.615   1.403   2.160
 3459TIP3   OH210382   5.119   0.571   3.433
 3459TIP3    H110383   5.193   0.601   3.485
 3459TIP3    H210384   5.078   0.502   3.486
 3460TIP3   OH210385   1.051   5.927   4.461
 3460TIP3    H110386   1.100   5.908   4.380
 3460TIP3    H210387   0.964   5.951   4.431
 3461TIP3   OH210388   3.746   5.797   1.436
 3461TIP3    H110389   3.766   5.750   1.517
 3461TIP3    H210390   3.743   5.728   1.369
 3462TIP3   OH210391   4.418   1.232   3.849
 3462TIP3    H110392   4.460   1.316   3.832
 3462TIP3    H210393   4.352   1.223   3.780
 3463TIP3   OH210394   3.624   0.740   1.359
 3463TIP3    H110395   3.657   0.807   1.419
 3463TIP3    H210396   3.696   0.726   1.297
 3464TIP3   OH210397   6.354   2.522   2.820
 3464TIP3    H110398   6.273   2.574   2.821
 3464TIP3    H210399   6.389   2.531   2.908
 3465TIP3   OH210400   1.512   3.884   0.362
 3465TIP3    H110401   1.606   3.894   0.378
 3465TIP3    H210402   1.474   3.880   0.450
 3466TIP3   OH210403   0.548   3.083   0.028
 3466TIP3    H110404   0.570   3.060  -0.063
 3466TIP3    H210405   0.598   3.163   0.045
 3467TIP3   OH210406   1.731   1.659   3.006
 3467TIP3    H110407   1.803   1.704   3.048
 3467TIP3    H210408   1.666   1.647   3.075
 3468TIP3   OH210409   3.874   3.848   0.366
 3468TIP3    H110410   3.903   3.771   0.318
 3468TIP3    H210411   3.926   3.920   0.329
 3469TIP3   OH210412   2.159   3.315   3.516
 3469TIP3    H110413   2.217   3.254   3.471
 3469TIP3    H210414   2.213   3.394   3.530
 3470TIP3   OH210415   1.088   4.515   3.162
 3470TIP3    H110416   1.132   4.579   3.218
 3470TIP3    H210417   1.027   4.567   3.110
 3471TIP3   OH210418   1.456   0.939   0.013
 3471TIP3    H110419   1.510   0.866   0.041
 3471TIP3    H210420   1.450   0.996   0.090
 3472TIP3   OH210421   4.340   0.065   1.252
 3472TIP3    H110422   4.331  -0.013   1.197
 3472TIP3    H210423   4.378   0.131   1.193
 3473TIP3   OH210424   6.183   3.296   3.730
 3473TIP3    H110425   6.230   3.222   3.769
 3473TIP3    H210426   6.160   3.266   3.643
 3474TIP3   OH210427   3.549   1.912   4.671
 3474TIP3    H110428   3.641   1.902   4.694
 3474TIP3    H210429   3.534   2.007   4.671
 3475TIP3   OH210430   0.907   5.905   1.475
 3475TIP3    H110431   0.855   5.898   1.394
 3475TIP3    H210432   0.971   5.974   1.457
 3476TIP3   OH210433   3.956   0.090   3.833
 3476TIP3    H110434   4.013   0.166   3.837
 3476TIP3    H210435   3.953   0.066   3.740
 3477TIP3   OH210436   4.046   0.610   0.674
 3477TIP3    H110437   3.969   0.662   0.697
 3477TIP3    H210438   4.019   0.519   0.687
 3478TIP3   OH210439   3.679   0.790   4.638
 3478TIP3    H110440   3.584   0.780   4.639
 3478TIP3    H210441   3.694   0.876   4.599
 3479TIP3   OH210442   1.528   1.168   1.220
 3479TIP3    H110443   1.586   1.237   1.251
 3479TIP3    H210444   1.470   1.211   1.157
 3480TIP3   OH210445   3.091   0.063   2.903
 3480TIP3    H110446   3.075   0.045   2.810
 3480TIP3    H210447   3.175   0.108   2.904
 3481TIP3   OH210448   2.680   0.651   0.743
 3481TIP3    H110449   2.689   0.713   0.670
 3481TIP3    H210450   2.755   0.669   0.799
 3482TIP3   OH210451   4.087   3.239   5.119
 3482TIP3    H110452   4.136   3.157   5.114
 3482TIP3    H210453   4.101   3.270   5.209
 3483TIP3   OH210454   6.140   3.301   2.226
 3483TIP3    H110455   6.192   3.286   2.305
 3483TIP3    H210456   6.049   3.291   2.255
 3484TIP3   OH210457   1.079   0.021   0.716
 3484TIP3    H110458   1.034  -0.045   0.663
 3484TIP3    H210459   1.039   0.104   0.690
 3485TIP3   OH210460   5.313   0.682   3.716
 3485TIP3    H110461   5.247   0.679   3.785
 3485TIP3    H210462   5.349   0.770   3.720
 3486TIP3   OH210463   4.730   5.107   4.265
 3486TIP3    H110464   4.673   5.043   4.306
 3486TIP3    H210465   4.697   5.192   4.296
 3487TIP3   OH210466   1.399   0.939   2.443
 3487TIP3    H110467   1.392   0.962   2.350
 3487TIP3    H210468   1.454   1.008   2.480
 3488TIP3   OH210469   4.801   1.623   0.278
 3488TIP3    H110470   4.722   1.662   0.240
 3488TIP3    H210471   4.860   1.614   0.204
 3489TIP3   OH210472   0.134   5.869   1.532
 3489TIP3    H110473   0.058   5.888   1.587
 3489TIP3    H210474   0.109   5.790   1.483
 3490TIP3   OH210475   0.885   3.257   0.621
 3490TIP3    H110476   0.825   3.325   0.654
 3490TIP3    H210477   0.841   3.175   0.642
 3491TIP3   OH210478   5.031   3.580   0.341
 3491TIP3    H110479   5.086   3.530   0.280
 3491TIP3    H210480   5.000   3.655   0.290
 3492TIP3   OH210481   5.786   4.792   0.055
 3492TIP3    H110482   5.859   4.734   0.079
 3492TIP3    H210483   5.798   4.808  -0.038
 3493TIP3   OH210484   5.152   5.556   1.186
 3493TIP3    H110485   5.075   5.609   1.209
 3493TIP3    H210486   5.174   5.584   1.097
 3494TIP3   OH210487   3.747   0.617   3.787
 3494TIP3    H110488   3.816   0.571   3.835
 3494TIP3    H210489   3.672   0.617   3.846
 3495TIP3   OH210490   2.409   1.625   4.455
 3495TIP3    H110491   2.501   1.647   4.471
 3495TIP3    H210492   2.391   1.664   4.369
 3496TIP3   OH210493   4.490   2.378   0.509
 3496TIP3    H110494   4.430   2.303   0.510
 3496TIP3    H210495   4.488   2.408   0.418
 3497TIP3   OH210496   3.527   1.053   3.324
 3497TIP3    H110497   3.544   1.051   3.230
 3497TIP3    H210498   3.480   0.972   3.342
 3498TIP3   OH210499   5.129   4.323   1.947
 3498TIP3    H110500   5.177   4.302   1.867
 3498TIP3    H210501   5.189   4.298   2.018
 3499TIP3   OH210502   3.798   3.999   4.715
 3499TIP3    H110503   3.770   3.910   4.691
 3499TIP3    H210504   3.716   4.049   4.717
 3500TIP3   OH210505   4.917   4.244   4.395
 3500TIP3    H110506   4.882   4.332   4.390
 3500TIP3    H210507   4.872   4.195   4.326
 3501TIP3   OH210508   6.106   1.375   4.182
 3501TIP3    H110509   6.146   1.456   4.150
 3501TIP3    H210510   6.019   1.373   4.142
 3502TIP3   OH210511   4.556   1.010   3.234
 3502TIP3    H110512   4.628   0.983   3.177
 3502TIP3    H210513   4.491   0.939   3.225
 3503TIP3   OH210514   0.224   3.786   0.264
 3503TIP3    H110515   0.213   3.831   0.180
 3503TIP3    H210516   0.140   3.742   0.279
 3504TIP3   OH210517   6.201   4.038   3.559
 3504TIP3    H110518   6.133   4.030   3.627
 3504TIP3    H210519   6.280   4.061   3.607
 3505TIP3   OH210520   4.943   0.855   1.147
 3505TIP3    H110521   5.005   0.849   1.220
 3505TIP3    H210522   4.866   0.898   1.185
 3506TIP3   OH210523   0.599   0.834   2.236
 3506TIP3    H110524   0.574   0.744   2.217
 3506TIP3    H210525   0.570   0.883   2.159
 3507TIP3   OH210526   2.849   4.536   5.078
 3507TIP3    H110527   2.756   4.557   5.086
 3507TIP3    H210528   2.890   4.619   5.053
 3508TIP3   OH210529   3.687   1.230   1.511
 3508TIP3    H110530   3.776   1.199   1.528
 3508TIP3    H210531   3.678   1.225   1.416
 3509TIP3   OH210532   5.147   3.503   3.915
 3509TIP3    H110533   5.118   3.590   3.943
 3509TIP3    H210534   5.234   3.493   3.954
 3510TIP3   OH210535   4.366   5.191   3.050
 3510TIP3    H110536   4.389   5.234   2.968
 3510TIP3    H210537   4.331   5.106   3.023
 3511TIP3   OH210538   4.808   3.417   1.760
 3511TIP3    H110539   4.754   3.351   1.717
 3511TIP3    H210540   4.870   3.367   1.813
 3512TIP3   OH210541   3.577   4.354   2.301
 3512TIP3    H110542   3.642   4.423   2.311
 3512TIP3    H210543   3.588   4.299   2.379
 3513TIP3   OH210544   2.467   5.654   1.487
 3513TIP3    H110545   2.557   5.659   1.519
 3513TIP3    H210546   2.468   5.585   1.421
 3514TIP3   OH210547   1.899   3.059   3.175
 3514TIP3    H110548   1.956   3.047   3.250
 3514TIP3    H210549   1.947   3.022   3.101
 3515TIP3   OH210550   3.207   5.917   0.632
 3515TIP3    H110551   3.160   5.957   0.559
 3515TIP3    H210552   3.209   5.985   0.699
 3516TIP3   OH210553   2.508   4.979   3.611
 3516TIP3    H110554   2.479   5.029   3.535
 3516TIP3    H210555   2.578   4.922   3.578
 3517TIP3   OH210556   5.133   2.496   0.891
 3517TIP3    H110557   5.169   2.410   0.913
 3517TIP3    H210558   5.162   2.511   0.801
 3518TIP3   OH210559   3.149   4.382   2.563
 3518TIP3    H110560   3.165   4.406   2.471
 3518TIP3    H210561   3.184   4.294   2.570
 3519TIP3   OH210562   0.989   0.718   0.082
 3519TIP3    H110563   0.973   0.638   0.032
 3519TIP3    H210564   1.069   0.754   0.045
 3520TIP3   OH210565   0.469   1.423   1.204
 3520TIP3    H110566   0.433   1.475   1.276
 3520TIP3    H210567   0.471   1.333   1.238
 3521TIP3   OH210568   0.893   1.659   0.921
 3521TIP3    H110569   0.941   1.588   0.878
 3521TIP3    H210570   0.833   1.615   0.981
 3522TIP3   OH210571   0.833   2.768   4.289
 3522TIP3    H110572   0.837   2.758   4.384
 3522TIP3    H210573   0.810   2.681   4.256
 3523TIP3   OH210574   1.539   2.331   0.725
 3523TIP3    H110575   1.612   2.334   0.663
 3523TIP3    H210576   1.477   2.396   0.692
 3524TIP3   OH210577   3.429   4.450   4.845
 3524TIP3    H110578   3.524   4.436   4.850
 3524TIP3    H210579   3.399   4.388   4.779
 3525TIP3   OH210580   4.280   4.683   1.787
 3525TIP3    H110581   4.312   4.736   1.715
 3525TIP3    H210582   4.345   4.694   1.856
 3526TIP3   OH210583   1.726   3.873   0.833
 3526TIP3    H110584   1.711   3.796   0.778
 3526TIP3    H210585   1.815   3.862   0.867
 3527TIP3   OH210586   0.528   3.937   0.541
 3527TIP3    H110587   0.533   4.021   0.496
 3527TIP3    H210588   0.476   3.955   0.619
 3528TIP3   OH210589   1.039   2.421   1.623
 3528TIP3    H110590   0.960   2.367   1.635
 3528TIP3    H210591   1.090   2.406   1.703
 3529TIP3   OH210592   5.857   3.269  -0.024
 3529TIP3    H110593   5.790   3.258   0.043
 3529TIP3    H210594   5.828   3.344  -0.075
 3530TIP3   OH210595   0.295   5.914   0.877
 3530TIP3    H110596   0.294   5.956   0.791
 3530TIP3    H210597   0.263   5.982   0.937
 3531TIP3   OH210598   6.161   1.634   2.545
 3531TIP3    H110599   6.078   1.681   2.544
 3531TIP3    H210600   6.205   1.664   2.624
 3532TIP3   OH210601   3.204   5.677   0.789
 3532TIP3    H110602   3.212   5.754   0.733
 3532TIP3    H210603   3.293   5.656   0.815
 3533TIP3   OH210604   5.233   5.209   2.246
 3533TIP3    H110605   5.260   5.296   2.216
 3533TIP3    H210606   5.275   5.199   2.332
 3534TIP3   OH210607   1.894   5.024   2.555
 3534TIP3    H110608   1.851   4.948   2.595
 3534TIP3    H210609   1.844   5.040   2.475
 3535TIP3   OH210610   1.809   2.130   5.183
 3535TIP3    H110611   1.728   2.154   5.228
 3535TIP3    H210612   1.780   2.092   5.100
 3536TIP3   OH210613   4.319   4.511   3.716
 3536TIP3    H110614   4.251   4.553   3.769
 3536TIP3    H210615   4.401   4.545   3.751
 3537TIP3   OH210616   0.794   5.939   4.392
 3537TIP3    H110617   0.763   5.861   4.440
 3537TIP3    H210618   0.808   5.908   4.303
 3538TIP3   OH210619   4.760   0.478   0.643
 3538TIP3    H110620   4.709   0.546   0.687
 3538TIP3    H210621   4.736   0.397   0.687
 3539TIP3   OH210622   0.844   0.042   0.395
 3539TIP3    H110623   0.833  -0.044   0.436
 3539TIP3    H210624   0.764   0.090   0.417
 3540TIP3   OH210625   3.448   3.188   0.464
 3540TIP3    H110626   3.527   3.139   0.442
 3540TIP3    H210627   3.419   3.151   0.547
 3541TIP3   OH210628   0.428   4.771   4.648
 3541TIP3    H110629   0.512   4.783   4.693
 3541TIP3    H210630   0.365   4.754   4.717
 3542TIP3   OH210631   5.857   4.980   4.719
 3542TIP3    H110632   5.887   5.046   4.782
 3542TIP3    H210633   5.786   4.935   4.763
 3543TIP3   OH210634   2.397   1.719   0.143
 3543TIP3    H110635   2.409   1.635   0.186
 3543TIP3    H210636   2.387   1.697   0.050
 3544TIP3   OH210637   1.190   1.493   0.935
 3544TIP3    H110638   1.221   1.576   0.972
 3544TIP3    H210639   1.161   1.515   0.846
 3545TIP3   OH210640   3.301   2.329   3.788
 3545TIP3    H110641   3.280   2.401   3.847
 3545TIP3    H210642   3.370   2.364   3.731
 3546TIP3   OH210643   2.985   1.523   0.846
 3546TIP3    H110644   3.053   1.480   0.900
 3546TIP3    H210645   2.903   1.495   0.886
 3547TIP3   OH210646   4.828   0.936   1.383
 3547TIP3    H110647   4.872   0.860   1.420
 3547TIP3    H210648   4.769   0.966   1.452
 3548TIP3   OH210649   1.370   2.905   1.878
 3548TIP3    H110650   1.399   2.830   1.826
 3548TIP3    H210651   1.331   2.867   1.956
 3549TIP3   OH210652   4.021   5.121   0.547
 3549TIP3    H110653   4.071   5.203   0.546
 3549TIP3    H210654   3.942   5.140   0.496
 3550TIP3   OH210655   1.869   1.563   0.570
 3550TIP3    H110656   1.855   1.639   0.514
 3550TIP3    H210657   1.962   1.568   0.593
 3551TIP3   OH210658   1.651   1.338   3.092
 3551TIP3    H110659   1.604   1.411   3.131
 3551TIP3    H210660   1.645   1.354   2.997
 3552TIP3   OH210661   2.098   0.745   4.032
 3552TIP3    H110662   2.163   0.778   3.970
 3552TIP3    H210663   2.062   0.667   3.990
 3553TIP3   OH210664   2.001   5.279   2.616
 3553TIP3    H110665   1.939   5.208   2.600
 3553TIP3    H210666   1.945   5.357   2.621
 3554TIP3   OH210667   0.363   1.193   0.707
 3554TIP3    H110668   0.389   1.284   0.723
 3554TIP3    H210669   0.445   1.145   0.701
 3555TIP3   OH210670   3.696   0.889   5.092
 3555TIP3    H110671   3.632   0.909   5.160
 3555TIP3    H210672   3.663   0.809   5.051
 3556TIP3   OH210673   3.040   3.239   2.552
 3556TIP3    H110674   3.094   3.318   2.543
 3556TIP3    H210675   2.959   3.260   2.505
 3557TIP3   OH210676   2.562   4.215   1.210
 3557TIP3    H110677   2.655   4.197   1.223
 3557TIP3    H210678   2.548   4.204   1.116
 3558TIP3   OH210679   4.768   2.427   4.443
 3558TIP3    H110680   4.792   2.463   4.528
 3558TIP3    H210681   4.672   2.422   4.445
 3559TIP3   OH210682   4.034   2.083   2.638
 3559TIP3    H110683   4.000   2.007   2.685
 3559TIP3    H210684   3.956   2.127   2.605
 3560TIP3   OH210685   3.683   0.981   3.101
 3560TIP3    H110686   3.593   0.957   3.078
 3560TIP3    H210687   3.691   1.072   3.071
 3561TIP3   OH210688   6.207   1.333   3.789
 3561TIP3    H110689   6.158   1.252   3.777
 3561TIP3    H210690   6.151   1.401   3.752
 3562TIP3   OH210691   6.084   4.187   2.591
 3562TIP3    H110692   6.179   4.199   2.601
 3562TIP3    H210693   6.045   4.266   2.628
 3563TIP3   OH210694   3.576   0.083   3.499
 3563TIP3    H110695   3.600   0.019   3.432
 3563TIP3    H210696   3.483   0.098   3.487
 3564TIP3   OH210697   4.512   0.996   0.577
 3564TIP3    H110698   4.547   0.914   0.612
 3564TIP3    H210699   4.445   0.969   0.515
 3565TIP3   OH210700   3.851   1.405   5.099
 3565TIP3    H110701   3.865   1.496   5.128
 3565TIP3    H210702   3.893   1.352   5.167
 3566TIP3   OH210703   0.983   4.743   3.059
 3566TIP3    H110704   1.071   4.768   3.032
 3566TIP3    H210705   0.937   4.826   3.071
 3567TIP3   OH210706   2.889   1.103   0.447
 3567TIP3    H110707   2.921   1.071   0.531
 3567TIP3    H210708   2.916   1.195   0.445
 3568TIP3   OH210709   1.833   5.875   2.002
 3568TIP3    H110710   1.821   5.965   2.031
 3568TIP3    H210711   1.760   5.827   2.041
 3569TIP3   OH210712   2.416   0.095   4.524
 3569TIP3    H110713   2.500   0.103   4.477
 3569TIP3    H210714   2.439   0.048   4.604
 3570TIP3   OH210715   0.770   2.932   0.154
 3570TIP3    H110716   0.723   2.997   0.102
 3570TIP3    H210717   0.707   2.861   0.167
 3571TIP3   OH210718   2.218   2.395   0.891
 3571TIP3    H110719   2.171   2.344   0.957
 3571TIP3    H210720   2.228   2.335   0.817
 3572TIP3   OH210721   4.460   2.901   4.766
 3572TIP3    H110722   4.377   2.949   4.777
 3572TIP3    H210723   4.439   2.834   4.700
 3573TIP3   OH210724   3.110   3.002   4.259
 3573TIP3    H110725   3.027   2.960   4.238
 3573TIP3    H210726   3.154   2.941   4.318
 3574TIP3   OH210727   1.027   5.891   1.176
 3574TIP3    H110728   1.097   5.939   1.221
 3574TIP3    H210729   1.016   5.811   1.226
 3575TIP3   OH210730   5.077   1.466   3.813
 3575TIP3    H110731   5.130   1.396   3.775
 3575TIP3    H210732   5.139   1.535   3.836
 3576TIP3   OH210733   6.108   0.274   4.875
 3576TIP3    H110734   6.026   0.228   4.894
 3576TIP3    H210735   6.112   0.276   4.779
 3577TIP3   OH210736   0.398   0.234   3.423
 3577TIP3    H110737   0.398   0.319   3.379
 3577TIP3    H210738   0.484   0.197   3.402
 3578TIP3   OH210739   4.608   2.948   3.676
 3578TIP3    H110740   4.570   2.973   3.592
 3578TIP3    H210741   4.539   2.968   3.740
 3579TIP3   OH210742   1.960   2.094   4.568
 3579TIP3    H110743   1.870   2.066   4.552
 3579TIP3    H210744   2.013   2.020   4.538
 3580TIP3   OH210745   5.056   0.317   2.053
 3580TIP3    H110746   5.072   0.397   2.005
 3580TIP3    H210747   5.057   0.248   1.987
 3581TIP3   OH210748   4.872   1.361   4.208
 3581TIP3    H110749   4.810   1.353   4.281
 3581TIP3    H210750   4.819   1.390   4.134
 3582TIP3   OH210751   6.294   5.528   1.584
 3582TIP3    H110752   6.325   5.438   1.573
 3582TIP3    H210753   6.372   5.577   1.608
 3583TIP3   OH210754   1.891   0.983   1.657
 3583TIP3    H110755   1.927   0.994   1.569
 3583TIP3    H210756   1.909   1.066   1.701
 3584TIP3   OH210757   3.725   1.320  -0.012
 3584TIP3    H110758   3.787   1.267  -0.061
 3584TIP3    H210759   3.752   1.311   0.079
 3585TIP3   OH210760   4.931   0.453   3.682
 3585TIP3    H110761   4.872   0.452   3.606
 3585TIP3    H210762   4.874   0.471   3.756
 3586TIP3   OH210763   0.091   5.805   2.709
 3586TIP3    H110764   0.137   5.840   2.785
 3586TIP3    H210765   0.004   5.781   2.742
 3587TIP3   OH210766   1.910   1.045   0.327
 3587TIP3    H110767   1.843   0.977   0.336
 3587TIP3    H210768   1.900   1.076   0.238
 3588TIP3   OH210769   2.474   3.560   3.727
 3588TIP3    H110770   2.567   3.580   3.717
 3588TIP3    H210771   2.472   3.480   3.779
 3589TIP3   OH210772   4.678   4.906   1.181
 3589TIP3    H110773   4.745   4.965   1.147
 3589TIP3    H210774   4.728   4.833   1.218
 3590TIP3   OH210775   5.890   0.230   3.480
 3590TIP3    H110776   5.864   0.138   3.470
 3590TIP3    H210777   5.974   0.226   3.527
 3591TIP3   OH210778   4.049   3.954   1.721
 3591TIP3    H110779   4.109   4.021   1.752
 3591TIP3    H210780   4.083   3.930   1.634
 3592TIP3   OH210781   0.493   1.976   0.040
 3592TIP3    H110782   0.480   1.886   0.071
 3592TIP3    H210783   0.498   2.029   0.120
 3593TIP3   OH210784   0.166   2.959   3.604
 3593TIP3    H110785   0.244   3.013   3.614
 3593TIP3    H210786   0.113   3.005   3.539
 3594TIP3   OH210787   5.111   5.574   4.185
 3594TIP3    H110788   5.090   5.619   4.103
 3594TIP3    H210789   5.137   5.486   4.157
 3595TIP3   OH210790   5.799   4.142   2.782
 3595TIP3    H110791   5.843   4.221   2.750
 3595TIP3    H210792   5.708   4.170   2.797
 3596TIP3   OH210793   2.332   0.410   0.962
 3596TIP3    H110794   2.330   0.484   1.024
 3596TIP3    H210795   2.275   0.438   0.890
 3597TIP3   OH210796   4.675   3.345   4.396
 3597TIP3    H110797   4.769   3.365   4.399
 3597TIP3    H210798   4.634   3.414   4.449
 3598TIP3   OH210799   4.733   0.749   0.856
 3598TIP3    H110800   4.734   0.666   0.903
 3598TIP3    H210801   4.786   0.808   0.909
 3599TIP3   OH210802   0.116   3.361   3.289
 3599TIP3    H110803   0.062   3.429   3.249
 3599TIP3    H210804   0.189   3.408   3.329
 3600TIP3   OH210805   0.902   3.707   2.912
 3600TIP3    H110806   0.852   3.780   2.875
 3600TIP3    H210807   0.920   3.649   2.838
 3601TIP3   OH210808   5.513   0.775   1.928
 3601TIP3    H110809   5.602   0.808   1.941
 3601TIP3    H210810   5.474   0.836   1.865
 3602TIP3   OH210811   4.096   2.005   0.087
 3602TIP3    H110812   4.154   2.076   0.116
 3602TIP3    H210813   4.084   2.020  -0.006
 3603TIP3   OH210814   5.964   1.411   0.937
 3603TIP3    H110815   5.916   1.491   0.959
 3603TIP3    H210816   5.917   1.375   0.861
 3604TIP3   OH210817   0.172   5.065   3.039
 3604TIP3    H110818   0.231   5.072   2.964
 3604TIP3    H210819   0.180   5.149   3.084
 3605TIP3   OH210820   2.394   3.482   1.959
 3605TIP3    H110821   2.464   3.515   2.015
 3605TIP3    H210822   2.418   3.512   1.871
 3606TIP3   OH210823   3.508   4.860   0.615
 3606TIP3    H110824   3.422   4.896   0.634
 3606TIP3    H210825   3.505   4.771   0.650
 3607TIP3   OH210826   2.282   4.257   4.249
 3607TIP3    H110827   2.339   4.321   4.292
 3607TIP3    H210828   2.205   4.306   4.222
 3608TIP3   OH210829   5.011   1.318   4.517
 3608TIP3    H110830   5.039   1.260   4.588
 3608TIP3    H210831   5.001   1.260   4.441
 3609TIP3   OH210832   1.431   5.311   2.303
 3609TIP3    H110833   1.348   5.264   2.308
 3609TIP3    H210834   1.481   5.281   2.379
 3610TIP3   OH210835   6.064   1.083   5.082
 3610TIP3    H110836   6.064   0.996   5.043
 3610TIP3    H210837   6.053   1.066   5.176
 3611TIP3   OH210838   0.512   2.499   1.198
 3611TIP3    H110839   0.593   2.544   1.222
 3611TIP3    H210840   0.443   2.563   1.215
 3612TIP3   OH210841   1.333   1.855   3.116
 3612TIP3    H110842   1.280   1.924   3.077
 3612TIP3    H210843   1.339   1.788   3.048
 3613TIP3   OH210844   2.609   5.740   4.888
 3613TIP3    H110845   2.516   5.760   4.882
 3613TIP3    H210846   2.644   5.766   4.802
 3614TIP3   OH210847   0.593   4.319   1.078
 3614TIP3    H110848   0.501   4.302   1.058
 3614TIP3    H210849   0.606   4.280   1.165
 3615TIP3   OH210850   5.102   3.145   4.454
 3615TIP3    H110851   5.110   3.219   4.515
 3615TIP3    H210852   5.008   3.131   4.445
 3616TIP3   OH210853   3.313   1.028   2.867
 3616TIP3    H110854   3.278   1.082   2.938
 3616TIP3    H210855   3.383   0.976   2.908
 3617TIP3   OH210856   4.257   5.717   2.111
 3617TIP3    H110857   4.308   5.659   2.168
 3617TIP3    H210858   4.203   5.767   2.171
 3618TIP3   OH210859   3.716   3.514   2.492
 3618TIP3    H110860   3.744   3.605   2.482
 3618TIP3    H210861   3.797   3.464   2.492
 3619TIP3   OH210862   5.105   3.805   1.149
 3619TIP3    H110863   5.192   3.840   1.132
 3619TIP3    H210864   5.100   3.725   1.096
 3620TIP3   OH210865   2.661   2.882   3.237
 3620TIP3    H110866   2.756   2.870   3.247
 3620TIP3    H210867   2.651   2.965   3.192
 3621TIP3   OH210868   2.640   5.234   1.440
 3621TIP3    H110869   2.695   5.209   1.366
 3621TIP3    H210870   2.701   5.256   1.510
 3622TIP3   OH210871   0.436   1.921   2.166
 3622TIP3    H110872   0.385   1.893   2.242
 3622TIP3    H210873   0.429   1.848   2.105
 3623TIP3   OH210874   3.950   5.722   4.042
 3623TIP3    H110875   3.987   5.793   4.094
 3623TIP3    H210876   3.902   5.766   3.972
 3624TIP3   OH210877   4.722   1.698   1.154
 3624TIP3    H110878   4.645   1.717   1.209
 3624TIP3    H210879   4.687   1.645   1.082
 3625TIP3   OH210880   1.465   4.894   0.711
 3625TIP3    H110881   1.476   4.968   0.770
 3625TIP3    H210882   1.541   4.838   0.729
 3626TIP3   OH210883   5.543   0.107   0.388
 3626TIP3    H110884   5.451   0.134   0.380
 3626TIP3    H210885   5.591   0.166   0.331
 3627TIP3   OH210886   5.470   5.610   1.589
 3627TIP3    H110887   5.556   5.608   1.547
 3627TIP3    H210888   5.471   5.536   1.650
 3628TIP3   OH210889   4.921   2.856   1.191
 3628TIP3    H110890   4.838   2.812   1.172
 3628TIP3    H210891   4.984   2.784   1.200
 3629TIP3   OH210892   2.424   5.351   3.956
 3629TIP3    H110893   2.453   5.260   3.960
 3629TIP3    H210894   2.468   5.387   3.879
 3630TIP3   OH210895   0.488   0.616   2.116
 3630TIP3    H110896   0.413   0.672   2.094
 3630TIP3    H210897   0.487   0.546   2.051
 3631TIP3   OH210898   6.085   1.906   1.431
 3631TIP3    H110899   6.178   1.907   1.453
 3631TIP3    H210900   6.075   1.832   1.371
 3632TIP3   OH210901   0.357   4.870   0.285
 3632TIP3    H110902   0.325   4.937   0.345
 3632TIP3    H210903   0.448   4.895   0.268
 3633TIP3   OH210904   3.641   3.532   1.045
 3633TIP3    H110905   3.685   3.478   1.111
 3633TIP3    H210906   3.640   3.620   1.082
 3634TIP3   OH210907   4.990   0.694   2.474
 3634TIP3    H110908   5.032   0.767   2.520
 3634TIP3    H210909   4.896   0.713   2.479
 3635TIP3   OH210910   0.027   3.287   2.037
 3635TIP3    H110911   0.050   3.198   2.061
 3635TIP3    H210912  -0.017   3.323   2.114
 3636TIP3   OH210913   4.073   0.777   3.017
 3636TIP3    H110914   4.100   0.860   2.978
 3636TIP3    H210915   4.009   0.742   2.955
 3637TIP3   OH210916   1.982   0.213   2.617
 3637TIP3    H110917   2.039   0.190   2.543
 3637TIP3    H210918   1.964   0.306   2.606
 3638TIP3   OH210919   1.151   5.946   2.211
 3638TIP3    H110920   1.158   5.860   2.251
 3638TIP3    H210921   1.076   5.940   2.152
 3639TIP3   OH210922   0.697   3.733   0.606
 3639TIP3    H110923   0.634   3.786   0.558
 3639TIP3    H210924   0.759   3.796   0.643
 3640TIP3   OH210925   0.561   1.500   3.581
 3640TIP3    H110926   0.615   1.566   3.623
 3640TIP3    H210927   0.545   1.534   3.493
 3641TIP3   OH210928   1.888   5.224   2.917
 3641TIP3    H110929   1.835   5.213   2.996
 3641TIP3    H210930   1.891   5.137   2.877
 3642TIP3   OH210931   5.726   0.734   3.427
 3642TIP3    H110932   5.682   0.748   3.343
 3642TIP3    H210933   5.733   0.639   3.435
 3643TIP3   OH210934   3.881   0.628   1.213
 3643TIP3    H110935   3.923   0.620   1.127
 3643TIP3    H210936   3.947   0.672   1.268
 3644TIP3   OH210937   2.411   4.900   2.959
 3644TIP3    H110938   2.394   4.937   3.046
 3644TIP3    H210939   2.494   4.853   2.968
 3645TIP3   OH210940   1.403   5.762   1.254
 3645TIP3    H110941   1.407   5.790   1.162
 3645TIP3    H210942   1.310   5.747   1.271
 3646TIP3   OH210943   1.682   4.201   0.495
 3646TIP3    H110944   1.600   4.200   0.446
 3646TIP3    H210945   1.725   4.282   0.469
 3647TIP3   OH210946   5.799   1.485   4.230
 3647TIP3    H110947   5.805   1.545   4.304
 3647TIP3    H210948   5.709   1.451   4.233
 3648TIP3   OH210949   3.085   1.517   4.652
 3648TIP3    H110950   3.132   1.438   4.623
 3648TIP3    H210951   3.060   1.561   4.571
 3649TIP3   OH210952   4.925   5.291   0.234
 3649TIP3    H110953   4.934   5.197   0.224
 3649TIP3    H210954   4.969   5.311   0.317
 3650TIP3   OH210955   1.533   1.552   5.149
 3650TIP3    H110956   1.542   1.618   5.218
 3650TIP3    H210957   1.608   1.494   5.162
 3651TIP3   OH210958   0.689   0.968   1.522
 3651TIP3    H110959   0.608   1.019   1.513
 3651TIP3    H210960   0.749   1.006   1.458
 3652TIP3   OH210961   4.313   3.564   4.326
 3652TIP3    H110962   4.249   3.555   4.396
 3652TIP3    H210963   4.324   3.658   4.315
 3653TIP3   OH210964   3.806   4.135   3.832
 3653TIP3    H110965   3.776   4.204   3.773
 3653TIP3    H210966   3.902   4.142   3.830
 3654TIP3   OH210967   1.922   4.827   4.161
 3654TIP3    H110968   1.952   4.889   4.094
 3654TIP3    H210969   1.829   4.849   4.173
 3655TIP3   OH210970   4.956   5.183   1.471
 3655TIP3    H110971   4.861   5.171   1.477
 3655TIP3    H210972   4.969   5.276   1.488
 3656TIP3   OH210973   5.278   5.657   3.671
 3656TIP3    H110974   5.205   5.610   3.631
 3656TIP3    H210975   5.298   5.607   3.750
 3657TIP3   OH210976   5.348   3.933   1.389
 3657TIP3    H110977   5.270   3.984   1.411
 3657TIP3    H210978   5.351   3.932   1.293
 3658TIP3   OH210979   5.259   0.722   2.667
 3658TIP3    H110980   5.312   0.699   2.591
 3658TIP3    H210981   5.322   0.754   2.731
 3659TIP3   OH210982   2.889   0.216   2.014
 3659TIP3    H110983   2.898   0.259   1.929
 3659TIP3    H210984   2.795   0.200   2.023
 3660TIP3   OH210985   1.236   0.913   1.872
 3660TIP3    H110986   1.299   0.869   1.814
 3660TIP3    H210987   1.212   0.847   1.937
 3661TIP3   OH210988   3.264   3.944   3.465
 3661TIP3    H110989   3.216   3.988   3.534
 3661TIP3    H210990   3.304   3.867   3.507
 3662TIP3   OH210991   5.334   0.110   4.204
 3662TIP3    H110992   5.415   0.154   4.179
 3662TIP3    H210993   5.270   0.139   4.139
 3663TIP3   OH210994   1.795   0.450   3.557
 3663TIP3    H110995   1.743   0.469   3.635
 3663TIP3    H210996   1.854   0.525   3.548
 3664TIP3   OH210997   2.103   4.857   1.068
 3664TIP3    H110998   2.167   4.806   1.018
 3664TIP3    H210999   2.155   4.926   1.109
 3665TIP3   OH211000   0.273   3.194   1.887
 3665TIP3    H111001   0.241   3.259   1.950
 3665TIP3    H211002   0.259   3.110   1.931
 3666TIP3   OH211003   0.911   3.324   3.922
 3666TIP3    H111004   0.985   3.264   3.933
 3666TIP3    H211005   0.918   3.384   3.996
 3667TIP3   OH211006   0.781   0.314   0.171
 3667TIP3    H111007   0.788   0.354   0.258
 3667TIP3    H211008   0.693   0.276   0.170
 3668TIP3   OH211009   3.986   5.275   3.663
 3668TIP3    H111010   4.066   5.235   3.696
 3668TIP3    H211011   3.957   5.334   3.733
 3669TIP3   OH211012   6.184   5.635   0.985
 3669TIP3    H111013   6.243   5.578   1.034
 3669TIP3    H211014   6.128   5.674   1.052
 3670TIP3   OH211015   5.108   2.790   3.654
 3670TIP3    H111016   5.031   2.839   3.625
 3670TIP3    H211017   5.162   2.855   3.700
 3671TIP3   OH211018   0.075   0.522   3.216
 3671TIP3    H111019   0.146   0.584   3.231
 3671TIP3    H211020  -0.005   0.572   3.231
 3672TIP3   OH211021   2.158   3.230   0.466
 3672TIP3    H111022   2.091   3.290   0.500
 3672TIP3    H211023   2.196   3.277   0.392
 3673TIP3   OH211024   3.098   4.382   1.407
 3673TIP3    H111025   3.107   4.379   1.312
 3673TIP3    H211026   3.141   4.464   1.433
 3674TIP3   OH211027   6.241   0.413   1.900
 3674TIP3    H111028   6.204   0.370   1.977
 3674TIP3    H211029   6.205   0.502   1.903
 3675TIP3   OH211030   4.155   1.216   2.125
 3675TIP3    H111031   4.114   1.215   2.039
 3675TIP3    H211032   4.190   1.305   2.134
 3676TIP3   OH211033   3.409   3.107   3.319
 3676TIP3    H111034   3.337   3.151   3.363
 3676TIP3    H211035   3.488   3.150   3.353
 3677TIP3   OH211036   2.981   4.290   3.200
 3677TIP3    H111037   2.955   4.367   3.149
 3677TIP3    H211038   3.076   4.283   3.185
 3678TIP3   OH211039   0.987   3.503   1.132
 3678TIP3    H111040   1.071   3.503   1.087
 3678TIP3    H211041   0.978   3.592   1.166
 3679TIP3   OH211042   3.746   2.228   2.546
 3679TIP3    H111043   3.682   2.267   2.487
 3679TIP3    H211044   3.794   2.302   2.583
 3680TIP3   OH211045   2.815   3.509   1.372
 3680TIP3    H111046   2.726   3.526   1.340
 3680TIP3    H211047   2.802   3.478   1.461
 3681TIP3   OH211048   3.643   4.465   4.649
 3681TIP3    H111049   3.708   4.534   4.660
 3681TIP3    H211050   3.576   4.502   4.593
 3682TIP3   OH211051   5.870   1.549   1.995
 3682TIP3    H111052   5.960   1.578   2.006
 3682TIP3    H211053   5.848   1.506   2.078
 3683TIP3   OH211054   0.657   1.903   4.989
 3683TIP3    H111055   0.670   1.990   5.025
 3683TIP3    H211056   0.734   1.853   5.017
 3684TIP3   OH211057   5.726   1.342   2.666
 3684TIP3    H111058   5.806   1.290   2.657
 3684TIP3    H211059   5.720   1.392   2.584
 3685TIP3   OH211060   0.477   5.891   2.282
 3685TIP3    H111061   0.395   5.938   2.268
 3685TIP3    H211062   0.451   5.802   2.303
 3686TIP3   OH211063   5.383   0.470   1.069
 3686TIP3    H111064   5.464   0.486   1.118
 3686TIP3    H211065   5.396   0.385   1.028
 3687TIP3   OH211066   2.287   4.465   1.534
 3687TIP3    H111067   2.380   4.489   1.535
 3687TIP3    H211068   2.252   4.508   1.456
 3688TIP3   OH211069   2.032   0.095   0.531
 3688TIP3    H111070   1.989   0.010   0.516
 3688TIP3    H211071   1.974   0.159   0.490
 3689TIP3   OH211072   5.982   1.026   2.075
 3689TIP3    H111073   6.053   1.084   2.048
 3689TIP3    H211074   6.025   0.942   2.092
 3690TIP3   OH211075   3.604   1.376   0.891
 3690TIP3    H111076   3.569   1.410   0.808
 3690TIP3    H211077   3.662   1.445   0.923
 3691TIP3   OH211078   4.871   4.977   4.684
 3691TIP3    H111079   4.886   5.071   4.687
 3691TIP3    H211080   4.936   4.944   4.622
 3692TIP3   OH211081   5.297   1.043   1.982
 3692TIP3    H111082   5.246   1.037   2.063
 3692TIP3    H211083   5.242   1.002   1.916
 3693TIP3   OH211084   5.145   0.841   1.356
 3693TIP3    H111085   5.133   0.805   1.444
 3693TIP3    H211086   5.239   0.829   1.338
 3694TIP3   OH211087   1.346   5.047   4.017
 3694TIP3    H111088   1.294   5.067   3.940
 3694TIP3    H211089   1.334   5.121   4.075
 3695TIP3   OH211090   0.588   1.862   4.266
 3695TIP3    H111091   0.570   1.955   4.282
 3695TIP3    H211092   0.586   1.853   4.170
 3696TIP3   OH211093   1.545   0.307   3.962
 3696TIP3    H111094   1.614   0.244   3.945
 3696TIP3    H211095   1.465   0.264   3.933
 3697TIP3   OH211096   4.606   1.840   4.362
 3697TIP3    H111097   4.647   1.913   4.409
 3697TIP3    H211098   4.555   1.794   4.429
 3698TIP3   OH211099   4.836   1.212   0.134
 3698TIP3    H111100   4.908   1.154   0.158
 3698TIP3    H211101   4.860   1.297   0.169
 3699TIP3   OH211102   3.384   2.085   2.513
 3699TIP3    H111103   3.325   2.066   2.441
 3699TIP3    H211104   3.348   2.037   2.587
 3700TIP3   OH211105   4.688   0.750   2.122
 3700TIP3    H111106   4.668   0.683   2.187
 3700TIP3    H211107   4.683   0.833   2.171
 3701TIP3   OH211108   2.565   4.932   0.747
 3701TIP3    H111109   2.607   4.982   0.677
 3701TIP3    H211110   2.611   4.849   0.748
 3702TIP3   OH211111   0.445   5.043   2.849
 3702TIP3    H111112   0.423   4.957   2.812
 3702TIP3    H211113   0.434   5.104   2.777
 3703TIP3   OH211114   1.131   5.701   2.342
 3703TIP3    H111115   1.036   5.704   2.333
 3703TIP3    H211116   1.153   5.607   2.336
 3704TIP3   OH211117   0.296   3.735   1.214
 3704TIP3    H111118   0.340   3.670   1.158
 3704TIP3    H211119   0.359   3.754   1.283
 3705TIP3   OH211120   4.866   5.876   4.164
 3705TIP3    H111121   4.904   5.823   4.094
 3705TIP3    H211122   4.928   5.948   4.176
 3706TIP3   OH211123   4.050   3.768   3.843
 3706TIP3    H111124   4.121   3.716   3.880
 3706TIP3    H211125   3.987   3.777   3.915
 3707TIP3   OH211126   4.798   5.258   4.641
 3707TIP3    H111127   4.725   5.298   4.688
 3707TIP3    H211128   4.814   5.317   4.567
 3708TIP3   OH211129   3.582   1.713   4.279
 3708TIP3    H111130   3.671   1.682   4.295
 3708TIP3    H211131   3.557   1.671   4.196
 3709TIP3   OH211132   4.955   4.999   3.631
 3709TIP3    H111133   4.964   5.094   3.646
 3709TIP3    H211134   4.984   4.987   3.540
 3710TIP3   OH211135   3.326   5.767   3.080
 3710TIP3    H111136   3.232   5.783   3.089
 3710TIP3    H211137   3.331   5.684   3.033
 3711TIP3   OH211138   1.667   3.062   1.013
 3711TIP3    H111139   1.739   3.030   1.068
 3711TIP3    H211140   1.697   3.045   0.923
 3712TIP3   OH211141   1.492   3.597   3.037
 3712TIP3    H111142   1.516   3.669   2.979
 3712TIP3    H211143   1.399   3.612   3.056
 3713TIP3   OH211144   2.029   3.298   4.846
 3713TIP3    H111145   1.991   3.217   4.880
 3713TIP3    H211146   2.014   3.363   4.915
 3714TIP3   OH211147   4.672   4.264   2.124
 3714TIP3    H111148   4.580   4.243   2.105
 3714TIP3    H211149   4.708   4.291   2.039
 3715TIP3   OH211150  -0.035   5.025   4.718
 3715TIP3    H111151   0.052   5.057   4.743
 3715TIP3    H211152  -0.029   5.010   4.624
 3716TIP3   OH211153   6.342   2.045   1.732
 3716TIP3    H111154   6.342   1.984   1.806
 3716TIP3    H211155   6.257   2.089   1.737
 3717TIP3   OH211156   1.989   1.707   1.276
 3717TIP3    H111157   2.058   1.763   1.312
 3717TIP3    H211158   2.030   1.622   1.265
 3718TIP3   OH211159   3.431   5.124   5.101
 3718TIP3    H111160   3.444   5.133   5.196
 3718TIP3    H211161   3.506   5.074   5.071
 3719TIP3   OH211162   4.082   0.295   1.365
 3719TIP3    H111163   4.161   0.253   1.399
 3719TIP3    H211164   4.108   0.332   1.281
 3720TIP3   OH211165   3.743   3.704   3.827
 3720TIP3    H111166   3.774   3.776   3.883
 3720TIP3    H211167   3.687   3.652   3.884
 3721TIP3   OH211168   3.186   4.711   3.040
 3721TIP3    H111169   3.237   4.689   2.963
 3721TIP3    H211170   3.164   4.803   3.029
 3722TIP3   OH211171   2.254   3.243   1.223
 3722TIP3    H111172   2.229   3.292   1.144
 3722TIP3    H211173   2.191   3.272   1.290
 3723TIP3   OH211174   0.545   1.223   5.133
 3723TIP3    H111175   0.492   1.260   5.204
 3723TIP3    H211176   0.623   1.278   5.130
 3724TIP3   OH211177   4.284   5.692   0.284
 3724TIP3    H111178   4.321   5.780   0.291
 3724TIP3    H211179   4.248   5.673   0.370
 3725TIP3   OH211180   6.109   2.893   2.491
 3725TIP3    H111181   6.183   2.946   2.464
 3725TIP3    H211182   6.037   2.921   2.435
 3726TIP3   OH211183   5.038   5.104   2.699
 3726TIP3    H111184   5.021   5.018   2.660
 3726TIP3    H211185   5.132   5.118   2.688
 3727TIP3   OH211186   4.316   3.775   4.965
 3727TIP3    H111187   4.301   3.693   4.917
 3727TIP3    H211188   4.246   3.779   5.029
 3728TIP3   OH211189   1.549   0.232   1.333
 3728TIP3    H111190   1.506   0.258   1.252
 3728TIP3    H211191   1.593   0.312   1.363
 3729TIP3   OH211192   2.975   3.972   1.418
 3729TIP3    H111193   2.993   4.019   1.336
 3729TIP3    H211194   2.987   3.879   1.396
 3730TIP3   OH211195   6.290   4.389   2.882
 3730TIP3    H111196   6.255   4.337   2.954
 3730TIP3    H211197   6.225   4.458   2.868
 3731TIP3   OH211198   1.912   4.824   3.263
 3731TIP3    H111199   1.975   4.810   3.193
 3731TIP3    H211200   1.947   4.899   3.313
 3732TIP3   OH211201   2.216   2.163   4.436
 3732TIP3    H111202   2.165   2.201   4.364
 3732TIP3    H211203   2.186   2.072   4.440
 3733TIP3   OH211204   2.007   2.410   3.123
 3733TIP3    H111205   2.033   2.364   3.044
 3733TIP3    H211206   2.064   2.375   3.192
 3734TIP3   OH211207   4.189   3.969   1.148
 3734TIP3    H111208   4.138   4.043   1.182
 3734TIP3    H211209   4.123   3.902   1.130
 3735TIP3   OH211210   0.460   0.413   4.921
 3735TIP3    H111211   0.485   0.328   4.957
 3735TIP3    H211212   0.482   0.476   4.990
 3736TIP3   OH211213   3.737   4.312   2.074
 3736TIP3    H111214   3.730   4.225   2.036
 3736TIP3    H211215   3.701   4.304   2.162
 3737TIP3   OH211216   1.080   4.447   4.623
 3737TIP3    H111217   1.048   4.379   4.563
 3737TIP3    H211218   1.167   4.416   4.650
 3738TIP3   OH211219   3.367   3.413   3.966
 3738TIP3    H111220   3.276   3.438   3.955
 3738TIP3    H211221   3.366   3.351   4.039
 3739TIP3   OH211222   3.757   3.336   3.380
 3739TIP3    H111223   3.745   3.262   3.440
 3739TIP3    H211224   3.707   3.311   3.302
 3740TIP3   OH211225   3.934   1.755   2.738
 3740TIP3    H111226   3.864   1.719   2.684
 3740TIP3    H211227   4.013   1.748   2.684
 3741TIP3   OH211228   1.837   3.448   0.105
 3741TIP3    H111229   1.851   3.357   0.131
 3741TIP3    H211230   1.923   3.479   0.078
 3742TIP3   OH211231   1.401   4.178   1.689
 3742TIP3    H111232   1.461   4.249   1.664
 3742TIP3    H211233   1.459   4.104   1.707
 3743TIP3   OH211234   5.864   0.880   0.171
 3743TIP3    H111235   5.906   0.911   0.252
 3743TIP3    H211236   5.928   0.899   0.102
 3744TIP3   OH211237   5.267   3.620   3.489
 3744TIP3    H111238   5.247   3.540   3.538
 3744TIP3    H211239   5.317   3.589   3.413
 3745TIP3   OH211240   2.949   3.175   1.544
 3745TIP3    H111241   3.022   3.192   1.604
 3745TIP3    H211242   2.983   3.198   1.458
 3746TIP3   OH211243   5.580   2.539   0.857
 3746TIP3    H111244   5.573   2.565   0.765
 3746TIP3    H211245   5.496   2.497   0.876
 3747TIP3   OH211246   2.437   5.096   1.564
 3747TIP3    H111247   2.381   5.174   1.557
 3747TIP3    H211248   2.483   5.092   1.480
 3748TIP3   OH211249   4.818   5.708   3.116
 3748TIP3    H111250   4.893   5.765   3.099
 3748TIP3    H211251   4.851   5.644   3.179
 3749TIP3   OH211252   5.684   4.949   0.258
 3749TIP3    H111253   5.702   4.923   0.168
 3749TIP3    H211254   5.681   4.867   0.307
 3750TIP3   OH211255   1.529   1.283   0.454
 3750TIP3    H111256   1.492   1.371   0.449
 3750TIP3    H211257   1.620   1.296   0.478
 3751TIP3   OH211258   0.722   5.809   2.147
 3751TIP3    H111259   0.686   5.735   2.098
 3751TIP3    H211260   0.647   5.842   2.196
 3752TIP3   OH211261   3.962   0.672   2.324
 3752TIP3    H111262   3.889   0.734   2.327
 3752TIP3    H211263   3.963   0.633   2.412
 3753TIP3   OH211264   4.865   2.113   4.698
 3753TIP3    H111265   4.857   2.196   4.746
 3753TIP3    H211266   4.816   2.050   4.752
 3754TIP3   OH211267   4.233   1.544   1.922
 3754TIP3    H111268   4.177   1.605   1.875
 3754TIP3    H211269   4.199   1.545   2.012
 3755TIP3   OH211270   2.957   2.481   3.707
 3755TIP3    H111271   2.912   2.565   3.699
 3755TIP3    H211272   3.039   2.493   3.658
 3756TIP3   OH211273   1.100   3.803   2.419
 3756TIP3    H111274   1.177   3.825   2.367
 3756TIP3    H211275   1.027   3.846   2.375
 3757TIP3   OH211276   3.290   4.607   2.752
 3757TIP3    H111277   3.256   4.521   2.776
 3757TIP3    H211278   3.236   4.635   2.678
 3758TIP3   OH211279   4.000   4.414   2.537
 3758TIP3    H111280   3.975   4.428   2.628
 3758TIP3    H211281   3.946   4.475   2.487
 3759TIP3   OH211282   2.874   4.485   3.895
 3759TIP3    H111283   2.850   4.419   3.960
 3759TIP3    H211284   2.796   4.540   3.887
 3760TIP3   OH211285   4.856   1.970   3.890
 3760TIP3    H111286   4.784   1.927   3.937
 3760TIP3    H211287   4.935   1.938   3.933
 3761TIP3   OH211288   1.682   4.969   1.812
 3761TIP3    H111289   1.654   5.031   1.745
 3761TIP3    H211290   1.620   4.896   1.804
 3762TIP3   OH211291   2.150   5.959   0.939
 3762TIP3    H111292   2.141   5.900   1.014
 3762TIP3    H211293   2.164   5.902   0.864
 3763TIP3   OH211294   1.513   4.638   4.196
 3763TIP3    H111295   1.485   4.665   4.109
 3763TIP3    H211296   1.604   4.609   4.184
 3764TIP3   OH211297   3.709   0.195   3.997
 3764TIP3    H111298   3.649   0.157   3.933
 3764TIP3    H211299   3.795   0.162   3.973
 3765TIP3   OH211300   1.921   0.275   3.875
 3765TIP3    H111301   1.959   0.217   3.941
 3765TIP3    H211302   1.917   0.223   3.796
 3766TIP3   OH211303   1.415   1.337   1.033
 3766TIP3    H111304   1.341   1.373   0.984
 3766TIP3    H211305   1.426   1.397   1.107
 3767TIP3   OH211306   3.791   0.254   3.063
 3767TIP3    H111307   3.791   0.338   3.016
 3767TIP3    H211308   3.709   0.212   3.037
 3768TIP3   OH211309   2.584   0.426   1.911
 3768TIP3    H111310   2.593   0.506   1.860
 3768TIP3    H211311   2.536   0.366   1.853
 3769TIP3   OH211312   2.183   2.048   1.184
 3769TIP3    H111313   2.186   1.970   1.240
 3769TIP3    H211314   2.167   2.014   1.096
 3770TIP3   OH211315   6.213   0.161   0.852
 3770TIP3    H111316   6.175   0.075   0.834
 3770TIP3    H211317   6.304   0.153   0.825
 3771TIP3   OH211318   5.526   4.826   4.614
 3771TIP3    H111319   5.480   4.843   4.696
 3771TIP3    H211320   5.484   4.747   4.579
 3772TIP3   OH211321   2.360   1.235   0.648
 3772TIP3    H111322   2.375   1.326   0.622
 3772TIP3    H211323   2.268   1.231   0.673
 3773TIP3   OH211324   5.500   4.176   1.824
 3773TIP3    H111325   5.590   4.148   1.843
 3773TIP3    H211326   5.495   4.175   1.728
 3774TIP3   OH211327   1.520   2.921   3.282
 3774TIP3    H111328   1.459   2.861   3.239
 3774TIP3    H211329   1.594   2.866   3.309
 3775TIP3   OH211330   5.071   5.987   1.016
 3775TIP3    H111331   5.159   5.975   0.979
 3775TIP3    H211332   5.086   6.034   1.097
 3776TIP3   OH211333   0.170   2.736   3.762
 3776TIP3    H111334   0.151   2.820   3.718
 3776TIP3    H211335   0.262   2.718   3.742
 3777TIP3   OH211336   3.040   4.713   0.414
 3777TIP3    H111337   2.964   4.763   0.444
 3777TIP3    H211338   3.104   4.780   0.390
 3778TIP3   OH211339   5.684   4.999   5.124
 3778TIP3    H111340   5.635   5.079   5.146
 3778TIP3    H211341   5.678   4.945   5.202
 3779TIP3   OH211342   5.182   0.966   4.944
 3779TIP3    H111343   5.105   0.972   4.886
 3779TIP3    H211344   5.253   1.003   4.892
 3780TIP3   OH211345   3.035   0.851   4.354
 3780TIP3    H111346   3.125   0.885   4.351
 3780TIP3    H211347   2.981   0.924   4.322
 3781TIP3   OH211348   1.144   0.193   0.157
 3781TIP3    H111349   1.068   0.167   0.105
 3781TIP3    H211350   1.177   0.272   0.115
 3782TIP3   OH211351   4.014   3.541   3.087
 3782TIP3    H111352   4.052   3.459   3.056
 3782TIP3    H211353   3.999   3.526   3.181
 3783TIP3   OH211354   5.351   0.280   1.948
 3783TIP3    H111355   5.373   0.341   1.878
 3783TIP3    H211356   5.366   0.329   2.028
 3784TIP3   OH211357   0.666   4.114   2.491
 3784TIP3    H111358   0.716   4.032   2.498
 3784TIP3    H211359   0.716   4.167   2.429
 3785TIP3   OH211360   6.233   4.738   2.672
 3785TIP3    H111361   6.275   4.793   2.738
 3785TIP3    H211362   6.204   4.660   2.720
 3786TIP3   OH211363   3.367   1.641   3.659
 3786TIP3    H111364   3.430   1.608   3.723
 3786TIP3    H211365   3.311   1.700   3.711
 3787TIP3   OH211366   2.851   4.818   1.732
 3787TIP3    H111367   2.877   4.886   1.795
 3787TIP3    H211368   2.786   4.861   1.677
 3788TIP3   OH211369   0.824   4.203   0.556
 3788TIP3    H111370   0.872   4.278   0.592
 3788TIP3    H211371   0.734   4.216   0.584
 3789TIP3   OH211372   1.211   1.572   2.459
 3789TIP3    H111373   1.143   1.516   2.497
 3789TIP3    H211374   1.163   1.627   2.396
 3790TIP3   OH211375   2.435   3.126   1.854
 3790TIP3    H111376   2.389   3.087   1.927
 3790TIP3    H211377   2.369   3.135   1.786
 3791TIP3   OH211378   0.506   1.296   4.558
 3791TIP3    H111379   0.509   1.271   4.650
 3791TIP3    H211380   0.428   1.351   4.551
 3792TIP3   OH211381   3.686   5.285   4.401
 3792TIP3    H111382   3.717   5.196   4.385
 3792TIP3    H211383   3.609   5.295   4.345
 3793TIP3   OH211384   4.934   1.359   1.033
 3793TIP3    H111385   4.928   1.273   0.992
 3793TIP3    H211386   4.946   1.420   0.960
 3794TIP3   OH211387   4.422   0.596   1.921
 3794TIP3    H111388   4.486   0.570   1.855
 3794TIP3    H211389   4.448   0.685   1.945
 3795TIP3   OH211390   1.995   0.182   1.927
 3795TIP3    H111391   2.048   0.253   1.890
 3795TIP3    H211392   1.917   0.227   1.962
 3796TIP3   OH211393   1.817   2.747   3.804
 3796TIP3    H111394   1.840   2.676   3.865
 3796TIP3    H211395   1.754   2.801   3.853
 3797TIP3   OH211396   1.495   3.352   3.941
 3797TIP3    H111397   1.533   3.368   3.855
 3797TIP3    H211398   1.556   3.292   3.983
 3798TIP3   OH211399   2.143   3.988   1.908
 3798TIP3    H111400   2.090   4.029   1.839
 3798TIP3    H211401   2.226   3.967   1.865
 3799TIP3   OH211402   2.992   4.781   4.974
 3799TIP3    H111403   2.930   4.809   4.906
 3799TIP3    H211404   3.078   4.787   4.932
 3800TIP3   OH211405   2.897   0.400   0.193
 3800TIP3    H111406   2.903   0.451   0.112
 3800TIP3    H211407   2.807   0.413   0.223
 3801TIP3   OH211408   3.554   1.379   4.590
 3801TIP3    H111409   3.643   1.411   4.602
 3801TIP3    H211410   3.551   1.351   4.498
 3802TIP3   OH211411   6.023   2.473   2.062
 3802TIP3    H111412   6.069   2.555   2.075
 3802TIP3    H211413   5.931   2.494   2.078
 3803TIP3   OH211414   2.317   0.425   3.911
 3803TIP3    H111415   2.260   0.496   3.880
 3803TIP3    H211416   2.285   0.405   3.999
 3804TIP3   OH211417   3.673   5.678   2.638
 3804TIP3    H111418   3.623   5.729   2.575
 3804TIP3    H211419   3.663   5.587   2.610
 3805TIP3   OH211420   4.773   5.539   1.064
 3805TIP3    H111421   4.852   5.590   1.044
 3805TIP3    H211422   4.758   5.553   1.157
 3806TIP3   OH211423   3.020   0.440   3.432
 3806TIP3    H111424   3.032   0.529   3.398
 3806TIP3    H211425   2.968   0.396   3.364
 3807TIP3   OH211426   6.094   3.162   3.169
 3807TIP3    H111427   6.160   3.202   3.112
 3807TIP3    H211428   6.021   3.224   3.168
 3808TIP3   OH211429   0.285   2.059   3.600
 3808TIP3    H111430   0.350   2.044   3.532
 3808TIP3    H211431   0.225   2.124   3.563
 3809TIP3   OH211432   2.302   4.812   3.653
 3809TIP3    H111433   2.260   4.873   3.714
 3809TIP3    H211434   2.392   4.845   3.646
 3810TIP3   OH211435   5.515   1.209   2.041
 3810TIP3    H111436   5.456   1.135   2.031
 3810TIP3    H211437   5.465   1.285   2.012
 3811TIP3   OH211438   1.450   3.223   0.061
 3811TIP3    H111439   1.533   3.191   0.025
 3811TIP3    H211440   1.431   3.164   0.133
 3812TIP3   OH211441   3.318   1.130   2.140
 3812TIP3    H111442   3.273   1.209   2.110
 3812TIP3    H211443   3.286   1.118   2.230
 3813TIP3   OH211444   5.639   3.867   0.192
 3813TIP3    H111445   5.717   3.903   0.233
 3813TIP3    H211446   5.566   3.901   0.244
 3814TIP3   OH211447   2.039   4.846   0.460
 3814TIP3    H111448   2.055   4.934   0.426
 3814TIP3    H211449   2.019   4.794   0.382
 3815TIP3   OH211450   1.109   1.067   1.498
 3815TIP3    H111451   1.091   1.156   1.468
 3815TIP3    H211452   1.203   1.065   1.511
 3816TIP3   OH211453   1.786   5.764   3.385
 3816TIP3    H111454   1.756   5.812   3.462
 3816TIP3    H211455   1.791   5.829   3.315
 3817TIP3   OH211456   5.579   0.713   0.858
 3817TIP3    H111457   5.644   0.692   0.925
 3817TIP3    H211458   5.513   0.765   0.904
 3818TIP3   OH211459   2.967   0.358   1.789
 3818TIP3    H111460   2.938   0.449   1.792
 3818TIP3    H211461   3.049   0.358   1.838
 3819TIP3   OH211462   2.849   3.739   0.341
 3819TIP3    H111463   2.924   3.715   0.395
 3819TIP3    H211464   2.792   3.662   0.345
 3820TIP3   OH211465   3.061   5.947   3.660
 3820TIP3    H111466   3.100   6.024   3.618
 3820TIP3    H211467   2.975   5.938   3.620
 3821TIP3   OH211468   1.073   3.207   1.330
 3821TIP3    H111469   1.095   3.256   1.251
 3821TIP3    H211470   0.991   3.163   1.308
 3822TIP3   OH211471   4.606   3.323   1.221
 3822TIP3    H111472   4.622   3.340   1.128
 3822TIP3    H211473   4.635   3.403   1.265
 3823TIP3   OH211474   1.346   4.003   3.019
 3823TIP3    H111475   1.375   3.963   3.101
 3823TIP3    H211476   1.306   3.931   2.971
 3824TIP3   OH211477   0.268   3.939   2.385
 3824TIP3    H111478   0.328   3.994   2.334
 3824TIP3    H211479   0.306   3.936   2.473
 3825TIP3   OH211480   4.170   4.609   0.927
 3825TIP3    H111481   4.104   4.572   0.868
 3825TIP3    H211482   4.147   4.574   1.013
 3826TIP3   OH211483   4.598   3.464   4.048
 3826TIP3    H111484   4.641   3.379   4.055
 3826TIP3    H211485   4.642   3.519   4.113
 3827TIP3   OH211486   6.097   0.689   0.961
 3827TIP3    H111487   6.193   0.690   0.965
 3827TIP3    H211488   6.077   0.704   0.869
 3828TIP3   OH211489   1.494   2.508   3.574
 3828TIP3    H111490   1.399   2.514   3.587
 3828TIP3    H211491   1.515   2.417   3.595
 3829TIP3   OH211492   1.686   5.726   2.919
 3829TIP3    H111493   1.667   5.679   3.000
 3829TIP3    H211494   1.694   5.658   2.852
 3830TIP3   OH211495   2.342   4.390   3.855
 3830TIP3    H111496   2.395   4.435   3.922
 3830TIP3    H211497   2.261   4.367   3.901
 3831TIP3   OH211498   5.752   0.290   2.723
 3831TIP3    H111499   5.777   0.312   2.813
 3831TIP3    H211500   5.671   0.339   2.708
 3832TIP3   OH211501   5.061   0.035   4.731
 3832TIP3    H111502   5.024   0.100   4.670
 3832TIP3    H211503   5.152   0.063   4.744
 3833TIP3   OH211504   1.614   5.117   4.080
 3833TIP3    H111505   1.671   5.111   4.003
 3833TIP3    H211506   1.527   5.091   4.047
 3834TIP3   OH211507   0.550   4.188   3.851
 3834TIP3    H111508   0.635   4.162   3.816
 3834TIP3    H211509   0.570   4.252   3.919
 3835TIP3   OH211510   3.616   2.354   0.310
 3835TIP3    H111511   3.699   2.333   0.267
 3835TIP3    H211512   3.571   2.270   0.319
 3836TIP3   OH211513   5.996   1.818   0.211
 3836TIP3    H111514   5.926   1.752   0.214
 3836TIP3    H211515   5.992   1.852   0.121
 3837TIP3   OH211516   5.762   1.094   4.495
 3837TIP3    H111517   5.758   1.170   4.553
 3837TIP3    H211518   5.812   1.124   4.419
 3838TIP3   OH211519   3.502   2.134   0.624
 3838TIP3    H111520   3.437   2.072   0.657
 3838TIP3    H211521   3.451   2.197   0.573
 3839TIP3   OH211522   1.507   0.240   0.831
 3839TIP3    H111523   1.491   0.325   0.789
 3839TIP3    H211524   1.498   0.176   0.761
 3840TIP3   OH211525   2.949   1.564   2.283
 3840TIP3    H111526   2.928   1.519   2.201
 3840TIP3    H211527   3.042   1.548   2.296
 3841TIP3   OH211528   2.181   4.956   2.054
 3841TIP3    H111529   2.235   4.988   1.981
 3841TIP3    H211530   2.126   5.030   2.078
 3842TIP3   OH211531   0.203   3.104   1.282
 3842TIP3    H111532   0.165   3.026   1.323
 3842TIP3    H211533   0.216   3.079   1.191
 3843TIP3   OH211534   6.257   3.773   3.450
 3843TIP3    H111535   6.236   3.859   3.488
 3843TIP3    H211536   6.273   3.716   3.524
 3844TIP3   OH211537   3.040   5.642   1.679
 3844TIP3    H111538   3.113   5.703   1.676
 3844TIP3    H211539   2.973   5.687   1.730
 3845TIP3   OH211540   0.449   2.972   0.566
 3845TIP3    H111541   0.502   3.041   0.525
 3845TIP3    H211542   0.412   3.014   0.643
 3846TIP3   OH211543   4.408   5.207   4.050
 3846TIP3    H111544   4.322   5.250   4.053
 3846TIP3    H211545   4.395   5.126   4.100
 3847TIP3   OH211546   1.035   3.353   3.397
 3847TIP3    H111547   0.993   3.355   3.311
 3847TIP3    H211548   1.124   3.322   3.379
 3848TIP3   OH211549   2.590   2.802   4.253
 3848TIP3    H111550   2.515   2.776   4.199
 3848TIP3    H211551   2.646   2.725   4.256
 3849TIP3   OH211552   2.337   4.888   4.223
 3849TIP3    H111553   2.336   4.861   4.314
 3849TIP3    H211554   2.414   4.945   4.215
 3850TIP3   OH211555   2.159  -0.023   0.239
 3850TIP3    H111556   2.236  -0.023   0.181
 3850TIP3    H211557   2.190  -0.065   0.319
 3851TIP3   OH211558   2.644   4.955   4.153
 3851TIP3    H111559   2.649   5.021   4.085
 3851TIP3    H211560   2.697   4.990   4.225
 3852TIP3   OH211561   1.181   3.117   1.853
 3852TIP3    H111562   1.139   3.045   1.806
 3852TIP3    H211563   1.271   3.088   1.866
 3853TIP3   OH211564   0.525   2.127   0.260
 3853TIP3    H111565   0.552   2.065   0.329
 3853TIP3    H211566   0.607   2.166   0.230
 3854TIP3   OH211567   4.055   4.899   3.100
 3854TIP3    H111568   4.146   4.871   3.090
 3854TIP3    H211569   4.048   4.921   3.193
 3855TIP3   OH211570   4.468   1.050   1.786
 3855TIP3    H111571   4.469   0.991   1.861
 3855TIP3    H211572   4.412   1.123   1.814
 3856TIP3   OH211573   4.049   5.886   1.420
 3856TIP3    H111574   3.997   5.963   1.441
 3856TIP3    H211575   3.999   5.812   1.455
 3857TIP3   OH211576   3.542   1.500   1.560
 3857TIP3    H111577   3.478   1.564   1.589
 3857TIP3    H211578   3.523   1.421   1.611
 3858TIP3   OH211579   5.192   3.479   4.917
 3858TIP3    H111580   5.194   3.565   4.874
 3858TIP3    H211581   5.223   3.419   4.849
 3859TIP3   OH211582   5.252   4.469   0.806
 3859TIP3    H111583   5.312   4.520   0.861
 3859TIP3    H211584   5.167   4.512   0.819
 3860TIP3   OH211585   4.772   2.364   1.097
 3860TIP3    H111586   4.858   2.342   1.134
 3860TIP3    H211587   4.788   2.369   1.003
 3861TIP3   OH211588   2.691   4.262   4.952
 3861TIP3    H111589   2.701   4.337   4.893
 3861TIP3    H211590   2.780   4.230   4.964
 3862TIP3   OH211591   2.853   1.431   0.279
 3862TIP3    H111592   2.818   1.370   0.214
 3862TIP3    H211593   2.814   1.403   0.361
 3863TIP3   OH211594   4.910   3.382   3.809
 3863TIP3    H111595   4.984   3.425   3.851
 3863TIP3    H211596   4.941   3.361   3.721
 3864TIP3   OH211597   4.874   0.150   3.591
 3864TIP3    H111598   4.797   0.102   3.621
 3864TIP3    H211599   4.924   0.168   3.671
 3865TIP3   OH211600   2.502   1.020   0.435
 3865TIP3    H111601   2.435   1.088   0.433
 3865TIP3    H211602   2.464   0.948   0.384
 3866TIP3   OH211603   5.542   2.111   4.613
 3866TIP3    H111604   5.570   2.149   4.530
 3866TIP3    H211605   5.579   2.170   4.679
 3867TIP3   OH211606   5.710   1.477   4.889
 3867TIP3    H111607   5.768   1.407   4.918
 3867TIP3    H211608   5.762   1.527   4.826
 3868TIP3   OH211609   4.337   5.384   4.383
 3868TIP3    H111610   4.268   5.328   4.347
 3868TIP3    H211611   4.323   5.469   4.342
 3869TIP3   OH211612   0.207   5.139   4.032
 3869TIP3    H111613   0.131   5.168   4.081
 3869TIP3    H211614   0.227   5.052   4.068
 3870TIP3   OH211615   0.750   5.294   3.560
 3870TIP3    H111616   0.710   5.231   3.500
 3870TIP3    H211617   0.677   5.349   3.590
 3871TIP3   OH211618   0.374   2.079   3.931
 3871TIP3    H111619   0.404   2.145   3.994
 3871TIP3    H211620   0.283   2.103   3.913
 3872TIP3   OH211621   4.476   2.723   4.560
 3872TIP3    H111622   4.392   2.679   4.572
 3872TIP3    H211623   4.463   2.781   4.485
 3873TIP3   OH211624   3.155   1.792   4.217
 3873TIP3    H111625   3.138   1.724   4.151
 3873TIP3    H211626   3.201   1.747   4.287
 3874TIP3   OH211627   4.703   4.357   3.592
 3874TIP3    H111628   4.640   4.293   3.559
 3874TIP3    H211629   4.782   4.306   3.612
 3875TIP3   OH211630   6.031   1.114   4.001
 3875TIP3    H111631   6.123   1.105   3.977
 3875TIP3    H211632   5.984   1.062   3.936
 3876TIP3   OH211633   0.909   2.230   2.093
 3876TIP3    H111634   0.990   2.206   2.138
 3876TIP3    H211635   0.928   2.315   2.055
 3877TIP3   OH211636   5.222   5.867   4.978
 3877TIP3    H111637   5.170   5.933   5.024
 3877TIP3    H211638   5.186   5.784   5.008
 3878TIP3   OH211639   4.988   1.122   1.301
 3878TIP3    H111640   4.929   1.080   1.363
 3878TIP3    H211641   5.045   1.051   1.271
 3879TIP3   OH211642   5.602   5.734   0.921
 3879TIP3    H111643   5.600   5.707   0.829
 3879TIP3    H211644   5.673   5.798   0.925
 3880TIP3   OH211645   0.219   5.395   0.811
 3880TIP3    H111646   0.199   5.462   0.876
 3880TIP3    H211647   0.152   5.407   0.743
 3881TIP3   OH211648   6.112   0.148   1.674
 3881TIP3    H111649   6.182   0.121   1.733
 3881TIP3    H211650   6.157   0.171   1.592
 3882TIP3   OH211651   2.049   5.260   4.822
 3882TIP3    H111652   2.048   5.230   4.913
 3882TIP3    H211653   2.026   5.353   4.827
 3883TIP3   OH211654   5.401   2.024   1.741
 3883TIP3    H111655   5.495   2.040   1.750
 3883TIP3    H211656   5.359   2.094   1.791
 3884TIP3   OH211657   1.394   1.365   1.741
 3884TIP3    H111658   1.362   1.336   1.656
 3884TIP3    H211659   1.468   1.422   1.721
 3885TIP3   OH211660   0.555   3.802   1.847
 3885TIP3    H111661   0.529   3.710   1.855
 3885TIP3    H211662   0.553   3.819   1.752
 3886TIP3   OH211663   1.658   4.857   0.482
 3886TIP3    H111664   1.655   4.804   0.402
 3886TIP3    H211665   1.656   4.794   0.553
 3887TIP3   OH211666   1.378   5.737   4.467
 3887TIP3    H111667   1.468   5.704   4.456
 3887TIP3    H211668   1.385   5.804   4.534
 3888TIP3   OH211669   2.653   2.843   5.087
 3888TIP3    H111670   2.614   2.913   5.035
 3888TIP3    H211671   2.608   2.847   5.172
 3889TIP3   OH211672   4.865   0.200   1.270
 3889TIP3    H111673   4.800   0.138   1.305
 3889TIP3    H211674   4.949   0.165   1.300
 3890TIP3   OH211675   4.626   3.139   3.981
 3890TIP3    H111676   4.707   3.175   4.018
 3890TIP3    H211677   4.600   3.201   3.913
 3891TIP3   OH211678   6.163   4.359   0.876
 3891TIP3    H111679   6.203   4.363   0.789
 3891TIP3    H211680   6.069   4.363   0.859
 3892TIP3   OH211681   4.779   2.387   1.753
 3892TIP3    H111682   4.843   2.431   1.809
 3892TIP3    H211683   4.782   2.435   1.671
 3893TIP3   OH211684   2.394   5.009   0.271
 3893TIP3    H111685   2.299   5.002   0.278
 3893TIP3    H211686   2.416   4.963   0.190
 3894TIP3   OH211687   0.676   4.630   1.625
 3894TIP3    H111688   0.771   4.643   1.624
 3894TIP3    H211689   0.652   4.624   1.532
 3895TIP3   OH211690   5.815   2.709   4.408
 3895TIP3    H111691   5.758   2.780   4.437
 3895TIP3    H211692   5.880   2.752   4.352
 3896TIP3   OH211693   2.001   4.527   1.724
 3896TIP3    H111694   1.993   4.529   1.629
 3896TIP3    H211695   2.013   4.619   1.749
 3897TIP3   OH211696   2.140   2.703   4.892
 3897TIP3    H111697   2.056   2.741   4.869
 3897TIP3    H211698   2.135   2.688   4.987
 3898TIP3   OH211699   1.587   1.225   3.863
 3898TIP3    H111700   1.580   1.219   3.768
 3898TIP3    H211701   1.520   1.165   3.896
 3899TIP3   OH211702   2.498   2.296   2.093
 3899TIP3    H111703   2.567   2.362   2.099
 3899TIP3    H211704   2.545   2.213   2.088
 3900TIP3   OH211705   3.662   5.065   3.724
 3900TIP3    H111706   3.750   5.041   3.753
 3900TIP3    H211707   3.659   5.160   3.733
 3901TIP3   OH211708   3.325   1.111   1.575
 3901TIP3    H111709   3.272   1.168   1.517
 3901TIP3    H211710   3.366   1.048   1.515
 3902TIP3   OH211711   6.200   4.075   4.368
 3902TIP3    H111712   6.110   4.069   4.402
 3902TIP3    H211713   6.193   4.132   4.292
 3903TIP3   OH211714   1.784   5.646   1.663
 3903TIP3    H111715   1.738   5.656   1.580
 3903TIP3    H211716   1.715   5.634   1.728
 3904TIP3   OH211717   0.812   5.808   0.465
 3904TIP3    H111718   0.854   5.892   0.444
 3904TIP3    H211719   0.799   5.766   0.380
 3905TIP3   OH211720   2.406   5.026   2.366
 3905TIP3    H111721   2.408   5.103   2.423
 3905TIP3    H211722   2.475   5.042   2.301
 3906TIP3   OH211723   4.897   1.628   2.789
 3906TIP3    H111724   4.925   1.547   2.832
 3906TIP3    H211725   4.895   1.693   2.859
 3907TIP3   OH211726   2.587   0.030   1.129
 3907TIP3    H111727   2.633   0.046   1.046
 3907TIP3    H211728   2.505   0.078   1.121
 3908TIP3   OH211729   5.444   1.490   4.952
 3908TIP3    H111730   5.536   1.499   4.927
 3908TIP3    H211731   5.397   1.546   4.891
 3909TIP3   OH211732   5.995   0.553   4.660
 3909TIP3    H111733   5.935   0.491   4.618
 3909TIP3    H211734   5.938   0.623   4.691
 3910TIP3   OH211735   1.202   0.592   3.382
 3910TIP3    H111736   1.280   0.592   3.327
 3910TIP3    H211737   1.180   0.500   3.393
 3911TIP3   OH211738   4.358   3.215   3.216
 3911TIP3    H111739   4.371   3.212   3.311
 3911TIP3    H211740   4.358   3.124   3.188
 3912TIP3   OH211741   0.544   3.243   0.660
 3912TIP3    H111742   0.566   3.332   0.687
 3912TIP3    H211743   0.522   3.198   0.741
 3913TIP3   OH211744   3.436   2.157   3.964
 3913TIP3    H111745   3.401   2.226   3.908
 3913TIP3    H211746   3.368   2.089   3.963
 3914TIP3   OH211747   0.480   1.017   3.724
 3914TIP3    H111748   0.407   1.014   3.786
 3914TIP3    H211749   0.451   1.081   3.658
 3915TIP3   OH211750   5.996   1.342   1.881
 3915TIP3    H111751   6.070   1.332   1.940
 3915TIP3    H211752   5.942   1.409   1.921
 3916TIP3   OH211753   4.737   0.884   3.051
 3916TIP3    H111754   4.704   0.841   2.972
 3916TIP3    H211755   4.799   0.822   3.089
 3917TIP3   OH211756   4.654   2.764   1.844
 3917TIP3    H111757   4.600   2.728   1.774
 3917TIP3    H211758   4.655   2.695   1.911
 3918TIP3   OH211759   2.348   0.721   0.515
 3918TIP3    H111760   2.375   0.793   0.573
 3918TIP3    H211761   2.370   0.751   0.427
 3919TIP3   OH211762   2.002   4.187   0.555
 3919TIP3    H111763   1.999   4.093   0.538
 3919TIP3    H211764   1.913   4.218   0.536
 3920TIP3   OH211765   4.446   0.266   2.553
 3920TIP3    H111766   4.531   0.288   2.591
 3920TIP3    H211767   4.383   0.283   2.622
 3921TIP3   OH211768   4.479   1.867   2.767
 3921TIP3    H111769   4.415   1.914   2.713
 3921TIP3    H211770   4.519   1.934   2.822
 3922TIP3   OH211771   5.436   4.226   4.456
 3922TIP3    H111772   5.488   4.302   4.431
 3922TIP3    H211773   5.349   4.243   4.421
 3923TIP3   OH211774   1.775   3.890   0.378
 3923TIP3    H111775   1.823   3.810   0.357
 3923TIP3    H211776   1.815   3.922   0.459
 3924TIP3   OH211777   2.622   4.234   4.255
 3924TIP3    H111778   2.603   4.144   4.282
 3924TIP3    H211779   2.582   4.288   4.323
 3925TIP3   OH211780   3.655   1.252   3.103
 3925TIP3    H111781   3.630   1.252   3.010
 3925TIP3    H211782   3.696   1.337   3.116
 3926TIP3   OH211783   4.077   3.488   5.042
 3926TIP3    H111784   4.095   3.530   5.127
 3926TIP3    H211785   4.082   3.394   5.060
 3927TIP3   OH211786   4.037   2.404   3.353
 3927TIP3    H111787   3.974   2.349   3.306
 3927TIP3    H211788   3.988   2.437   3.428
 3928TIP3   OH211789   3.575   4.027   1.010
 3928TIP3    H111790   3.642   4.051   0.945
 3928TIP3    H211791   3.577   4.097   1.075
 3929TIP3   OH211792   1.232   3.988   1.409
 3929TIP3    H111793   1.235   3.894   1.422
 3929TIP3    H211794   1.201   4.023   1.493
 3930TIP3   OH211795   2.988   3.731   3.652
 3930TIP3    H111796   3.060   3.668   3.656
 3930TIP3    H211797   2.976   3.746   3.558
 3931TIP3   OH211798   0.775   3.550   4.641
 3931TIP3    H111799   0.722   3.490   4.588
 3931TIP3    H211800   0.726   3.559   4.723
 3932TIP3   OH211801   0.400   3.635   2.418
 3932TIP3    H111802   0.334   3.687   2.463
 3932TIP3    H211803   0.428   3.689   2.345
 3933TIP3   OH211804   4.124   5.650   2.908
 3933TIP3    H111805   4.160   5.576   2.959
 3933TIP3    H211806   4.104   5.716   2.974
 3934TIP3   OH211807   4.379   2.211   2.866
 3934TIP3    H111808   4.425   2.248   2.790
 3934TIP3    H211809   4.448   2.168   2.917
 3935TIP3   OH211810   3.144   5.001   4.221
 3935TIP3    H111811   3.160   5.064   4.292
 3935TIP3    H211812   3.083   4.937   4.259
 3936TIP3   OH211813   5.731   5.683   1.167
 3936TIP3    H111814   5.653   5.682   1.110
 3936TIP3    H211815   5.775   5.601   1.148
 3937TIP3   OH211816   3.641   0.888   0.218
 3937TIP3    H111817   3.555   0.845   0.224
 3937TIP3    H211818   3.667   0.901   0.309
 3938TIP3   OH211819   4.567   0.564   2.291
 3938TIP3    H111820   4.473   0.575   2.277
 3938TIP3    H211821   4.588   0.482   2.246
 3939TIP3   OH211822   0.794   3.861   2.552
 3939TIP3    H111823   0.868   3.857   2.612
 3939TIP3    H211824   0.723   3.815   2.597
 3940TIP3   OH211825   3.817   5.633   3.641
 3940TIP3    H111826   3.800   5.547   3.679
 3940TIP3    H211827   3.751   5.642   3.572
 3941TIP3   OH211828   4.913   3.577   2.331
 3941TIP3    H111829   4.926   3.623   2.248
 3941TIP3    H211830   4.943   3.640   2.397
 3942TIP3   OH211831   4.789   1.809   1.932
 3942TIP3    H111832   4.860   1.863   1.895
 3942TIP3    H211833   4.719   1.816   1.867
 3943TIP3   OH211834   3.187   0.969   5.014
 3943TIP3    H111835   3.260   1.030   5.001
 3943TIP3    H211836   3.124   1.017   5.067
 3944TIP3   OH211837   3.001   4.464   4.216
 3944TIP3    H111838   3.003   4.554   4.182
 3944TIP3    H211839   2.987   4.474   4.310
 3945TIP3   OH211840   2.816   2.168   0.870
 3945TIP3    H111841   2.790   2.248   0.825
 3945TIP3    H211842   2.796   2.184   0.962
 3946TIP3   OH211843   5.990   2.088   4.184
 3946TIP3    H111844   6.035   2.163   4.223
 3946TIP3    H211845   5.921   2.126   4.130
 3947TIP3   OH211846   3.215   0.529   4.793
 3947TIP3    H111847   3.238   0.619   4.770
 3947TIP3    H211848   3.289   0.477   4.763
 3948TIP3   OH211849   3.513   3.277   4.550
 3948TIP3    H111850   3.480   3.313   4.468
 3948TIP3    H211851   3.437   3.274   4.608
 3949TIP3   OH211852   3.401   5.764   1.387
 3949TIP3    H111853   3.471   5.829   1.391
 3949TIP3    H211854   3.391   5.734   1.478
 3950TIP3   OH211855   4.212   0.794   0.493
 3950TIP3    H111856   4.140   0.786   0.431
 3950TIP3    H211857   4.183   0.746   0.570
 3951TIP3   OH211858   3.940   1.686   1.520
 3951TIP3    H111859   3.878   1.617   1.544
 3951TIP3    H211860   3.886   1.754   1.480
 3952TIP3   OH211861   4.648   3.267   2.617
 3952TIP3    H111862   4.729   3.317   2.606
 3952TIP3    H211863   4.675   3.187   2.662
 3953TIP3   OH211864   4.103   2.222   2.264
 3953TIP3    H111865   4.039   2.180   2.321
 3953TIP3    H211866   4.186   2.215   2.311
 3954TIP3   OH211867   3.144   4.103   2.250
 3954TIP3    H111868   3.236   4.130   2.243
 3954TIP3    H211869   3.094   4.183   2.235
 3955TIP3   OH211870   2.603   3.676   5.034
 3955TIP3    H111871   2.530   3.619   5.008
 3955TIP3    H211872   2.627   3.645   5.121
 3956TIP3   OH211873   5.670   2.882   2.336
 3956TIP3    H111874   5.675   2.946   2.265
 3956TIP3    H211875   5.617   2.811   2.300
 3957TIP3   OH211876   4.474   1.464   2.923
 3957TIP3    H111877   4.474   1.390   2.984
 3957TIP3    H211878   4.519   1.534   2.970
 3958TIP3   OH211879   2.157   2.347   3.963
 3958TIP3    H111880   2.174   2.424   4.017
 3958TIP3    H211881   2.065   2.325   3.982
 3959TIP3   OH211882   4.561   0.685   1.339
 3959TIP3    H111883   4.568   0.592   1.361
 3959TIP3    H211884   4.640   0.725   1.377
 3960TIP3   OH211885   0.399   5.917   1.582
 3960TIP3    H111886   0.443   5.834   1.599
 3960TIP3    H211887   0.311   5.893   1.554
 3961TIP3   OH211888   1.098   3.525   4.742
 3961TIP3    H111889   1.116   3.510   4.649
 3961TIP3    H211890   1.176   3.570   4.775
 3962TIP3   OH211891   0.947   1.508   0.267
 3962TIP3    H111892   0.872   1.459   0.234
 3962TIP3    H211893   0.980   1.557   0.192
 3963TIP3   OH211894   6.052   2.929   3.642
 3963TIP3    H111895   6.082   2.846   3.605
 3963TIP3    H211896   6.130   2.984   3.646
 3964TIP3   OH211897   6.320   2.139   2.286
 3964TIP3    H111898   6.255   2.187   2.235
 3964TIP3    H211899   6.399   2.192   2.280
 3965TIP3   OH211900   3.893   5.879   1.817
 3965TIP3    H111901   3.866   5.949   1.757
 3965TIP3    H211902   3.931   5.925   1.891
 3966TIP3   OH211903   3.224   0.538   5.073
 3966TIP3    H111904   3.257   0.619   5.111
 3966TIP3    H211905   3.232   0.551   4.978
 3967TIP3   OH211906   6.156   3.032   0.447
 3967TIP3    H111907   6.099   3.085   0.503
 3967TIP3    H211908   6.243   3.070   0.458
 3968TIP3   OH211909   2.582   3.515   1.204
 3968TIP3    H111910   2.567   3.422   1.187
 3968TIP3    H211911   2.608   3.551   1.119
 3969TIP3   OH211912   0.216   3.787   4.715
 3969TIP3    H111913   0.302   3.776   4.673
 3969TIP3    H211914   0.153   3.774   4.644
 3970TIP3   OH211915   3.275   5.413   3.874
 3970TIP3    H111916   3.287   5.324   3.909
 3970TIP3    H211917   3.347   5.423   3.811
 3971TIP3   OH211918   4.869   3.294   0.367
 3971TIP3    H111919   4.945   3.236   0.360
 3971TIP3    H211920   4.907   3.379   0.391
 3972TIP3   OH211921   1.765   1.294   3.418
 3972TIP3    H111922   1.766   1.199   3.421
 3972TIP3    H211923   1.817   1.316   3.341
 3973TIP3   OH211924   1.342   0.583   3.992
 3973TIP3    H111925   1.340   0.490   3.969
 3973TIP3    H211926   1.393   0.624   3.923
 3974TIP3   OH211927   2.383   4.358   3.431
 3974TIP3    H111928   2.355   4.279   3.478
 3974TIP3    H211929   2.402   4.327   3.342
 3975TIP3   OH211930   1.285   2.242   3.583
 3975TIP3    H111931   1.228   2.203   3.649
 3975TIP3    H211932   1.235   2.235   3.501
 3976TIP3   OH211933   4.670   1.061   1.607
 3976TIP3    H111934   4.694   1.153   1.604
 3976TIP3    H211935   4.588   1.059   1.656
 3977TIP3   OH211936   4.387   5.319   1.806
 3977TIP3    H111937   4.391   5.228   1.780
 3977TIP3    H211938   4.436   5.323   1.888
 3978TIP3   OH211939   5.273   2.917   0.090
 3978TIP3    H111940   5.288   2.830   0.054
 3978TIP3    H211941   5.348   2.969   0.060
 3979TIP3   OH211942   3.098   0.127   1.678
 3979TIP3    H111943   3.039   0.200   1.699
 3979TIP3    H211944   3.039   0.054   1.660
 3980TIP3   OH211945   0.152   3.723   4.981
 3980TIP3    H111946   0.115   3.650   5.031
 3980TIP3    H211947   0.246   3.714   4.990
 3981TIP3   OH211948   0.539   0.173   1.842
 3981TIP3    H111949   0.515   0.211   1.927
 3981TIP3    H211950   0.606   0.108   1.863
 3982TIP3   OH211951   1.841   5.758   2.632
 3982TIP3    H111952   1.878   5.670   2.621
 3982TIP3    H211953   1.912   5.809   2.672
 3983TIP3   OH211954   1.100   4.829   4.409
 3983TIP3    H111955   1.126   4.868   4.492
 3983TIP3    H211956   1.176   4.841   4.352
 3984TIP3   OH211957   1.424   0.000   1.038
 3984TIP3    H111958   1.419   0.085   1.080
 3984TIP3    H211959   1.515  -0.007   1.009
 3985TIP3   OH211960   4.305   4.739   2.239
 3985TIP3    H111961   4.228   4.713   2.289
 3985TIP3    H211962   4.378   4.731   2.301
 3986TIP3   OH211963   2.949   3.519   2.332
 3986TIP3    H111964   2.893   3.506   2.256
 3986TIP3    H211965   2.891   3.557   2.398
 3987TIP3   OH211966   5.899   5.524   0.879
 3987TIP3    H111967   5.893   5.469   0.957
 3987TIP3    H211968   5.987   5.508   0.846
 3988TIP3   OH211969   2.161   1.115   0.951
 3988TIP3    H111970   2.145   1.162   0.869
 3988TIP3    H211971   2.198   1.032   0.923
 3989TIP3   OH211972   1.864   5.064   0.895
 3989TIP3    H111973   1.801   5.069   0.822
 3989TIP3    H211974   1.915   4.985   0.877
 3990TIP3   OH211975   2.326   1.418   2.947
 3990TIP3    H111976   2.392   1.485   2.967
 3990TIP3    H211977   2.264   1.462   2.889
 3991TIP3   OH211978   1.449   2.593   4.255
 3991TIP3    H111979   1.453   2.554   4.168
 3991TIP3    H211980   1.535   2.633   4.267
 3992TIP3   OH211981   5.611   4.154   3.319
 3992TIP3    H111982   5.541   4.191   3.264
 3992TIP3    H211983   5.627   4.221   3.385
 3993TIP3   OH211984   6.078   4.487   4.313
 3993TIP3    H111985   5.998   4.492   4.365
 3993TIP3    H211986   6.083   4.572   4.270
 3994TIP3   OH211987   1.933   1.449   3.584
 3994TIP3    H111988   1.915   1.396   3.661
 3994TIP3    H211989   1.857   1.437   3.528
 3995TIP3   OH211990   0.188   5.444   2.415
 3995TIP3    H111991   0.138   5.526   2.418
 3995TIP3    H211992   0.134   5.381   2.462
 3996TIP3   OH211993   0.501   1.527   1.813
 3996TIP3    H111994   0.547   1.536   1.730
 3996TIP3    H211995   0.567   1.544   1.880
 3997TIP3   OH211996   5.134   4.276   2.490
 3997TIP3    H111997   5.072   4.230   2.546
 3997TIP3    H211998   5.168   4.209   2.431
 3998TIP3   OH211999   3.955   1.855   3.621
 3998TIP3    H112000   3.999   1.832   3.704
 3998TIP3    H212001   3.909   1.775   3.596
 3999TIP3   OH212002   4.809   1.397   0.415
 3999TIP3    H112003   4.874   1.429   0.478
 3999TIP3    H212004   4.788   1.473   0.361
 4000TIP3   OH212005   3.620   2.254   3.510
 4000TIP3    H112006   3.699   2.293   3.473
 4000TIP3    H212007   3.649   2.173   3.552
 4001TIP3   OH212008   3.605   2.742   0.865
 4001TIP3    H112009   3.673   2.808   0.856
 4001TIP3    H212010   3.558   2.745   0.781
 4002TIP3   OH212011   5.570   1.215   3.294
 4002TIP3    H112012   5.548   1.299   3.254
 4002TIP3    H212013   5.486   1.177   3.318
 4003TIP3   OH212014   0.325   4.882   4.042
 4003TIP3    H112015   0.270   4.811   4.073
 4003TIP3    H212016   0.412   4.843   4.031
 4004TIP3   OH212017   5.944   2.465   4.428
 4004TIP3    H112018   5.888   2.542   4.417
 4004TIP3    H212019   5.883   2.393   4.442
 4005TIP3   OH212020   6.064   4.222   1.915
 4005TIP3    H112021   6.130   4.291   1.902
 4005TIP3    H212022   6.115   4.141   1.921
 4006TIP3   OH212023   6.101   5.202   0.980
 4006TIP3    H112024   6.144   5.259   0.917
 4006TIP3    H212025   6.095   5.117   0.936
 4007TIP3   OH212026   3.406   5.830   2.196
 4007TIP3    H112027   3.383   5.814   2.105
 4007TIP3    H212028   3.327   5.806   2.245
 4008TIP3   OH212029   4.785   0.446   4.385
 4008TIP3    H112030   4.699   0.427   4.424
 4008TIP3    H212031   4.845   0.390   4.433
 4009TIP3   OH212032   5.267   0.216   1.408
 4009TIP3    H112033   5.316   0.210   1.326
 4009TIP3    H212034   5.267   0.309   1.430
 4010TIP3   OH212035   5.599   1.243   0.556
 4010TIP3    H112036   5.542   1.278   0.488
 4010TIP3    H212037   5.604   1.149   0.537
 4011TIP3   OH212038   6.280   3.276   0.872
 4011TIP3    H112039   6.218   3.223   0.922
 4011TIP3    H212040   6.291   3.228   0.790
 4012TIP3   OH212041   1.208   6.011   3.782
 4012TIP3    H112042   1.113   6.025   3.784
 4012TIP3    H212043   1.219   5.937   3.722
 4013TIP3   OH212044   5.832   2.824   0.120
 4013TIP3    H112045   5.887   2.816   0.042
 4013TIP3    H212046   5.892   2.812   0.194
 4014TIP3   OH212047   2.254   2.573   1.457
 4014TIP3    H112048   2.248   2.668   1.447
 4014TIP3    H212049   2.258   2.560   1.552
 4015TIP3   OH212050   0.846   1.721   3.438
 4015TIP3    H112051   0.823   1.761   3.522
 4015TIP3    H212052   0.929   1.676   3.454
 4016TIP3   OH212053   3.319   5.491   0.522
 4016TIP3    H112054   3.230   5.467   0.549
 4016TIP3    H212055   3.309   5.577   0.481
 4017TIP3   OH212056   4.646   5.094   2.076
 4017TIP3    H112057   4.713   5.064   2.015
 4017TIP3    H212058   4.692   5.101   2.160
 4018TIP3   OH212059   4.476   0.059   3.062
 4018TIP3    H112060   4.530   0.127   3.023
 4018TIP3    H212061   4.428   0.104   3.132
 4019TIP3   OH212062   5.336   4.159   2.033
 4019TIP3    H112063   5.412   4.173   1.976
 4019TIP3    H212064   5.341   4.067   2.057
 4020TIP3   OH212065   1.142   2.203   3.349
 4020TIP3    H112066   1.190   2.137   3.299
 4020TIP3    H212067   1.070   2.230   3.291
 4021TIP3   OH212068   3.678   3.187   2.959
 4021TIP3    H112069   3.616   3.126   2.918
 4021TIP3    H212070   3.625   3.239   3.018
 4022TIP3   OH212071   5.659   2.428   2.314
 4022TIP3    H112072   5.739   2.447   2.363
 4022TIP3    H212073   5.597   2.497   2.341
 4023TIP3   OH212074   5.036   5.023   2.176
 4023TIP3    H112075   5.102   5.091   2.180
 4023TIP3    H212076   5.048   4.982   2.090
 4024TIP3   OH212077   0.939   0.887   4.019
 4024TIP3    H112078   0.999   0.905   4.091
 4024TIP3    H212079   0.855   0.924   4.047
 4025TIP3   OH212080   4.969   2.834   0.120
 4025TIP3    H112081   4.924   2.796   0.196
 4025TIP3    H212082   5.053   2.862   0.154
 4026TIP3   OH212083   2.015   1.728   0.090
 4026TIP3    H112084   2.013   1.669   0.165
 4026TIP3    H212085   2.007   1.671   0.014
 4027TIP3   OH212086   5.854   3.374   2.274
 4027TIP3    H112087   5.811   3.297   2.310
 4027TIP3    H212088   5.798   3.402   2.202
 4028TIP3   OH212089   0.619   2.248   1.990
 4028TIP3    H112090   0.603   2.205   1.905
 4028TIP3    H212091   0.556   2.320   1.992
 4029TIP3   OH212092   2.395   1.771   3.470
 4029TIP3    H112093   2.399   1.701   3.406
 4029TIP3    H212094   2.460   1.835   3.440
 4030TIP3   OH212095   4.437   4.823   1.606
 4030TIP3    H112096   4.533   4.816   1.608
 4030TIP3    H212097   4.413   4.795   1.518
 4031TIP3   OH212098  -0.023   5.170   1.903
 4031TIP3    H112099  -0.020   5.243   1.965
 4031TIP3    H212100   0.062   5.174   1.858
 4032TIP3   OH212101   3.474   4.016   1.443
 4032TIP3    H112102   3.401   4.069   1.475
 4032TIP3    H212103   3.436   3.930   1.426
 4033TIP3   OH212104   6.010   4.681   0.549
 4033TIP3    H112105   5.927   4.710   0.588
 4033TIP3    H212106   6.064   4.760   0.545
 4034TIP3   OH212107   1.858   1.849   1.045
 4034TIP3    H112108   1.917   1.791   1.093
 4034TIP3    H212109   1.861   1.816   0.955
 4035TIP3   OH212110   6.272   4.435   1.902
 4035TIP3    H112111   6.302   4.511   1.852
 4035TIP3    H212112   6.337   4.425   1.971
 4036TIP3   OH212113   2.957   3.521   1.835
 4036TIP3    H112114   2.968   3.461   1.910
 4036TIP3    H212115   2.969   3.608   1.873
 4037TIP3   OH212116   0.892   3.223   2.643
 4037TIP3    H112117   0.985   3.233   2.661
 4037TIP3    H212118   0.859   3.167   2.713
 4038TIP3   OH212119   0.801   3.139   4.949
 4038TIP3    H112120   0.876   3.088   4.919
 4038TIP3    H212121   0.772   3.187   4.872
 4039TIP3   OH212122   4.015   4.361   0.901
 4039TIP3    H112123   3.966   4.427   0.852
 4039TIP3    H212124   4.075   4.323   0.836
 4040TIP3   OH212125   3.084   1.213   4.338
 4040TIP3    H112126   3.164   1.163   4.324
 4040TIP3    H212127   3.015   1.161   4.296
 4041TIP3   OH212128   3.919   1.660   5.186
 4041TIP3    H112129   3.957   1.744   5.159
 4041TIP3    H212130   3.980   1.627   5.252
 4042TIP3   OH212131   2.216   1.837   1.673
 4042TIP3    H112132   2.132   1.836   1.718
 4042TIP3    H212133   2.260   1.757   1.701
 4043TIP3   OH212134   2.318   1.323   4.112
 4043TIP3    H112135   2.286   1.294   4.027
 4043TIP3    H212136   2.310   1.247   4.169
 4044TIP3   OH212137   4.721   2.663   1.492
 4044TIP3    H112138   4.676   2.637   1.412
 4044TIP3    H212139   4.652   2.664   1.559
 4045TIP3   OH212140   3.348   3.651   0.800
 4045TIP3    H112141   3.339   3.731   0.850
 4045TIP3    H212142   3.441   3.646   0.778
 4046TIP3   OH212143   3.084   2.279   0.899
 4046TIP3    H112144   3.125   2.207   0.849
 4046TIP3    H212145   2.992   2.254   0.904
 4047TIP3   OH212146   5.180   3.118   3.137
 4047TIP3    H112147   5.167   3.086   3.226
 4047TIP3    H212148   5.271   3.147   3.134
 4048TIP3   OH212149   0.112   1.985   2.737
 4048TIP3    H112150   0.018   1.999   2.737
 4048TIP3    H212151   0.124   1.896   2.702
 4049TIP3   OH212152   2.294   4.107   5.031
 4049TIP3    H112153   2.287   4.071   5.119
 4049TIP3    H212154   2.333   4.037   4.980
 4050TIP3   OH212155   0.566   4.857   3.529
 4050TIP3    H112156   0.637   4.808   3.570
 4050TIP3    H212157   0.533   4.799   3.461
 4051TIP3   OH212158   0.143   4.674   4.145
 4051TIP3    H112159   0.143   4.588   4.187
 4051TIP3    H212160   0.095   4.660   4.063
 4052TIP3   OH212161   1.393   3.881   4.186
 4052TIP3    H112162   1.444   3.914   4.259
 4052TIP3    H212163   1.456   3.876   4.113
 4053TIP3   OH212164   2.097   0.106   3.147
 4053TIP3    H112165   2.036   0.177   3.128
 4053TIP3    H212166   2.132   0.081   3.061
 4054TIP3   OH212167   1.047   4.449   4.897
 4054TIP3    H112168   1.054   4.426   4.804
 4054TIP3    H212169   0.956   4.473   4.909
 4055TIP3   OH212170   4.771   2.660   2.115
 4055TIP3    H112171   4.846   2.667   2.174
 4055TIP3    H212172   4.700   2.706   2.159
 4056TIP3   OH212173   4.243   0.979   0.180
 4056TIP3    H112174   4.161   0.933   0.160
 4056TIP3    H212175   4.308   0.939   0.121
 4057TIP3   OH212176   1.031   5.465   4.764
 4057TIP3    H112177   1.067   5.547   4.731
 4057TIP3    H212178   0.955   5.492   4.816
 4058TIP3   OH212179   1.875   0.245   1.318
 4058TIP3    H112180   1.809   0.291   1.371
 4058TIP3    H212181   1.946   0.225   1.379
 4059TIP3   OH212182   3.824   5.805   0.571
 4059TIP3    H112183   3.780   5.752   0.638
 4059TIP3    H212184   3.757   5.868   0.544
 4060TIP3   OH212185   4.318   2.443   3.335
 4060TIP3    H112186   4.242   2.429   3.278
 4060TIP3    H212187   4.365   2.360   3.333
 4061TIP3   OH212188   5.758   3.972   3.661
 4061TIP3    H112189   5.754   3.937   3.572
 4061TIP3    H212190   5.849   4.001   3.672
 4062TIP3   OH212191   4.638   3.040   4.578
 4062TIP3    H112192   4.589   2.981   4.636
 4062TIP3    H212193   4.587   3.121   4.578
 4063TIP3   OH212194   2.577   5.577   4.369
 4063TIP3    H112195   2.571   5.672   4.373
 4063TIP3    H212196   2.529   5.552   4.290
 4064TIP3   OH212197   1.292   3.637   3.985
 4064TIP3    H112198   1.199   3.660   3.990
 4064TIP3    H212199   1.293   3.552   3.942
 4065TIP3   OH212200   2.482   4.481   4.068
 4065TIP3    H112201   2.549   4.539   4.034
 4065TIP3    H212202   2.527   4.428   4.134
 4066TIP3   OH212203   1.334   3.091   4.056
 4066TIP3    H112204   1.257   3.081   4.000
 4066TIP3    H212205   1.397   3.027   4.023
 4067TIP3   OH212206   2.781   4.369   1.612
 4067TIP3    H112207   2.778   4.404   1.701
 4067TIP3    H212208   2.874   4.371   1.589
 4068TIP3   OH212209   4.784   3.012   1.795
 4068TIP3    H112210   4.774   3.092   1.847
 4068TIP3    H212211   4.709   2.958   1.818
 4069TIP3   OH212212   5.197   3.085   0.990
 4069TIP3    H112213   5.173   3.176   1.012
 4069TIP3    H212214   5.223   3.046   1.074
 4070TIP3   OH212215   1.820   0.285   0.424
 4070TIP3    H112216   1.818   0.208   0.367
 4070TIP3    H212217   1.736   0.327   0.411
 4071TIP3   OH212218   5.287   1.085   5.159
 4071TIP3    H112219   5.194   1.089   5.181
 4071TIP3    H212220   5.291   1.035   5.078
 4072TIP3   OH212221   0.992   3.618   2.141
 4072TIP3    H112222   1.008   3.686   2.076
 4072TIP3    H212223   1.073   3.566   2.141
 4073TIP3   OH212224   5.878   1.016   0.737
 4073TIP3    H112225   5.943   1.084   0.757
 4073TIP3    H212226   5.801   1.040   0.789
 4074TIP3   OH212227   5.801   3.098   0.500
 4074TIP3    H112228   5.730   3.130   0.555
 4074TIP3    H212229   5.814   3.167   0.435
 4075TIP3   OH212230   2.653   2.803   2.442
 4075TIP3    H112231   2.746   2.822   2.428
 4075TIP3    H212232   2.609   2.887   2.427
 4076TIP3   OH212233   5.118   0.902   1.821
 4076TIP3    H112234   5.048   0.935   1.764
 4076TIP3    H212235   5.073   0.865   1.896
 4077TIP3   OH212236   2.212   3.801   3.676
 4077TIP3    H112237   2.126   3.842   3.661
 4077TIP3    H212238   2.262   3.822   3.597
 4078TIP3   OH212239   3.605   2.054   2.300
 4078TIP3    H112240   3.578   1.962   2.301
 4078TIP3    H212241   3.524   2.103   2.296
 4079TIP3   OH212242   5.615   4.669   1.519
 4079TIP3    H112243   5.686   4.652   1.458
 4079TIP3    H212244   5.646   4.636   1.604
 4080TIP3   OH212245   6.248   5.786   4.794
 4080TIP3    H112246   6.162   5.744   4.792
 4080TIP3    H212247   6.256   5.820   4.883
 4081TIP3   OH212248   3.678   5.357   3.987
 4081TIP3    H112249   3.619   5.355   3.912
 4081TIP3    H212250   3.651   5.283   4.041
 4082TIP3   OH212251   3.881   2.258   3.819
 4082TIP3    H112252   3.824   2.196   3.773
 4082TIP3    H212253   3.931   2.203   3.880
 4083TIP3   OH212254   5.915   2.970   1.043
 4083TIP3    H112255   6.003   3.005   1.034
 4083TIP3    H212256   5.918   2.885   0.999
 4084TIP3   OH212257   2.011   5.453   1.644
 4084TIP3    H112258   2.029   5.479   1.734
 4084TIP3    H212259   1.935   5.507   1.619
 4085TIP3   OH212260   5.184   3.307   1.814
 4085TIP3    H112261   5.120   3.266   1.755
 4085TIP3    H212262   5.135   3.379   1.855
 4086TIP3   OH212263   1.923   3.483   5.010
 4086TIP3    H112264   1.885   3.568   5.034
 4086TIP3    H212265   1.866   3.418   5.052
 4087TIP3   OH212266   3.149   0.733   4.582
 4087TIP3    H112267   3.120   0.751   4.492
 4087TIP3    H212268   3.084   0.778   4.637
 4088TIP3   OH212269   2.435   4.181   2.658
 4088TIP3    H112270   2.528   4.157   2.654
 4088TIP3    H212271   2.413   4.173   2.751
 4089TIP3   OH212272   0.475   0.314   4.443
 4089TIP3    H112273   0.546   0.260   4.478
 4089TIP3    H212274   0.444   0.364   4.518
 4090TIP3   OH212275   2.254   2.298   5.088
 4090TIP3    H112276   2.163   2.300   5.057
 4090TIP3    H212277   2.303   2.346   5.021
 4091TIP3   OH212278   2.244   5.585   4.875
 4091TIP3    H112279   2.303   5.574   4.801
 4091TIP3    H212280   2.184   5.654   4.849
 4092TIP3   OH212281   1.411   3.010   0.235
 4092TIP3    H112282   1.317   3.008   0.214
 4092TIP3    H212283   1.414   3.026   0.329
 4093TIP3   OH212284   1.916   5.925   0.446
 4093TIP3    H112285   1.925   5.830   0.451
 4093TIP3    H212286   1.947   5.957   0.530
 4094TIP3   OH212287   1.647   5.294   1.905
 4094TIP3    H112288   1.661   5.232   1.833
 4094TIP3    H212289   1.565   5.337   1.884
 4095TIP3   OH212290   5.942   5.064   0.315
 4095TIP3    H112291   5.855   5.025   0.307
 4095TIP3    H212292   5.925   5.157   0.331
 4096TIP3   OH212293   4.368   4.091   2.043
 4096TIP3    H112294   4.372   4.047   1.958
 4096TIP3    H212295   4.353   4.183   2.021
 4097TIP3   OH212296   1.514   1.938   1.350
 4097TIP3    H112297   1.537   2.019   1.396
 4097TIP3    H212298   1.425   1.919   1.379
 4098TIP3   OH212299   4.386   4.797   3.677
 4098TIP3    H112300   4.481   4.801   3.667
 4098TIP3    H212301   4.367   4.850   3.754
 4099TIP3   OH212302   0.127   5.522   4.200
 4099TIP3    H112303   0.215   5.560   4.204
 4099TIP3    H212304   0.074   5.579   4.256
 4100TIP3   OH212305   3.015   2.457   2.241
 4100TIP3    H112306   3.055   2.397   2.304
 4100TIP3    H212307   3.078   2.464   2.170
 4101TIP3   OH212308   5.779   0.952   1.499
 4101TIP3    H112309   5.809   0.934   1.410
 4101TIP3    H212310   5.736   1.038   1.493
 4102TIP3   OH212311   4.421   5.318   5.117
 4102TIP3    H112312   4.400   5.259   5.190
 4102TIP3    H212313   4.508   5.291   5.088
 4103TIP3   OH212314   4.154   2.554   1.252
 4103TIP3    H112315   4.122   2.603   1.328
 4103TIP3    H212316   4.228   2.503   1.285
 4104TIP3   OH212317   3.768   0.980   3.689
 4104TIP3    H112318   3.806   1.048   3.744
 4104TIP3    H212319   3.732   0.916   3.751
 4105TIP3   OH212320   0.407   3.190   4.039
 4105TIP3    H112321   0.430   3.099   4.019
 4105TIP3    H212322   0.320   3.185   4.079
 4106TIP3   OH212323   4.858   5.739   0.508
 4106TIP3    H112324   4.799   5.673   0.469
 4106TIP3    H212325   4.896   5.695   0.584
 4107TIP3   OH212326   2.089   1.088   2.658
 4107TIP3    H112327   2.124   1.148   2.592
 4107TIP3    H212328   2.067   1.145   2.732
 4108TIP3   OH212329   0.465   1.274   2.706
 4108TIP3    H112330   0.501   1.245   2.790
 4108TIP3    H212331   0.520   1.349   2.682
 4109TIP3   OH212332   1.124   4.795   1.401
 4109TIP3    H112333   1.215   4.806   1.429
 4109TIP3    H212334   1.122   4.827   1.311
 4110TIP3   OH212335   5.904   4.610   0.295
 4110TIP3    H112336   5.977   4.584   0.351
 4110TIP3    H212337   5.873   4.528   0.257
 4111TIP3   OH212338   0.099  -0.017   3.337
 4111TIP3    H112339   0.136   0.047   3.398
 4111TIP3    H212340   0.047   0.035   3.276
 4112TIP3   OH212341   5.659   5.041   3.519
 4112TIP3    H112342   5.689   5.131   3.534
 4112TIP3    H212343   5.666   5.029   3.425
 4113TIP3   OH212344   1.980   0.814   1.848
 4113TIP3    H112345   1.928   0.843   1.923
 4113TIP3    H212346   1.949   0.867   1.775
 4114TIP3   OH212347   0.191   3.725   2.580
 4114TIP3    H112348   0.243   3.707   2.659
 4114TIP3    H212349   0.104   3.749   2.613
 4115TIP3   OH212350   5.276   2.068   4.309
 4115TIP3    H112351   5.354   2.014   4.298
 4115TIP3    H212352   5.210   2.026   4.255
 4116TIP3   OH212353   4.669   3.777   1.555
 4116TIP3    H112354   4.750   3.749   1.597
 4116TIP3    H212355   4.606   3.786   1.627
 4117TIP3   OH212356   5.426   4.923   0.746
 4117TIP3    H112357   5.418   4.835   0.709
 4117TIP3    H212358   5.414   4.981   0.671
 4118TIP3   OH212359   0.158   4.878   1.584
 4118TIP3    H112360   0.178   4.921   1.501
 4118TIP3    H212361   0.191   4.789   1.574
 4119TIP3   OH212362   1.581   5.367   3.825
 4119TIP3    H112363   1.511   5.414   3.869
 4119TIP3    H212364   1.544   5.343   3.740
 4120TIP3   OH212365   0.836   3.852   3.235
 4120TIP3    H112366   0.777   3.842   3.310
 4120TIP3    H212367   0.923   3.858   3.275
 4121TIP3   OH212368   4.273   4.697   4.191
 4121TIP3    H112369   4.313   4.640   4.125
 4121TIP3    H212370   4.185   4.661   4.204
 4122TIP3   OH212371   4.972   0.085   2.712
 4122TIP3    H112372   5.013   0.050   2.791
 4122TIP3    H212373   5.017   0.042   2.640
 4123TIP3   OH212374   5.163   2.856   1.514
 4123TIP3    H112375   5.150   2.769   1.551
 4123TIP3    H212376   5.110   2.914   1.569
 4124TIP3   OH212377   4.666   0.267   2.263
 4124TIP3    H112378   4.651   0.185   2.310
 4124TIP3    H212379   4.754   0.294   2.288
 4125TIP3   OH212380   2.915   5.321   4.701
 4125TIP3    H112381   2.853   5.388   4.671
 4125TIP3    H212382   2.941   5.350   4.788
 4126TIP3   OH212383   4.299   0.570   3.765
 4126TIP3    H112384   4.343   0.589   3.682
 4126TIP3    H212385   4.254   0.487   3.750
 4127TIP3   OH212386   3.614   5.885   0.046
 4127TIP3    H112387   3.595   5.899  -0.047
 4127TIP3    H212388   3.557   5.811   0.070
 4128TIP3   OH212389   3.932   1.894   1.954
 4128TIP3    H112390   3.937   1.989   1.957
 4128TIP3    H212391   3.947   1.866   2.044
 4129TIP3   OH212392   4.669   5.238   1.485
 4129TIP3    H112393   4.629   5.152   1.492
 4129TIP3    H212394   4.594   5.299   1.482
 4130TIP3   OH212395   1.939   3.795   4.649
 4130TIP3    H112396   1.918   3.837   4.565
 4130TIP3    H212397   2.014   3.845   4.682
 4131TIP3   OH212398   3.754   0.048   4.325
 4131TIP3    H112399   3.661   0.039   4.305
 4131TIP3    H212400   3.798   0.002   4.253
 4132TIP3   OH212401   2.840   3.584   2.616
 4132TIP3    H112402   2.902   3.656   2.628
 4132TIP3    H212403   2.850   3.530   2.694
 4133TIP3   OH212404   1.165   4.741   2.541
 4133TIP3    H112405   1.152   4.739   2.636
 4133TIP3    H212406   1.088   4.696   2.505
 4134TIP3   OH212407   5.405   5.392   4.881
 4134TIP3    H112408   5.310   5.401   4.896
 4134TIP3    H212409   5.418   5.298   4.870
 4135TIP3   OH212410   0.898   2.819   0.580
 4135TIP3    H112411   0.961   2.782   0.641
 4135TIP3    H212412   0.842   2.875   0.634
 4136TIP3   OH212413   1.047   4.146   2.512
 4136TIP3    H112414   1.020   4.095   2.436
 4136TIP3    H212415   1.121   4.199   2.480
 4137TIP3   OH212416   4.706   0.435   5.086
 4137TIP3    H112417   4.629   0.490   5.103
 4137TIP3    H212418   4.765   0.455   5.159
 4138TIP3   OH212419   5.561   5.213   3.970
 4138TIP3    H112420   5.652   5.241   3.974
 4138TIP3    H212421   5.511   5.292   3.988
 4139TIP3   OH212422   3.772   1.509   3.106
 4139TIP3    H112423   3.733   1.527   3.192
 4139TIP3    H212424   3.762   1.591   3.058
 4140TIP3   OH212425   4.386   4.167   2.781
 4140TIP3    H112426   4.291   4.165   2.784
 4140TIP3    H212427   4.409   4.114   2.704
 4141TIP3   OH212428   0.138   0.044   0.260
 4141TIP3    H112429   0.082   0.007   0.329
 4141TIP3    H212430   0.077   0.080   0.196
 4142TIP3   OH212431   2.182   3.413   2.671
 4142TIP3    H112432   2.152   3.335   2.718
 4142TIP3    H212433   2.272   3.392   2.646
 4143TIP3   OH212434   2.591  -0.018   1.977
 4143TIP3    H112435   2.560  -0.084   2.039
 4143TIP3    H212436   2.517  -0.004   1.918
 4144TIP3   OH212437   4.367   2.928   3.172
 4144TIP3    H112438   4.320   2.894   3.095
 4144TIP3    H212439   4.427   2.857   3.196
 4145TIP3   OH212440   0.464   5.118   1.689
 4145TIP3    H112441   0.541   5.170   1.667
 4145TIP3    H212442   0.486   5.029   1.665
 4146TIP3   OH212443   0.726   5.919   1.254
 4146TIP3    H112444   0.695   5.832   1.229
 4146TIP3    H212445   0.678   5.979   1.197
 4147TIP3   OH212446   2.545   2.044   3.914
 4147TIP3    H112447   2.581   1.979   3.975
 4147TIP3    H212448   2.496   2.105   3.968
 4148TIP3   OH212449   1.003   5.417   1.662
 4148TIP3    H112450   0.980   5.431   1.754
 4148TIP3    H212451   0.945   5.476   1.614
 4149TIP3   OH212452   5.381   4.970   0.271
 4149TIP3    H112453   5.336   4.888   0.291
 4149TIP3    H212454   5.467   4.960   0.312
 4150TIP3   OH212455   5.003   5.912   3.113
 4150TIP3    H112456   5.054   5.910   3.194
 4150TIP3    H212457   5.027   5.995   3.072
 4151TIP3   OH212458   0.249   1.161   0.957
 4151TIP3    H112459   0.271   1.155   0.864
 4151TIP3    H212460   0.311   1.103   1.000
 4152TIP3   OH212461   1.251   1.922   0.626
 4152TIP3    H112462   1.249   2.002   0.573
 4152TIP3    H212463   1.160   1.909   0.652
 4153TIP3   OH212464   4.207   3.094   4.241
 4153TIP3    H112465   4.273   3.163   4.242
 4153TIP3    H212466   4.134   3.130   4.292
 4154TIP3   OH212467   4.428   4.616   2.915
 4154TIP3    H112468   4.397   4.571   2.837
 4154TIP3    H212469   4.467   4.547   2.969
 4155TIP3   OH212470   1.962   1.709   1.595
 4155TIP3    H112471   1.903   1.750   1.532
 4155TIP3    H212472   1.965   1.770   1.669
 4156TIP3   OH212473   2.776   2.694   4.902
 4156TIP3    H112474   2.758   2.783   4.934
 4156TIP3    H212475   2.847   2.662   4.958
 4157TIP3   OH212476   5.982   2.705   1.909
 4157TIP3    H112477   5.913   2.712   1.976
 4157TIP3    H212478   5.951   2.759   1.837
 4158TIP3   OH212479   6.222   2.723   4.376
 4158TIP3    H112480   6.141   2.767   4.351
 4158TIP3    H212481   6.194   2.643   4.419
 4159TIP3   OH212482   1.596   5.283   4.293
 4159TIP3    H112483   1.607   5.227   4.217
 4159TIP3    H212484   1.627   5.231   4.367
 4160TIP3   OH212485   0.039   5.528   2.871
 4160TIP3    H112486  -0.003   5.614   2.870
 4160TIP3    H212487   0.008   5.488   2.953
 4161TIP3   OH212488   3.504   4.761   2.374
 4161TIP3    H112489   3.547   4.840   2.342
 4161TIP3    H212490   3.475   4.715   2.295
 4162TIP3   OH212491   3.775   0.054   4.986
 4162TIP3    H112492   3.855   0.009   5.012
 4162TIP3    H212493   3.774   0.134   5.039
 4163TIP3   OH212494   2.190   4.572   2.020
 4163TIP3    H112495   2.150   4.640   1.966
 4163TIP3    H212496   2.267   4.544   1.971
 4164TIP3   OH212497   0.809   1.133   1.102
 4164TIP3    H112498   0.891   1.175   1.075
 4164TIP3    H212499   0.742   1.177   1.049
 4165TIP3   OH212500   4.125   4.174   4.604
 4165TIP3    H112501   4.082   4.196   4.521
 4165TIP3    H212502   4.121   4.255   4.655
 4166TIP3   OH212503   1.102   4.500   1.167
 4166TIP3    H112504   1.036   4.506   1.237
 4166TIP3    H212505   1.138   4.412   1.177
 4167TIP3   OH212506   3.117   5.316   3.208
 4167TIP3    H112507   3.115   5.320   3.303
 4167TIP3    H212508   3.182   5.250   3.187
 4168TIP3   OH212509   5.454   5.401   0.244
 4168TIP3    H112510   5.503   5.379   0.164
 4168TIP3    H212511   5.362   5.393   0.219
 4169TIP3   OH212512   4.031   0.596   0.266
 4169TIP3    H112513   4.071   0.513   0.237
 4169TIP3    H212514   3.946   0.570   0.302
 4170TIP3   OH212515   6.295   3.039   4.436
 4170TIP3    H112516   6.281   3.127   4.471
 4170TIP3    H212517   6.221   2.989   4.469
 4171TIP3   OH212518   1.944   2.550   4.502
 4171TIP3    H112519   2.031   2.583   4.525
 4171TIP3    H212520   1.889   2.574   4.576
 4172TIP3   OH212521   1.706   4.108   3.462
 4172TIP3    H112522   1.638   4.096   3.529
 4172TIP3    H212523   1.707   4.202   3.447
 4173TIP3   OH212524   3.014   1.702   0.317
 4173TIP3    H112525   3.005   1.699   0.221
 4173TIP3    H212526   2.946   1.643   0.349
 4174TIP3   OH212527   1.457   0.784   1.793
 4174TIP3    H112528   1.497   0.871   1.786
 4174TIP3    H212529   1.512   0.737   1.855
 4175TIP3   OH212530   4.211   3.367   2.028
 4175TIP3    H112531   4.303   3.350   2.006
 4175TIP3    H212532   4.213   3.445   2.082
 4176TIP3   OH212533   3.323   2.142   2.236
 4176TIP3    H112534   3.286   2.230   2.225
 4176TIP3    H212535   3.251   2.083   2.214
 4177TIP3   OH212536   4.230   5.441   3.061
 4177TIP3    H112537   4.269   5.366   3.016
 4177TIP3    H212538   4.136   5.430   3.049
 4178TIP3   OH212539   0.729   0.582   1.199
 4178TIP3    H112540   0.818   0.586   1.164
 4178TIP3    H212541   0.684   0.516   1.145
 4179TIP3   OH212542   1.966   4.537   1.456
 4179TIP3    H112543   2.023   4.527   1.380
 4179TIP3    H212544   1.888   4.581   1.421
 4180TIP3   OH212545   5.960   4.076   4.087
 4180TIP3    H112546   6.012   3.999   4.066
 4180TIP3    H212547   6.022   4.149   4.084
 4181TIP3   OH212548   4.628   3.604   2.895
 4181TIP3    H112549   4.653   3.694   2.874
 4181TIP3    H212550   4.560   3.583   2.832
 4182TIP3   OH212551   5.369   0.044   2.614
 4182TIP3    H112552   5.369   0.033   2.709
 4182TIP3    H212553   5.281   0.022   2.586
 4183TIP3   OH212554   5.858   0.393   4.203
 4183TIP3    H112555   5.904   0.309   4.202
 4183TIP3    H212556   5.790   0.382   4.269
 4184TIP3   OH212557   1.330   3.042   2.324
 4184TIP3    H112558   1.381   3.123   2.316
 4184TIP3    H212559   1.386   2.983   2.373
 4185TIP3   OH212560   3.455   5.073   0.213
 4185TIP3    H112561   3.394   5.129   0.166
 4185TIP3    H212562   3.541   5.114   0.198
 4186TIP3   OH212563   3.764   2.062   3.626
 4186TIP3    H112564   3.707   2.051   3.702
 4186TIP3    H212565   3.828   1.992   3.633
 4187TIP3   OH212566   3.493   1.982   3.208
 4187TIP3    H112567   3.513   1.901   3.255
 4187TIP3    H212568   3.562   2.044   3.236
 4188TIP3   OH212569   5.667   0.570   0.245
 4188TIP3    H112570   5.687   0.547   0.155
 4188TIP3    H212571   5.751   0.593   0.284
 4189TIP3   OH212572   2.116   4.984   3.428
 4189TIP3    H112573   2.076   4.960   3.512
 4189TIP3    H212574   2.179   5.053   3.450
 4190TIP3   OH212575   5.723   3.389   5.132
 4190TIP3    H112576   5.642   3.399   5.184
 4190TIP3    H212577   5.764   3.475   5.136
 4191TIP3   OH212578   6.254   1.285   3.414
 4191TIP3    H112579   6.228   1.231   3.339
 4191TIP3    H212580   6.171   1.315   3.451
 4192TIP3   OH212581   2.024   5.912   1.785
 4192TIP3    H112582   2.089   5.970   1.826
 4192TIP3    H212583   1.952   5.908   1.848
 4193TIP3   OH212584   3.213   4.956   1.893
 4193TIP3    H112585   3.139   5.002   1.932
 4193TIP3    H212586   3.212   4.870   1.934
 4194TIP3   OH212587   2.499   0.045   4.788
 4194TIP3    H112588   2.514  -0.019   4.858
 4194TIP3    H212589   2.578   0.042   4.735
 4195TIP3   OH212590   1.477   0.367   4.911
 4195TIP3    H112591   1.439   0.409   4.988
 4195TIP3    H212592   1.459   0.273   4.923
 4196TIP3   OH212593   2.045   2.182   2.515
 4196TIP3    H112594   2.075   2.243   2.582
 4196TIP3    H212595   2.014   2.106   2.564
 4197TIP3   OH212596   0.086   5.434   3.363
 4197TIP3    H112597   0.056   5.523   3.384
 4197TIP3    H212598   0.116   5.399   3.447
 4198TIP3   OH212599   1.870   0.181   5.130
 4198TIP3    H112600   1.868   0.218   5.042
 4198TIP3    H212601   1.807   0.233   5.180
 4199TIP3   OH212602   5.495   2.884   0.568
 4199TIP3    H112603   5.542   2.959   0.605
 4199TIP3    H212604   5.468   2.913   0.481
 4200TIP3   OH212605   3.242   4.380   3.059
 4200TIP3    H112606   3.228   4.305   3.001
 4200TIP3    H212607   3.330   4.367   3.095
 4201TIP3   OH212608   2.072   5.652   1.852
 4201TIP3    H112609   2.036   5.722   1.798
 4201TIP3    H212610   2.140   5.694   1.904
 4202TIP3   OH212611   5.077   4.386   3.266
 4202TIP3    H112612   5.034   4.307   3.232
 4202TIP3    H212613   5.024   4.458   3.233
 4203TIP3   OH212614   5.452   4.404   2.543
 4203TIP3    H112615   5.386   4.426   2.609
 4203TIP3    H212616   5.430   4.459   2.467
 4204TIP3   OH212617   5.854   0.310   2.203
 4204TIP3    H112618   5.867   0.284   2.294
 4204TIP3    H212619   5.771   0.269   2.178
 4205TIP3   OH212620   2.898   0.711   3.764
 4205TIP3    H112621   2.846   0.677   3.691
 4205TIP3    H212622   2.859   0.672   3.842
 4206TIP3   OH212623   2.671   3.579   0.525
 4206TIP3    H112624   2.589   3.563   0.477
 4206TIP3    H212625   2.710   3.492   0.532
 4207TIP3   OH212626   1.074   2.594   2.609
 4207TIP3    H112627   1.045   2.679   2.642
 4207TIP3    H212628   1.036   2.589   2.521
 4208TIP3   OH212629   1.331   4.420   3.933
 4208TIP3    H112630   1.340   4.325   3.925
 4208TIP3    H212631   1.280   4.432   4.012
 4209TIP3   OH212632   2.009   1.233   2.277
 4209TIP3    H112633   1.914   1.219   2.286
 4209TIP3    H212634   2.017   1.287   2.199
 4210TIP3   OH212635   3.279   4.775   0.813
 4210TIP3    H112636   3.236   4.778   0.898
 4210TIP3    H212637   3.324   4.690   0.812
 4211TIP3   OH212638   5.192   4.220   1.696
 4211TIP3    H112639   5.274   4.170   1.701
 4211TIP3    H212640   5.136   4.167   1.640
 4212TIP3   OH212641   3.512   4.827   3.966
 4212TIP3    H112642   3.458   4.749   3.948
 4212TIP3    H212643   3.476   4.863   4.047
 4213TIP3   OH212644   0.715   5.888   1.733
 4213TIP3    H112645   0.673   5.861   1.651
 4213TIP3    H212646   0.642   5.910   1.791
 4214TIP3   OH212647   5.521   1.759   3.680
 4214TIP3    H112648   5.596   1.705   3.706
 4214TIP3    H212649   5.459   1.697   3.643
 4215TIP3   OH212650   4.510   1.487   3.846
 4215TIP3    H112651   4.541   1.497   3.756
 4215TIP3    H212652   4.566   1.546   3.898
 4216TIP3   OH212653   5.863   0.531   1.358
 4216TIP3    H112654   5.910   0.494   1.433
 4216TIP3    H212655   5.816   0.606   1.395
 4217TIP3   OH212656   5.011   1.770   4.525
 4217TIP3    H112657   5.089   1.826   4.519
 4217TIP3    H212658   5.045   1.684   4.549
 4218TIP3   OH212659   2.463   2.415   1.632
 4218TIP3    H112660   2.430   2.488   1.684
 4218TIP3    H212661   2.549   2.444   1.602
 4219TIP3   OH212662   1.135   0.649   4.191
 4219TIP3    H112663   1.181   0.567   4.211
 4219TIP3    H212664   1.154   0.704   4.267
 4220TIP3   OH212665   5.381   3.539   1.156
 4220TIP3    H112666   5.381   3.468   1.221
 4220TIP3    H212667   5.443   3.603   1.191
 4221TIP3   OH212668   3.202   0.370   1.944
 4221TIP3    H112669   3.289   0.330   1.956
 4221TIP3    H212670   3.195   0.433   2.015
 4222TIP3   OH212671   1.515   5.081   2.478
 4222TIP3    H112672   1.430   5.046   2.451
 4222TIP3    H212673   1.547   5.018   2.543
 4223TIP3   OH212674   4.511   4.977   2.743
 4223TIP3    H112675   4.546   4.914   2.807
 4223TIP3    H212676   4.586   5.032   2.721
 4224TIP3   OH212677   0.764   0.389   1.484
 4224TIP3    H112678   0.850   0.432   1.478
 4224TIP3    H212679   0.701   0.461   1.481
 4225TIP3   OH212680   6.331   1.893   0.116
 4225TIP3    H112681   6.251   1.939   0.091
 4225TIP3    H212682   6.402   1.945   0.080
 4226TIP3   OH212683   3.272   1.994   0.863
 4226TIP3    H112684   3.297   1.970   0.952
 4226TIP3    H212685   3.184   1.957   0.852
 4227TIP3   OH212686   5.476   2.829   3.017
 4227TIP3    H112687   5.513   2.901   2.965
 4227TIP3    H212688   5.519   2.751   2.984
 4228TIP3   OH212689   3.806   0.577   4.796
 4228TIP3    H112690   3.762   0.493   4.807
 4228TIP3    H212691   3.735   0.642   4.799
 4229TIP3   OH212692   3.439   0.119   1.009
 4229TIP3    H112693   3.472   0.107   1.099
 4229TIP3    H212694   3.506   0.174   0.967
 4230TIP3   OH212695   4.592   4.571   0.966
 4230TIP3    H112696   4.529   4.567   1.038
 4230TIP3    H212697   4.644   4.491   0.976
 4231TIP3   OH212698   1.249   1.162   3.458
 4231TIP3    H112699   1.204   1.189   3.378
 4231TIP3    H212700   1.332   1.125   3.429
 4232TIP3   OH212701   5.651   1.209   1.559
 4232TIP3    H112702   5.646   1.172   1.647
 4232TIP3    H212703   5.710   1.285   1.567
 4233TIP3   OH212704   1.602   0.464   1.745
 4233TIP3    H112705   1.515   0.473   1.707
 4233TIP3    H212706   1.588   0.416   1.827
 4234TIP3   OH212707   3.317   2.294   2.895
 4234TIP3    H112708   3.265   2.343   2.831
 4234TIP3    H212709   3.402   2.282   2.852
 4235TIP3   OH212710   3.701   4.851   3.064
 4235TIP3    H112711   3.628   4.801   3.027
 4235TIP3    H212712   3.694   4.836   3.159
 4236TIP3   OH212713   2.134   5.635   3.837
 4236TIP3    H112714   2.200   5.681   3.786
 4236TIP3    H212715   2.184   5.576   3.893
 4237TIP3   OH212716   0.367   3.509   1.072
 4237TIP3    H112717   0.394   3.485   1.161
 4237TIP3    H212718   0.323   3.430   1.039
 4238TIP3   OH212719   4.061   0.653   3.265
 4238TIP3    H112720   3.971   0.621   3.278
 4238TIP3    H212721   4.054   0.716   3.193
 4239TIP3   OH212722   3.047   5.577   3.030
 4239TIP3    H112723   2.970   5.520   3.038
 4239TIP3    H212724   3.120   5.516   3.024
 4240TIP3   OH212725   0.247   1.218   1.533
 4240TIP3    H112726   0.175   1.158   1.551
 4240TIP3    H212727   0.205   1.300   1.507
 4241TIP3   OH212728   3.306   0.301   5.162
 4241TIP3    H112729   3.305   0.238   5.090
 4241TIP3    H212730   3.260   0.378   5.127
 4242TIP3   OH212731   5.210   1.114   0.493
 4242TIP3    H112732   5.195   1.208   0.493
 4242TIP3    H212733   5.180   1.085   0.579
 4243TIP3   OH212734   2.604   0.423   4.879
 4243TIP3    H112735   2.666   0.493   4.898
 4243TIP3    H212736   2.562   0.449   4.797
 4244TIP3   OH212737   4.528   0.202   3.846
 4244TIP3    H112738   4.562   0.290   3.862
 4244TIP3    H212739   4.453   0.216   3.788
 4245TIP3   OH212740   5.435   0.772   1.303
 4245TIP3    H112741   5.499   0.708   1.273
 4245TIP3    H212742   5.480   0.819   1.374
 4246TIP3   OH212743   2.313   1.094   4.266
 4246TIP3    H112744   2.392   1.100   4.321
 4246TIP3    H212745   2.240   1.099   4.328
 4247TIP3   OH212746   5.639   0.009   1.695
 4247TIP3    H112747   5.709   0.067   1.664
 4247TIP3    H212748   5.560   0.062   1.690
 4248TIP3   OH212749   5.507   4.913   1.985
 4248TIP3    H112750   5.487   4.871   1.901
 4248TIP3    H212751   5.509   5.006   1.965
 4249TIP3   OH212752   3.085   5.285   2.911
 4249TIP3    H112753   3.149   5.354   2.895
 4249TIP3    H212754   3.057   5.298   3.001
 4250TIP3   OH212755   5.144   0.514   0.265
 4250TIP3    H112756   5.227   0.534   0.308
 4250TIP3    H212757   5.079   0.518   0.336
 4251TIP3   OH212758   4.186   3.297   2.389
 4251TIP3    H112759   4.250   3.268   2.324
 4251TIP3    H212760   4.239   3.316   2.467
 4252TIP3   OH212761   4.839   5.311   2.472
 4252TIP3    H112762   4.905   5.364   2.517
 4252TIP3    H212763   4.815   5.362   2.395
 4253TIP3   OH212764   6.241   5.804   3.730
 4253TIP3    H112765   6.277   5.818   3.642
 4253TIP3    H212766   6.161   5.856   3.732
 4254TIP3   OH212767   4.350   2.577   2.873
 4254TIP3    H112768   4.349   2.671   2.889
 4254TIP3    H212769   4.382   2.538   2.954
 4255TIP3   OH212770   1.227   3.186   1.084
 4255TIP3    H112771   1.273   3.110   1.049
 4255TIP3    H212772   1.139   3.179   1.047
 4256TIP3   OH212773   2.285   1.387   4.531
 4256TIP3    H112774   2.199   1.388   4.490
 4256TIP3    H212775   2.332   1.459   4.490
 4257TIP3   OH212776   4.102   5.375   0.104
 4257TIP3    H112777   4.184   5.330   0.121
 4257TIP3    H212778   4.043   5.308   0.070
 4258TIP3   OH212779   2.081   2.878   3.010
 4258TIP3    H112780   2.174   2.861   2.991
 4258TIP3    H212781   2.034   2.820   2.951
 4259TIP3   OH212782   1.017  -0.015   1.388
 4259TIP3    H112783   1.103  -0.033   1.426
 4259TIP3    H212784   1.037   0.039   1.310
 4260TIP3   OH212785   0.667   0.251   0.702
 4260TIP3    H112786   0.649   0.157   0.701
 4260TIP3    H212787   0.649   0.278   0.792
 4261TIP3   OH212788   0.958   4.583   2.453
 4261TIP3    H112789   0.996   4.503   2.416
 4261TIP3    H212790   0.866   4.579   2.428
 4262TIP3   OH212791   0.138   1.712   2.664
 4262TIP3    H112792   0.091   1.664   2.594
 4262TIP3    H212793   0.208   1.652   2.690
 4263TIP3   OH212794   1.066   1.503   0.697
 4263TIP3    H112795   1.088   1.423   0.649
 4263TIP3    H212796   1.093   1.573   0.639
 4264TIP3   OH212797   4.620   4.898   4.629
 4264TIP3    H112798   4.587   4.948   4.555
 4264TIP3    H212799   4.715   4.907   4.623
 4265TIP3   OH212800   6.092   5.971   2.066
 4265TIP3    H112801   6.166   6.018   2.027
 4265TIP3    H212802   6.093   5.885   2.023
 4266TIP3   OH212803   2.101   2.623   5.164
 4266TIP3    H112804   2.151   2.581   5.234
 4266TIP3    H212805   2.019   2.575   5.160
 4267TIP3   OH212806   3.798   0.516   3.203
 4267TIP3    H112807   3.746   0.457   3.257
 4267TIP3    H212808   3.781   0.603   3.239
 4268TIP3   OH212809   4.042   5.886   4.954
 4268TIP3    H112810   4.104   5.814   4.943
 4268TIP3    H212811   3.985   5.857   5.025
 4269TIP3   OH212812   3.601   2.327   4.151
 4269TIP3    H112813   3.595   2.261   4.220
 4269TIP3    H212814   3.537   2.298   4.085
 4270TIP3   OH212815   0.984   2.477   1.989
 4270TIP3    H112816   0.894   2.508   2.000
 4270TIP3    H212817   1.036   2.536   2.045
 4271TIP3   OH212818   3.290   2.910   2.340
 4271TIP3    H112819   3.333   2.848   2.400
 4271TIP3    H212820   3.356   2.928   2.273
 4272TIP3   OH212821   2.195   1.016   2.320
 4272TIP3    H112822   2.253   1.086   2.289
 4272TIP3    H212823   2.108   1.055   2.317
 4273TIP3   OH212824   6.088   2.421   4.962
 4273TIP3    H112825   6.111   2.371   4.883
 4273TIP3    H212826   6.167   2.471   4.982
 4274TIP3   OH212827   5.351   4.098   2.339
 4274TIP3    H112828   5.318   4.008   2.334
 4274TIP3    H212829   5.356   4.127   2.248
 4275TIP3   OH212830   2.712   3.722   3.161
 4275TIP3    H112831   2.750   3.775   3.091
 4275TIP3    H212832   2.745   3.762   3.241
 4276TIP3   OH212833   3.505   0.140   2.417
 4276TIP3    H112834   3.415   0.145   2.385
 4276TIP3    H212835   3.554   0.102   2.345
 4277TIP3   OH212836   4.845   2.041   3.616
 4277TIP3    H112837   4.876   2.115   3.564
 4277TIP3    H212838   4.879   2.057   3.704
 4278TIP3   OH212839   2.939   5.815   2.248
 4278TIP3    H112840   2.883   5.770   2.312
 4278TIP3    H212841   2.894   5.897   2.230
 4279TIP3   OH212842   1.376   1.892   1.870
 4279TIP3    H112843   1.433   1.841   1.813
 4279TIP3    H212844   1.407   1.874   1.958
 4280TIP3   OH212845   3.130   3.607   0.103
 4280TIP3    H112846   3.132   3.533   0.163
 4280TIP3    H212847   3.160   3.681   0.155
 4281TIP3   OH212848   4.268   5.138   2.701
 4281TIP3    H112849   4.242   5.162   2.612
 4281TIP3    H212850   4.357   5.104   2.691
 4282TIP3   OH212851   2.835   4.272   1.286
 4282TIP3    H112852   2.841   4.222   1.204
 4282TIP3    H212853   2.925   4.299   1.304
 4283TIP3   OH212854   4.000   2.680   4.095
 4283TIP3    H112855   4.053   2.641   4.164
 4283TIP3    H212856   4.064   2.715   4.032
 4284TIP3   OH212857   4.311   1.610   0.706
 4284TIP3    H112858   4.395   1.651   0.683
 4284TIP3    H212859   4.332   1.517   0.715
 4285TIP3   OH212860   3.544   5.454   2.310
 4285TIP3    H112861   3.570   5.395   2.240
 4285TIP3    H212862   3.583   5.538   2.287
 4286TIP3   OH212863   4.269   5.396   2.102
 4286TIP3    H112864   4.189   5.387   2.050
 4286TIP3    H212865   4.238   5.421   2.189
 4287TIP3   OH212866   3.284   3.748   1.161
 4287TIP3    H112867   3.276   3.803   1.083
 4287TIP3    H212868   3.200   3.702   1.166
 4288TIP3   OH212869   0.017   5.979   1.037
 4288TIP3    H112870  -0.073   6.007   1.057
 4288TIP3    H212871   0.034   6.014   0.949
 4289TIP3   OH212872   0.907   3.966   2.273
 4289TIP3    H112873   0.858   3.912   2.335
 4289TIP3    H212874   0.854   3.965   2.193
 4290TIP3   OH212875   5.798   0.153   4.012
 4290TIP3    H112876   5.850   0.160   3.931
 4290TIP3    H212877   5.810   0.062   4.040
 4291TIP3   OH212878   4.706   1.119   4.530
 4291TIP3    H112879   4.686   1.140   4.622
 4291TIP3    H212880   4.801   1.128   4.524
 4292TIP3   OH212881   2.196   0.635   1.075
 4292TIP3    H112882   2.158   0.660   0.991
 4292TIP3    H212883   2.121   0.625   1.134
 4293TIP3   OH212884   5.829   2.371   0.850
 4293TIP3    H112885   5.763   2.399   0.913
 4293TIP3    H212886   5.838   2.445   0.790
 4294TIP3   OH212887   0.865   3.941   3.971
 4294TIP3    H112888   0.956   3.917   3.989
 4294TIP3    H212889   0.814   3.890   4.035
 4295TIP3   OH212890   0.219   0.489   3.960
 4295TIP3    H112891   0.210   0.485   4.055
 4295TIP3    H212892   0.158   0.559   3.934
 4296TIP3   OH212893   2.610   4.645   1.146
 4296TIP3    H112894   2.649   4.589   1.213
 4296TIP3    H212895   2.579   4.722   1.194
 4297TIP3   OH212896   3.181   3.530   3.612
 4297TIP3    H112897   3.245   3.461   3.628
 4297TIP3    H212898   3.102   3.483   3.584
 4298TIP3   OH212899   6.268   0.112   3.143
 4298TIP3    H112900   6.282   0.161   3.062
 4298TIP3    H212901   6.256   0.180   3.210
 4299TIP3   OH212902   1.171   0.964   3.197
 4299TIP3    H112903   1.201   0.884   3.155
 4299TIP3    H212904   1.250   1.004   3.233
 4300TIP3   OH212905   5.085   2.533   3.583
 4300TIP3    H112906   4.997   2.538   3.544
 4300TIP3    H212907   5.099   2.619   3.621
 4301TIP3   OH212908   2.376   5.290   0.471
 4301TIP3    H112909   2.358   5.282   0.564
 4301TIP3    H212910   2.367   5.201   0.437
 4302TIP3   OH212911   5.819   3.813   2.337
 4302TIP3    H112912   5.834   3.816   2.431
 4302TIP3    H212913   5.906   3.822   2.298
 4303TIP3   OH212914   4.946   0.126   0.840
 4303TIP3    H112915   4.938   0.220   0.823
 4303TIP3    H212916   4.988   0.121   0.926
 4304TIP3   OH212917   0.848   5.422   5.142
 4304TIP3    H112918   0.902   5.456   5.214
 4304TIP3    H212919   0.857   5.487   5.073
 4305TIP3   OH212920   4.115   2.796   4.847
 4305TIP3    H112921   4.136   2.767   4.935
 4305TIP3    H212922   4.019   2.802   4.846
 4306TIP3   OH212923   1.010   4.351   1.709
 4306TIP3    H112924   1.066   4.302   1.650
 4306TIP3    H212925   0.959   4.284   1.755
 4307TIP3   OH212926   0.214   2.171   2.895
 4307TIP3    H112927   0.158   2.132   2.962
 4307TIP3    H212928   0.197   2.118   2.817
 4308TIP3   OH212929   3.267   3.706   2.791
 4308TIP3    H112930   3.290   3.783   2.843
 4308TIP3    H212931   3.324   3.637   2.824
 4309TIP3   OH212932   3.339   4.302   1.036
 4309TIP3    H112933   3.355   4.217   1.076
 4309TIP3    H212934   3.393   4.363   1.085
 4310TIP3   OH212935   0.565   4.048   0.888
 4310TIP3    H112936   0.590   4.106   0.817
 4310TIP3    H212937   0.479   4.080   0.917
 4311TIP3   OH212938   5.345   4.347   1.192
 4311TIP3    H112939   5.274   4.365   1.131
 4311TIP3    H212940   5.312   4.375   1.277
 4312TIP3   OH212941   1.799   0.611   4.842
 4312TIP3    H112942   1.719   0.573   4.807
 4312TIP3    H212943   1.847   0.641   4.765
 4313TIP3   OH212944   2.107   3.993   0.362
 4313TIP3    H112945   2.071   3.958   0.281
 4313TIP3    H212946   2.172   4.057   0.334
 4314TIP3   OH212947   3.532   5.751   4.398
 4314TIP3    H112948   3.468   5.794   4.341
 4314TIP3    H212949   3.479   5.693   4.453
 4315TIP3   OH212950   5.445   0.146   1.013
 4315TIP3    H112951   5.467   0.067   1.062
 4315TIP3    H212952   5.375   0.119   0.954
 4316TIP3   OH212953   2.598   0.678   0.049
 4316TIP3    H112954   2.561   0.736  -0.017
 4316TIP3    H212955   2.572   0.590   0.022
 4317TIP3   OH212956   6.383   3.509   5.126
 4317TIP3    H112957   6.431   3.429   5.104
 4317TIP3    H212958   6.297   3.497   5.086
 4318TIP3   OH212959   1.643   0.967   4.059
 4318TIP3    H112960   1.577   1.027   4.094
 4318TIP3    H212961   1.726   1.013   4.070
 4319TIP3   OH212962   1.693   3.428   2.305
 4319TIP3    H112963   1.746   3.385   2.372
 4319TIP3    H212964   1.750   3.429   2.227
 4320TIP3   OH212965   3.261   1.883   3.782
 4320TIP3    H112966   3.273   1.916   3.871
 4320TIP3    H212967   3.169   1.901   3.763
 4321TIP3   OH212968   5.063   5.079   4.218
 4321TIP3    H112969   4.980   5.032   4.222
 4321TIP3    H212970   5.129   5.015   4.247
 4322TIP3   OH212971   4.463   2.836   2.770
 4322TIP3    H112972   4.510   2.834   2.687
 4322TIP3    H212973   4.410   2.916   2.766
 4323TIP3   OH212974   0.198   4.225   1.613
 4323TIP3    H112975   0.196   4.248   1.706
 4323TIP3    H212976   0.115   4.258   1.578
 4324TIP3   OH212977   1.093   2.684   4.311
 4324TIP3    H112978   1.064   2.683   4.403
 4324TIP3    H212979   1.016   2.712   4.262
 4325TIP3   OH212980   4.572   2.496   2.415
 4325TIP3    H112981   4.616   2.577   2.438
 4325TIP3    H212982   4.528   2.468   2.495
 4326TIP3   OH212983   0.057   1.153   5.193
 4326TIP3    H112984  -0.025   1.134   5.147
 4326TIP3    H212985   0.104   1.213   5.134
 4327TIP3   OH212986   3.316   1.406   3.943
 4327TIP3    H112987   3.324   1.326   3.995
 4327TIP3    H212988   3.369   1.389   3.865
 4328TIP3   OH212989   6.308   0.629   2.265
 4328TIP3    H112990   6.214   0.616   2.277
 4328TIP3    H212991   6.346   0.543   2.277
 4329TIP3   OH212992   3.279   2.384   2.154
 4329TIP3    H112993   3.321   2.382   2.068
 4329TIP3    H212994   3.331   2.447   2.204
 4330TIP3   OH212995   4.679   2.677   3.618
 4330TIP3    H112996   4.601   2.634   3.653
 4330TIP3    H212997   4.658   2.771   3.621
 4331TIP3   OH212998   3.364   2.898   2.628
 4331TIP3    H112999   3.271   2.906   2.607
 4331TIP3    H213000   3.371   2.814   2.674
 4332TIP3   OH213001   1.635   0.815   4.354
 4332TIP3    H113002   1.570   0.884   4.368
 4332TIP3    H213003   1.592   0.753   4.296
 4333TIP3   OH213004   3.646   2.496   3.931
 4333TIP3    H113005   3.726   2.460   3.892
 4333TIP3    H213006   3.641   2.455   4.017
 4334TIP3   OH213007   2.380   1.969   5.139
 4334TIP3    H113008   2.353   2.009   5.056
 4334TIP3    H213009   2.464   2.009   5.158
 4335TIP3   OH213010   4.752   0.901   4.324
 4335TIP3    H113011   4.672   0.952   4.306
 4335TIP3    H213012   4.823   0.962   4.304
 4336TIP3   OH213013   0.771   3.924   1.628
 4336TIP3    H113014   0.740   4.004   1.670
 4336TIP3    H213015   0.692   3.885   1.589
 4337TIP3   OH213016   1.610   5.759   1.064
 4337TIP3    H113017   1.641   5.775   0.974
 4337TIP3    H213018   1.686   5.778   1.119
 4338TIP3   OH213019   2.959   1.058   0.181
 4338TIP3    H113020   2.927   1.114   0.110
 4338TIP3    H213021   2.906   1.082   0.257
 4339TIP3   OH213022   5.442   1.265   3.917
 4339TIP3    H113023   5.465   1.226   4.001
 4339TIP3    H213024   5.524   1.263   3.867
 4340TIP3   OH213025   6.056   4.759   3.042
 4340TIP3    H113026   6.136   4.734   3.087
 4340TIP3    H213027   6.086   4.804   2.963
 4341TIP3   OH213028   2.431   3.423   3.275
 4341TIP3    H113029   2.412   3.455   3.364
 4341TIP3    H213030   2.527   3.424   3.270
 4342TIP3   OH213031   2.600   2.479   3.966
 4342TIP3    H113032   2.677   2.534   3.966
 4342TIP3    H213033   2.533   2.531   4.011
 4343TIP3   OH213034   0.216   2.738   3.450
 4343TIP3    H113035   0.201   2.796   3.525
 4343TIP3    H213036   0.290   2.778   3.404
 4344TIP3   OH213037   3.201   5.867   1.640
 4344TIP3    H113038   3.294   5.873   1.662
 4344TIP3    H213039   3.156   5.910   1.713
 4345TIP3   OH213040   5.886   0.268   1.783
 4345TIP3    H113041   5.977   0.265   1.756
 4345TIP3    H213042   5.836   0.264   1.701
 4346TIP3   OH213043   2.741   4.075   4.504
 4346TIP3    H113044   2.657   4.039   4.476
 4346TIP3    H213045   2.744   4.062   4.598
 4347TIP3   OH213046   3.336   1.122   3.713
 4347TIP3    H113047   3.400   1.173   3.762
 4347TIP3    H213048   3.342   1.034   3.750
 4348TIP3   OH213049   6.094   0.545   3.266
 4348TIP3    H113050   6.044   0.615   3.223
 4348TIP3    H213051   6.158   0.592   3.320
 4349TIP3   OH213052   0.658   4.557   5.221
 4349TIP3    H113053   0.582   4.566   5.163
 4349TIP3    H213054   0.729   4.598   5.172
 4350TIP3   OH213055   4.569   5.936   1.356
 4350TIP3    H113056   4.620   5.926   1.276
 4350TIP3    H213057   4.545   5.847   1.381
 4351TIP3   OH213058   5.178   2.047   0.997
 4351TIP3    H113059   5.189   2.013   1.086
 4351TIP3    H213060   5.083   2.054   0.985
 4352TIP3   OH213061   4.342   3.942   3.892
 4352TIP3    H113062   4.427   3.899   3.900
 4352TIP3    H213063   4.353   4.004   3.820
 4353TIP3   OH213064   2.895   5.723   0.062
 4353TIP3    H113065   2.849   5.807   0.070
 4353TIP3    H213066   2.829   5.662   0.031
 4354TIP3   OH213067   5.166   4.219   5.070
 4354TIP3    H113068   5.117   4.294   5.105
 4354TIP3    H213069   5.098   4.156   5.044
 4355TIP3   OH213070   0.586   3.654   4.147
 4355TIP3    H113071   0.498   3.660   4.108
 4355TIP3    H213072   0.639   3.613   4.079
 4356TIP3   OH213073   6.255   1.016   2.321
 4356TIP3    H113074   6.338   0.969   2.314
 4356TIP3    H213075   6.239   1.050   2.234
 4357TIP3   OH213076   4.923   2.629   1.882
 4357TIP3    H113077   4.869   2.620   1.960
 4357TIP3    H213078   4.876   2.692   1.827
 4358TIP3   OH213079   4.684   5.532   0.385
 4358TIP3    H113080   4.620   5.546   0.314
 4358TIP3    H213081   4.742   5.463   0.351
 4359TIP3   OH213082   5.158   4.673   0.616
 4359TIP3    H113083   5.095   4.701   0.683
 4359TIP3    H213084   5.243   4.690   0.656
 4360TIP3   OH213085   0.162   2.727   3.060
 4360TIP3    H113086   0.149   2.632   3.058
 4360TIP3    H213087   0.084   2.762   3.017
 4361TIP3   OH213088   2.733   0.345   0.731
 4361TIP3    H113089   2.798   0.378   0.668
 4361TIP3    H213090   2.741   0.403   0.806
 4362TIP3   OH213091   2.589   1.363   1.384
 4362TIP3    H113092   2.669   1.313   1.403
 4362TIP3    H213093   2.618   1.454   1.379
 4363TIP3   OH213094   5.814   2.520   4.981
 4363TIP3    H113095   5.899   2.477   4.988
 4363TIP3    H213096   5.811   2.552   4.891
 4364TIP3   OH213097   5.831   0.024   5.022
 4364TIP3    H113098   5.897   0.045   5.088
 4364TIP3    H213099   5.809   0.109   4.983
 4365TIP3   OH213100   1.489   1.156   4.249
 4365TIP3    H113101   1.547   1.219   4.207
 4365TIP3    H213102   1.401   1.187   4.227
 4366TIP3   OH213103   4.204   3.409   3.854
 4366TIP3    H113104   4.261   3.463   3.799
 4366TIP3    H213105   4.219   3.440   3.943
 4367TIP3   OH213106   0.870   5.163   5.198
 4367TIP3    H113107   0.858   5.257   5.200
 4367TIP3    H213108   0.888   5.143   5.106
 4368TIP3   OH213109   4.350   3.745   4.585
 4368TIP3    H113110   4.290   3.818   4.601
 4368TIP3    H213111   4.293   3.672   4.563
 4369TIP3   OH213112   0.247   2.786   0.594
 4369TIP3    H113113   0.326   2.839   0.583
 4369TIP3    H213114   0.278   2.696   0.597
 4370TIP3   OH213115   0.946   5.937   3.657
 4370TIP3    H113116   0.964   5.873   3.588
 4370TIP3    H213117   0.851   5.946   3.657
 4371TIP3   OH213118   5.718   0.928   2.013
 4371TIP3    H113119   5.813   0.938   2.014
 4371TIP3    H213120   5.698   0.879   2.092
 4372TIP3   OH213121   5.441   3.214   4.497
 4372TIP3    H113122   5.530   3.192   4.526
 4372TIP3    H213123   5.451   3.239   4.405
 4373TIP3   OH213124   3.309   2.365   1.867
 4373TIP3    H113125   3.317   2.459   1.857
 4373TIP3    H213126   3.369   2.329   1.801
 4374TIP3   OH213127   1.985   5.781   0.726
 4374TIP3    H113128   1.939   5.698   0.709
 4374TIP3    H213129   1.918   5.837   0.766
 4375TIP3   OH213130   1.584   0.476   2.867
 4375TIP3    H113131   1.616   0.386   2.855
 4375TIP3    H213132   1.524   0.489   2.794
 4376TIP3   OH213133   3.555   4.165   4.684
 4376TIP3    H113134   3.475   4.114   4.674
 4376TIP3    H213135   3.555   4.226   4.611
 4377TIP3   OH213136   0.153   4.180   3.087
 4377TIP3    H113137   0.135   4.094   3.050
 4377TIP3    H213138   0.185   4.161   3.175
 4378TIP3   OH213139   4.197   0.503   4.668
 4378TIP3    H113140   4.146   0.423   4.655
 4378TIP3    H213141   4.287   0.479   4.649
 4379TIP3   OH213142   2.304   3.545   3.514
 4379TIP3    H113143   2.299   3.634   3.480
 4379TIP3    H213144   2.357   3.553   3.594
 4380TIP3   OH213145   2.202   0.252   0.352
 4380TIP3    H113146   2.160   0.289   0.429
 4380TIP3    H213147   2.214   0.159   0.374
 4381TIP3   OH213148   3.564   5.736   3.174
 4381TIP3    H113149   3.469   5.738   3.163
 4381TIP3    H213150   3.596   5.807   3.119
 4382TIP3   OH213151   3.134   3.365   1.419
 4382TIP3    H113152   3.205   3.421   1.390
 4382TIP3    H213153   3.121   3.388   1.511
 4383TIP3   OH213154   3.382   3.348   3.672
 4383TIP3    H113155   3.442   3.275   3.663
 4383TIP3    H213156   3.380   3.366   3.766
 4384TIP3   OH213157   3.946   5.892   3.343
 4384TIP3    H113158   3.861   5.933   3.329
 4384TIP3    H213159   3.962   5.840   3.265
 4385TIP3   OH213160   1.785   5.422   1.069
 4385TIP3    H113161   1.705   5.453   1.110
 4385TIP3    H213162   1.845   5.497   1.073
 4386TIP3   OH213163   4.734   0.303   0.167
 4386TIP3    H113164   4.754   0.391   0.196
 4386TIP3    H213165   4.779   0.246   0.229
 4387TIP3   OH213166   1.297   5.510   1.648
 4387TIP3    H113167   1.280   5.597   1.613
 4387TIP3    H213168   1.211   5.468   1.650
 4388TIP3   OH213169   4.869   3.679   0.788
 4388TIP3    H113170   4.837   3.620   0.857
 4388TIP3    H213171   4.895   3.620   0.717
 4389TIP3   OH213172   0.682   4.449   0.878
 4389TIP3    H113173   0.772   4.476   0.900
 4389TIP3    H213174   0.658   4.388   0.947
 4390TIP3   OH213175   3.629   5.682   3.442
 4390TIP3    H113176   3.556   5.688   3.504
 4390TIP3    H213177   3.587   5.675   3.356
 4391TIP3   OH213178   6.209   1.312   4.997
 4391TIP3    H113179   6.151   1.352   4.932
 4391TIP3    H213180   6.163   1.233   5.025
 4392TIP3   OH213181   1.816   5.477   2.541
 4392TIP3    H113182   1.834   5.533   2.466
 4392TIP3    H213183   1.744   5.520   2.587
 4393TIP3   OH213184   0.464   3.427   1.303
 4393TIP3    H113185   0.412   3.392   1.375
 4393TIP3    H213186   0.553   3.431   1.338
 4394TIP3   OH213187   2.688   3.222   1.856
 4394TIP3    H113188   2.598   3.191   1.857
 4394TIP3    H213189   2.685   3.304   1.806
 4395TIP3   OH213190   1.998   4.702   0.236
 4395TIP3    H113191   1.981   4.701   0.142
 4395TIP3    H213192   2.054   4.625   0.250
 4396TIP3   OH213193   3.672   5.231   0.154
 4396TIP3    H113194   3.666   5.283   0.073
 4396TIP3    H213195   3.693   5.296   0.222
 4397TIP3   OH213196   1.236   0.994   0.339
 4397TIP3    H113197   1.234   1.066   0.276
 4397TIP3    H213198   1.319   1.003   0.385
 4398TIP3   OH213199   3.406   5.499   3.437
 4398TIP3    H113200   3.318   5.462   3.429
 4398TIP3    H213201   3.408   5.536   3.525
 4399TIP3   OH213202   4.761   1.720   0.759
 4399TIP3    H113203   4.700   1.659   0.801
 4399TIP3    H213204   4.739   1.715   0.666
 4400TIP3   OH213205   4.894   1.063   4.893
 4400TIP3    H113206   4.831   0.994   4.916
 4400TIP3    H213207   4.867   1.138   4.946
 4401TIP3   OH213208   3.791   0.729   4.249
 4401TIP3    H113209   3.733   0.804   4.231
 4401TIP3    H213210   3.842   0.757   4.325
 4402TIP3   OH213211   5.637   2.213   1.345
 4402TIP3    H113212   5.723   2.215   1.387
 4402TIP3    H213213   5.582   2.163   1.405
 4403TIP3   OH213214   5.760   3.457   3.480
 4403TIP3    H113215   5.830   3.513   3.514
 4403TIP3    H213216   5.804   3.394   3.424
 4404TIP3   OH213217   3.433   2.969   1.771
 4404TIP3    H113218   3.443   3.038   1.704
 4404TIP3    H213219   3.368   2.910   1.735
 4405TIP3   OH213220   2.730   5.653   1.545
 4405TIP3    H113221   2.801   5.596   1.516
 4405TIP3    H213222   2.700   5.614   1.628
 4406TIP3   OH213223   3.898   4.637   0.212
 4406TIP3    H113224   3.893   4.683   0.296
 4406TIP3    H213225   3.811   4.649   0.173
 4407TIP3   OH213226   5.142   3.733   3.052
 4407TIP3    H113227   5.218   3.702   3.003
 4407TIP3    H213228   5.130   3.823   3.022
 4408TIP3   OH213229   3.564   4.746   1.155
 4408TIP3    H113230   3.599   4.822   1.109
 4408TIP3    H213231   3.608   4.746   1.240
 4409TIP3   OH213232   0.909   4.519   0.294
 4409TIP3    H113233   0.895   4.589   0.231
 4409TIP3    H213234   0.945   4.447   0.243
 4410TIP3   OH213235   0.595   1.698   2.894
 4410TIP3    H113236   0.646   1.699   2.975
 4410TIP3    H213237   0.557   1.786   2.889
 4411TIP3   OH213238   3.094   3.586   0.966
 4411TIP3    H113239   3.039   3.508   0.954
 4411TIP3    H213240   3.094   3.629   0.880
 4412TIP3   OH213241   5.236   5.970   2.700
 4412TIP3    H113242   5.143   5.990   2.685
 4412TIP3    H213243   5.271   6.050   2.739
 4413TIP3   OH213244   2.132   5.493   2.438
 4413TIP3    H113245   2.113   5.400   2.434
 4413TIP3    H213246   2.062   5.535   2.387
 4414TIP3   OH213247   3.202   5.905   1.218
 4414TIP3    H113248   3.125   5.852   1.195
 4414TIP3    H213249   3.234   5.866   1.300
 4415TIP3   OH213250   1.645   4.815   5.128
 4415TIP3    H113251   1.576   4.750   5.143
 4415TIP3    H213252   1.661   4.813   5.034
 4416TIP3   OH213253   0.200   1.724   1.764
 4416TIP3    H113254   0.114   1.719   1.723
 4416TIP3    H213255   0.183   1.759   1.851
 4417TIP3   OH213256   5.552   4.230   2.817
 4417TIP3    H113257   5.543   4.200   2.727
 4417TIP3    H213258   5.501   4.311   2.821
 4418TIP3   OH213259   1.969   0.823   2.644
 4418TIP3    H113260   1.977   0.779   2.560
 4418TIP3    H213261   2.004   0.911   2.629
 4419TIP3   OH213262   0.378   2.521   0.218
 4419TIP3    H113263   0.324   2.454   0.261
 4419TIP3    H213264   0.428   2.561   0.289
 4420TIP3   OH213265   5.791   3.246   3.842
 4420TIP3    H113266   5.773   3.336   3.870
 4420TIP3    H213267   5.858   3.216   3.903
 4421TIP3   OH213268   2.603   4.149   0.723
 4421TIP3    H113269   2.585   4.076   0.664
 4421TIP3    H213270   2.667   4.115   0.786
 4422TIP3   OH213271   4.093   0.341   3.849
 4422TIP3    H113272   4.157   0.295   3.903
 4422TIP3    H213273   4.030   0.376   3.912
 4423TIP3   OH213274   1.363   2.578   1.031
 4423TIP3    H113275   1.378   2.500   1.084
 4423TIP3    H213276   1.446   2.626   1.034
 4424TIP3   OH213277   6.062   0.458   2.997
 4424TIP3    H113278   6.079   0.466   3.091
 4424TIP3    H213279   6.082   0.545   2.962
 4425TIP3   OH213280   3.916   0.178   1.914
 4425TIP3    H113281   3.823   0.189   1.893
 4425TIP3    H213282   3.957   0.153   1.831
 4426TIP3   OH213283   0.124   2.849   4.443
 4426TIP3    H113284   0.047   2.791   4.444
 4426TIP3    H213285   0.088   2.937   4.439
 4427TIP3   OH213286   1.990   0.087   4.081
 4427TIP3    H113287   2.029   0.065   4.166
 4427TIP3    H213288   2.048   0.047   4.016
 4428TIP3   OH213289   2.053   2.771   3.308
 4428TIP3    H113290   2.136   2.726   3.318
 4428TIP3    H213291   2.065   2.855   3.352
 4429TIP3   OH213292   1.439   0.470   2.581
 4429TIP3    H113293   1.366   0.431   2.533
 4429TIP3    H213294   1.405   0.555   2.610
 4430TIP3   OH213295   5.890   5.794   0.124
 4430TIP3    H113296   5.885   5.837   0.210
 4430TIP3    H213297   5.975   5.821   0.089
 4431TIP3   OH213298   3.540   3.731   1.673
 4431TIP3    H113299   3.602   3.711   1.743
 4431TIP3    H213300   3.477   3.658   1.674
 4432TIP3   OH213301   3.333   1.685   3.241
 4432TIP3    H113302   3.312   1.618   3.307
 4432TIP3    H213303   3.254   1.739   3.235
 4433TIP3   OH213304   5.541   3.969   0.913
 4433TIP3    H113305   5.612   3.912   0.941
 4433TIP3    H213306   5.533   3.953   0.818
 4434TIP3   OH213307   0.639   0.276   5.128
 4434TIP3    H113308   0.620   0.236   5.212
 4434TIP3    H213309   0.695   0.351   5.149
 4435TIP3   OH213310   1.571   1.774   1.138
 4435TIP3    H113311   1.559   1.819   1.221
 4435TIP3    H213312   1.664   1.751   1.136
 4436TIP3   OH213313   5.900   4.171   3.202
 4436TIP3    H113314   5.818   4.197   3.161
 4436TIP3    H213315   5.920   4.242   3.263
 4437TIP3   OH213316   2.426   5.537   3.731
 4437TIP3    H113317   2.390   5.568   3.815
 4437TIP3    H213318   2.477   5.612   3.699
 4438TIP3   OH213319   3.017   3.985   4.736
 4438TIP3    H113320   3.017   3.947   4.824
 4438TIP3    H213321   2.951   3.934   4.689
 4439TIP3   OH213322   1.496   4.812   3.974
 4439TIP3    H113323   1.462   4.782   3.890
 4439TIP3    H213324   1.427   4.868   4.009
 4440TIP3   OH213325   4.387   5.109   0.756
 4440TIP3    H113326   4.378   5.014   0.744
 4440TIP3    H213327   4.316   5.133   0.815
 4441TIP3   OH213328   4.843   3.202   4.771
 4441TIP3    H113329   4.866   3.249   4.691
 4441TIP3    H213330   4.751   3.224   4.786
 4442TIP3   OH213331   0.420   1.865   1.618
 4442TIP3    H113332   0.355   1.813   1.665
 4442TIP3    H213333   0.450   1.929   1.682
 4443TIP3   OH213334   0.092   0.708   2.530
 4443TIP3    H113335   0.037   0.733   2.456
 4443TIP3    H213336   0.181   0.715   2.497
 4444TIP3   OH213337   5.369   1.399   1.897
 4444TIP3    H113338   5.335   1.488   1.896
 4444TIP3    H213339   5.351   1.366   1.809
 4445TIP3   OH213340   5.086   0.567   1.971
 4445TIP3    H113341   5.065   0.609   2.054
 4445TIP3    H213342   5.057   0.629   1.904
 4446TIP3   OH213343   1.624   1.599   3.627
 4446TIP3    H113344   1.545   1.593   3.681
 4446TIP3    H213345   1.635   1.693   3.612
 4447TIP3   OH213346   0.524   3.531   1.881
 4447TIP3    H113347   0.502   3.458   1.822
 4447TIP3    H213348   0.606   3.505   1.922
 4448TIP3   OH213349   3.386   3.401   4.314
 4448TIP3    H113350   3.320   3.354   4.263
 4448TIP3    H213351   3.388   3.489   4.276
 4449TIP3   OH213352   0.979   2.358   3.118
 4449TIP3    H113353   0.994   2.367   3.024
 4449TIP3    H213354   1.004   2.443   3.155
 4450TIP3   OH213355   3.020   5.524   2.461
 4450TIP3    H113356   2.989   5.435   2.474
 4450TIP3    H213357   3.053   5.551   2.547
 4451TIP3   OH213358   0.544   0.919   1.976
 4451TIP3    H113359   0.498   0.867   1.909
 4451TIP3    H213360   0.633   0.925   1.944
 4452TIP3   OH213361   0.717   4.815   4.714
 4452TIP3    H113362   0.765   4.893   4.684
 4452TIP3    H213363   0.774   4.742   4.689
 4453TIP3   OH213364   3.721   4.333   2.718
 4453TIP3    H113365   3.752   4.417   2.754
 4453TIP3    H213366   3.628   4.347   2.703
 4454TIP3   OH213367   3.195   2.015   0.295
 4454TIP3    H113368   3.158   1.972   0.373
 4454TIP3    H213369   3.222   1.942   0.239
 4455TIP3   OH213370   3.925   4.018   4.437
 4455TIP3    H113371   3.850   3.960   4.426
 4455TIP3    H213372   3.959   3.998   4.524
 4456TIP3   OH213373   4.950   5.510   3.263
 4456TIP3    H113374   4.896   5.433   3.242
 4456TIP3    H213375   4.951   5.513   3.358
 4457TIP3   OH213376   5.767   3.856   4.596
 4457TIP3    H113377   5.684   3.858   4.548
 4457TIP3    H213378   5.763   3.932   4.653
 4458TIP3   OH213379   4.870   2.930   4.731
 4458TIP3    H113380   4.851   3.022   4.713
 4458TIP3    H213381   4.851   2.886   4.648
 4459TIP3   OH213382   1.096   1.419   1.860
 4459TIP3    H113383   1.105   1.325   1.840
 4459TIP3    H213384   1.178   1.442   1.903
 4460TIP3   OH213385   2.717   0.219   3.798
 4460TIP3    H113386   2.685   0.167   3.871
 4460TIP3    H213387   2.649   0.285   3.784
 4461TIP3   OH213388   1.908   2.848   4.365
 4461TIP3    H113389   1.880   2.773   4.418
 4461TIP3    H213390   1.896   2.924   4.421
 4462TIP3   OH213391   5.288   3.256   0.220
 4462TIP3    H113392   5.369   3.270   0.171
 4462TIP3    H213393   5.310   3.279   0.310
 4463TIP3   OH213394   2.487   0.435   4.237
 4463TIP3    H113395   2.530   0.439   4.322
 4463TIP3    H213396   2.409   0.489   4.246
 4464TIP3   OH213397   1.135   5.699   3.957
 4464TIP3    H113398   1.111   5.617   3.915
 4464TIP3    H213399   1.228   5.690   3.977
 4465TIP3   OH213400   4.312   0.847   1.607
 4465TIP3    H113401   4.349   0.887   1.685
 4465TIP3    H213402   4.365   0.768   1.594
 4466TIP3   OH213403   5.891   4.494   3.722
 4466TIP3    H113404   5.830   4.566   3.739
 4466TIP3    H213405   5.964   4.535   3.676
 4467TIP3   OH213406   1.831   1.724   4.383
 4467TIP3    H113407   1.809   1.707   4.474
 4467TIP3    H213408   1.817   1.641   4.338
 4468TIP3   OH213409   0.716   4.626   2.895
 4468TIP3    H113410   0.665   4.568   2.838
 4468TIP3    H213411   0.795   4.576   2.916
 4469TIP3   OH213412   3.180   4.011   1.793
 4469TIP3    H113413   3.173   4.087   1.736
 4469TIP3    H213414   3.274   4.003   1.812
 4470TIP3   OH213415   1.209   5.222   0.028
 4470TIP3    H113416   1.187   5.313   0.046
 4470TIP3    H213417   1.299   5.212   0.059
 4471TIP3   OH213418   2.632   4.868   1.307
 4471TIP3    H113419   2.641   4.946   1.251
 4471TIP3    H213420   2.704   4.874   1.369
 4472TIP3   OH213421   5.169   2.147   0.507
 4472TIP3    H113422   5.209   2.129   0.592
 4472TIP3    H213423   5.128   2.233   0.518
 4473TIP3   OH213424   5.367   4.578   3.381
 4473TIP3    H113425   5.445   4.523   3.394
 4473TIP3    H213426   5.343   4.564   3.290
 4474TIP3   OH213427   2.368   3.943   1.763
 4474TIP3    H113428   2.310   3.978   1.696
 4474TIP3    H213429   2.456   3.965   1.733
 4475TIP3   OH213430   5.256   0.123   0.820
 4475TIP3    H113431   5.201   0.175   0.762
 4475TIP3    H213432   5.198   0.100   0.893
 4476TIP3   OH213433   4.994   5.422   3.849
 4476TIP3    H113434   4.980   5.517   3.845
 4476TIP3    H213435   4.946   5.395   3.927
 4477TIP3   OH213436   6.116   2.612   4.609
 4477TIP3    H113437   6.051   2.576   4.548
 4477TIP3    H213438   6.193   2.556   4.597
 4478TIP3   OH213439   4.658   1.328   4.371
 4478TIP3    H113440   4.570   1.364   4.362
 4478TIP3    H213441   4.645   1.241   4.408
 4479TIP3   OH213442   2.986   3.135   4.507
 4479TIP3    H113443   2.930   3.058   4.519
 4479TIP3    H213444   3.048   3.110   4.439
 4480TIP3   OH213445   3.085   3.223   0.044
 4480TIP3    H113446   3.125   3.283  -0.019
 4480TIP3    H213447   3.034   3.162  -0.010
 4481TIP3   OH213448   0.645   5.377   2.337
 4481TIP3    H113449   0.565   5.329   2.317
 4481TIP3    H213450   0.617   5.468   2.346
 4482TIP3   OH213451   1.679   0.859   3.793
 4482TIP3    H113452   1.669   0.953   3.775
 4482TIP3    H213453   1.679   0.853   3.889
 4483TIP3   OH213454   2.297   3.338   0.237
 4483TIP3    H113455   2.364   3.276   0.206
 4483TIP3    H213456   2.325   3.423   0.203
 4484TIP3   OH213457   5.140   1.456   4.232
 4484TIP3    H113458   5.192   1.376   4.220
 4484TIP3    H213459   5.050   1.428   4.216
 4485TIP3   OH213460   3.936   4.596   3.687
 4485TIP3    H113461   3.866   4.543   3.725
 4485TIP3    H213462   4.003   4.601   3.756
 4486TIP3   OH213463   4.265   2.060   4.604
 4486TIP3    H113464   4.255   2.121   4.531
 4486TIP3    H213465   4.176   2.037   4.628
 4487TIP3   OH213466   1.636   1.932   2.377
 4487TIP3    H113467   1.650   1.865   2.309
 4487TIP3    H213468   1.542   1.950   2.373
 4488TIP3   OH213469   6.182   3.075   1.240
 4488TIP3    H113470   6.248   3.121   1.292
 4488TIP3    H213471   6.100   3.086   1.288
 4489TIP3   OH213472   2.818   3.120   2.755
 4489TIP3    H113473   2.850   3.207   2.779
 4489TIP3    H213474   2.849   3.106   2.666
 4490TIP3   OH213475   4.845   2.168   3.062
 4490TIP3    H113476   4.860   2.258   3.033
 4490TIP3    H213477   4.897   2.160   3.142
 4491TIP3   OH213478   6.066   1.671   1.764
 4491TIP3    H113479   5.987   1.668   1.710
 4491TIP3    H213480   6.036   1.699   1.850
 4492TIP3   OH213481   0.857   4.844   2.537
 4492TIP3    H113482   0.817   4.844   2.450
 4492TIP3    H213483   0.897   4.758   2.546
 4493TIP3   OH213484   6.310   1.681   4.228
 4493TIP3    H113485   6.244   1.727   4.177
 4493TIP3    H213486   6.366   1.750   4.264
 4494TIP3   OH213487   3.973   4.321   5.116
 4494TIP3    H113488   3.975   4.254   5.047
 4494TIP3    H213489   4.013   4.398   5.075
 4495TIP3   OH213490   4.162   0.154   0.597
 4495TIP3    H113491   4.223   0.225   0.612
 4495TIP3    H213492   4.120   0.176   0.513
 4496TIP3   OH213493   0.506   1.967   2.863
 4496TIP3    H113494   0.516   1.978   2.768
 4496TIP3    H213495   0.524   2.054   2.899
 4497TIP3   OH213496   2.806   0.543   5.080
 4497TIP3    H113497   2.799   0.619   5.137
 4497TIP3    H213498   2.740   0.482   5.113
 4498TIP3   OH213499  -0.006   4.237   2.635
 4498TIP3    H113500   0.078   4.194   2.648
 4498TIP3    H213501  -0.030   4.270   2.721
 4499TIP3   OH213502   1.442   2.758   0.091
 4499TIP3    H113503   1.399   2.834   0.131
 4499TIP3    H213504   1.449   2.694   0.162
 4500TIP3   OH213505   4.927   3.757   2.774
 4500TIP3    H113506   4.870   3.759   2.697
 4500TIP3    H213507   4.869   3.779   2.847
 4501TIP3   OH213508   1.820   5.430   4.393
 4501TIP3    H113509   1.804   5.357   4.333
 4501TIP3    H213510   1.896   5.475   4.357
 4502TIP3   OH213511   1.559   0.306   4.244
 4502TIP3    H113512   1.562   0.210   4.243
 4502TIP3    H213513   1.548   0.330   4.152
 4503TIP3   OH213514   5.599   0.869   3.197
 4503TIP3    H113515   5.581   0.826   3.114
 4503TIP3    H213516   5.522   0.922   3.215
 4504TIP3   OH213517   4.465   0.825   0.849
 4504TIP3    H113518   4.450   0.846   0.941
 4504TIP3    H213519   4.553   0.787   0.847
 4505TIP3   OH213520   2.988   4.752   4.124
 4505TIP3    H113521   2.898   4.718   4.124
 4505TIP3    H213522   3.015   4.749   4.033
 4506TIP3   OH213523   4.424   4.608   1.181
 4506TIP3    H113524   4.331   4.589   1.184
 4506TIP3    H213525   4.432   4.697   1.216
 4507TIP3   OH213526   0.684   5.277   4.157
 4507TIP3    H113527   0.667   5.336   4.084
 4507TIP3    H213528   0.729   5.202   4.118
 4508TIP3   OH213529   5.446   5.245   4.382
 4508TIP3    H113530   5.372   5.290   4.423
 4508TIP3    H213531   5.482   5.190   4.452
 4509TIP3   OH213532   4.556   3.152   1.428
 4509TIP3    H113533   4.599   3.207   1.363
 4509TIP3    H213534   4.573   3.063   1.398
 4510TIP3   OH213535   2.571   2.699   1.295
 4510TIP3    H113536   2.660   2.664   1.282
 4510TIP3    H213537   2.519   2.623   1.320
 4511TIP3   OH213538   0.181   3.273   5.077
 4511TIP3    H113539   0.187   3.220   4.997
 4511TIP3    H213540   0.271   3.292   5.100
 4512TIP3   OH213541   5.738   1.361   3.482
 4512TIP3    H113542   5.675   1.299   3.446
 4512TIP3    H213543   5.740   1.433   3.419
 4513TIP3   OH213544   6.376   0.195   3.983
 4513TIP3    H113545   6.357   0.215   4.074
 4513TIP3    H213546   6.348   0.272   3.935
 4514TIP3   OH213547   5.054   0.209   5.008
 4514TIP3    H113548   5.095   0.127   5.037
 4514TIP3    H213549   5.085   0.275   5.070
 4515TIP3   OH213550   3.200   3.135   3.524
 4515TIP3    H113551   3.186   3.178   3.608
 4515TIP3    H213552   3.124   3.160   3.471
 4516TIP3   OH213553   0.001   5.467   1.119
 4516TIP3    H113554  -0.058   5.402   1.157
 4516TIP3    H213555   0.076   5.470   1.180
 4517TIP3   OH213556   3.861   3.438   1.566
 4517TIP3    H113557   3.788   3.382   1.541
 4517TIP3    H213558   3.848   3.518   1.514
 4518TIP3   OH213559   0.455   4.143   5.089
 4518TIP3    H113560   0.492   4.172   5.172
 4518TIP3    H213561   0.417   4.222   5.050
 4519TIP3   OH213562   4.736   3.585   3.714
 4519TIP3    H113563   4.784   3.510   3.749
 4519TIP3    H213564   4.677   3.549   3.649
 4520TIP3   OH213565   2.807   1.615   4.249
 4520TIP3    H113566   2.877   1.561   4.286
 4520TIP3    H213567   2.755   1.642   4.325
 4521TIP3   OH213568   1.188   1.895   3.856
 4521TIP3    H113569   1.108   1.843   3.869
 4521TIP3    H213570   1.234   1.849   3.785
 4522TIP3   OH213571   5.815   3.659   4.969
 4522TIP3    H113572   5.750   3.724   4.941
 4522TIP3    H213573   5.823   3.673   5.063
 4523TIP3   OH213574   0.779   0.982   3.619
 4523TIP3    H113575   0.833   0.923   3.671
 4523TIP3    H213576   0.716   1.018   3.681
 4524TIP3   OH213577   4.636   4.748   4.900
 4524TIP3    H113578   4.674   4.836   4.891
 4524TIP3    H213579   4.640   4.711   4.812
 4525TIP3   OH213580   4.141   3.891   4.659
 4525TIP3    H113581   4.118   3.981   4.634
 4525TIP3    H213582   4.064   3.839   4.634
 4526TIP3   OH213583   5.163   5.457   3.484
 4526TIP3    H113584   5.237   5.453   3.422
 4526TIP3    H213585   5.165   5.373   3.529
 4527TIP3   OH213586   4.146   2.928   1.787
 4527TIP3    H113587   4.062   2.922   1.743
 4527TIP3    H213588   4.206   2.878   1.732
 4528TIP3   OH213589   4.443   2.679   3.217
 4528TIP3    H113590   4.514   2.640   3.166
 4528TIP3    H213591   4.404   2.605   3.264
 4529TIP3   OH213592   1.316   2.196   0.908
 4529TIP3    H113593   1.391   2.174   0.962
 4529TIP3    H213594   1.342   2.274   0.860
 4530TIP3   OH213595   0.638   1.039   4.562
 4530TIP3    H113596   0.613   1.119   4.515
 4530TIP3    H213597   0.611   0.969   4.503
 4531TIP3   OH213598   3.582   4.038   0.055
 4531TIP3    H113599   3.525   3.991  -0.007
 4531TIP3    H213600   3.651   3.975   0.075
 4532TIP3   OH213601   3.970   5.082   0.830
 4532TIP3    H113602   3.946   5.061   0.740
 4532TIP3    H213603   3.899   5.137   0.862
 4533TIP3   OH213604   5.654   4.442   4.715
 4533TIP3    H113605   5.626   4.389   4.790
 4533TIP3    H213606   5.749   4.426   4.710
 4534TIP3   OH213607   4.761   4.750   0.833
 4534TIP3    H113608   4.696   4.707   0.889
 4534TIP3    H213609   4.709   4.794   0.766
 4535TIP3   OH213610   3.770   5.585   4.912
 4535TIP3    H113611   3.815   5.625   4.837
 4535TIP3    H213612   3.784   5.646   4.984
 4536TIP3   OH213613   4.753   2.321   2.838
 4536TIP3    H113614   4.709   2.272   2.769
 4536TIP3    H213615   4.837   2.345   2.800
 4537TIP3   OH213616   0.337   3.216   3.658
 4537TIP3    H113617   0.400   3.265   3.605
 4537TIP3    H213618   0.384   3.193   3.738
 4538TIP3   OH213619   2.600   0.162   0.463
 4538TIP3    H113620   2.638   0.232   0.410
 4538TIP3    H213621   2.671   0.134   0.521
 4539TIP3   OH213622   4.144   1.445   2.891
 4539TIP3    H113623   4.171   1.464   2.981
 4539TIP3    H213624   4.185   1.514   2.839
 4540TIP3   OH213625   1.644   2.751   2.028
 4540TIP3    H113626   1.705   2.812   2.071
 4540TIP3    H213627   1.561   2.765   2.073
 4541TIP3   OH213628   5.789   3.773   4.190
 4541TIP3    H113629   5.773   3.788   4.097
 4541TIP3    H213630   5.883   3.784   4.201
 4542TIP3   OH213631   2.008   5.569   3.589
 4542TIP3    H113632   1.990   5.662   3.577
 4542TIP3    H213633   1.976   5.549   3.677
 4543TIP3   OH213634   4.713   4.541   0.264
 4543TIP3    H113635   4.638   4.558   0.207
 4543TIP3    H213636   4.675   4.540   0.352
 4544TIP3   OH213637   2.478   3.719   2.976
 4544TIP3    H113638   2.399   3.709   2.922
 4544TIP3    H213639   2.476   3.644   3.035
 4545TIP3   OH213640   4.664   0.898   4.909
 4545TIP3    H113641   4.655   0.843   4.831
 4545TIP3    H213642   4.629   0.983   4.882
 4546TIP3   OH213643   6.129   4.971   1.887
 4546TIP3    H113644   6.072   4.995   1.960
 4546TIP3    H213645   6.185   5.048   1.875
 4547TIP3   OH213646   0.007   5.930   2.459
 4547TIP3    H113647   0.040   5.895   2.542
 4547TIP3    H213648   0.074   5.907   2.395
 4548TIP3   OH213649   4.474   2.405   0.214
 4548TIP3    H113650   4.569   2.421   0.217
 4548TIP3    H213651   4.437   2.487   0.182
 4549TIP3   OH213652   1.744   4.402   3.415
 4549TIP3    H113653   1.814   4.467   3.418
 4549TIP3    H213654   1.673   4.445   3.367
 4550TIP3   OH213655   4.983   0.430   0.487
 4550TIP3    H113656   5.051   0.405   0.550
 4550TIP3    H213657   4.911   0.462   0.541
 4551TIP3   OH213658   5.878   1.097   3.048
 4551TIP3    H113659   5.836   1.072   3.130
 4551TIP3    H213660   5.969   1.069   3.058
 4552TIP3   OH213661   2.625   5.461   0.917
 4552TIP3    H113662   2.606   5.367   0.914
 4552TIP3    H213663   2.683   5.471   0.992
 4553TIP3   OH213664   5.952   1.805   2.596
 4553TIP3    H113665   5.960   1.888   2.643
 4553TIP3    H213666   5.880   1.819   2.535
 4554TIP3   OH213667   3.190   2.859   0.605
 4554TIP3    H113668   3.153   2.779   0.567
 4554TIP3    H213669   3.153   2.863   0.693
 4555TIP3   OH213670   6.163   0.672   1.864
 4555TIP3    H113671   6.190   0.696   1.775
 4555TIP3    H213672   6.229   0.713   1.920
 4556TIP3   OH213673   1.998   1.130   0.064
 4556TIP3    H113674   2.085   1.156   0.032
 4556TIP3    H213675   1.937   1.183   0.013
 4557TIP3   OH213676   3.036   3.783   1.903
 4557TIP3    H113677   3.036   3.819   1.992
 4557TIP3    H213678   3.080   3.849   1.850
 4558TIP3   OH213679   1.171   1.417   3.326
 4558TIP3    H113680   1.238   1.440   3.389
 4558TIP3    H213681   1.132   1.500   3.300
 4559TIP3   OH213682   4.106   5.577   4.874
 4559TIP3    H113683   4.165   5.516   4.830
 4559TIP3    H213684   4.075   5.530   4.951
 4560TIP3   OH213685   5.547   4.627   4.893
 4560TIP3    H113686   5.571   4.581   4.813
 4560TIP3    H213687   5.578   4.570   4.964
 4561TIP3   OH213688   2.539   3.540   2.196
 4561TIP3    H113689   2.455   3.584   2.204
 4561TIP3    H213690   2.578   3.546   2.283
 4562TIP3   OH213691   1.813   2.775   3.201
 4562TIP3    H113692   1.830   2.865   3.171
 4562TIP3    H213693   1.882   2.757   3.264
 4563TIP3   OH213694   4.730   0.243   4.589
 4563TIP3    H113695   4.722   0.301   4.666
 4563TIP3    H213696   4.823   0.247   4.565
 4564TIP3   OH213697   1.926   3.602   2.938
 4564TIP3    H113698   1.902   3.526   2.885
 4564TIP3    H213699   1.915   3.676   2.880
 4565TIP3   OH213700   1.127   2.041   3.109
 4565TIP3    H113701   1.034   2.031   3.088
 4565TIP3    H213702   1.163   2.090   3.035
 4566TIP3   OH213703   4.528   4.566   4.284
 4566TIP3    H113704   4.476   4.550   4.205
 4566TIP3    H213705   4.618   4.548   4.257
 4567TIP3   OH213706   4.552   5.750   3.232
 4567TIP3    H113707   4.519   5.670   3.192
 4567TIP3    H213708   4.647   5.746   3.221
 4568TIP3   OH213709   3.846   3.801   0.873
 4568TIP3    H113710   3.916   3.863   0.852
 4568TIP3    H213711   3.817   3.826   0.961
 4569TIP3   OH213712   2.745   3.325   0.523
 4569TIP3    H113713   2.659   3.299   0.492
 4569TIP3    H213714   2.753   3.285   0.609
 4570TIP3   OH213715   2.369   3.685   4.680
 4570TIP3    H113716   2.287   3.659   4.639
 4570TIP3    H213717   2.385   3.619   4.748
 4571TIP3   OH213718   3.158   4.223   0.223
 4571TIP3    H113719   3.156   4.313   0.192
 4571TIP3    H213720   3.112   4.173   0.156
 4572TIP3   OH213721   0.937   0.665   3.419
 4572TIP3    H113722   1.031   0.658   3.403
 4572TIP3    H213723   0.906   0.574   3.420
 4573TIP3   OH213724   2.796   3.559   2.102
 4573TIP3    H113725   2.718   3.503   2.100
 4573TIP3    H213726   2.823   3.566   2.010
 4574TIP3   OH213727   2.669   2.442   3.634
 4574TIP3    H113728   2.746   2.438   3.690
 4574TIP3    H213729   2.648   2.536   3.629
 4575TIP3   OH213730   2.123   4.770   1.819
 4575TIP3    H113731   2.098   4.862   1.821
 4575TIP3    H213732   2.161   4.757   1.733
 4576TIP3   OH213733   1.493   1.001   0.476
 4576TIP3    H113734   1.521   1.009   0.567
 4576TIP3    H213735   1.500   1.090   0.441
 4577TIP3   OH213736   4.099   1.132   1.338
 4577TIP3    H113737   4.193   1.111   1.343
 4577TIP3    H213738   4.069   1.085   1.260
 4578TIP3   OH213739   5.078   0.444   5.158
 4578TIP3    H113740   5.141   0.479   5.222
 4578TIP3    H213741   5.078   0.508   5.087
 4579TIP3   OH213742   3.939   0.787   4.458
 4579TIP3    H113743   3.967   0.826   4.541
 4579TIP3    H213744   3.903   0.702   4.482
 4580TIP3   OH213745   4.983   0.746   5.115
 4580TIP3    H113746   5.011   0.740   5.206
 4580TIP3    H213747   4.894   0.781   5.119
 4581TIP3   OH213748   1.707   3.640   5.108
 4581TIP3    H113749   1.689   3.729   5.138
 4581TIP3    H213750   1.624   3.593   5.121
 4582TIP3   OH213751   4.877   2.368   0.842
 4582TIP3    H113752   4.940   2.439   0.827
 4582TIP3    H213753   4.809   2.382   0.775
 4583TIP3   OH213754   1.351   4.331   4.963
 4583TIP3    H113755   1.421   4.380   5.006
 4583TIP3    H213756   1.273   4.385   4.973
 4584TIP3   OH213757   3.232   4.471   0.141
 4584TIP3    H113758   3.295   4.516   0.085
 4584TIP3    H213759   3.147   4.506   0.115
 4585TIP3   OH213760   4.429   2.641   4.017
 4585TIP3    H113761   4.521   2.665   4.028
 4585TIP3    H213762   4.387   2.668   4.099
 4586TIP3   OH213763   6.336   2.940   0.222
 4586TIP3    H113764   6.379   2.874   0.276
 4586TIP3    H213765   6.291   2.997   0.285
 4587TIP3   OH213766   3.498   5.800   0.759
 4587TIP3    H113767   3.526   5.783   0.849
 4587TIP3    H213768   3.520   5.720   0.711
 4588TIP3   OH213769   6.023   4.927   0.901
 4588TIP3    H113770   5.945   4.981   0.915
 4588TIP3    H213771   6.016   4.898   0.810
 4589TIP3   OH213772   1.458   2.509   4.813
 4589TIP3    H113773   1.437   2.540   4.725
 4589TIP3    H213774   1.503   2.582   4.855
 4590TIP3   OH213775   5.241   3.519   2.439
 4590TIP3    H113776   5.263   3.428   2.457
 4590TIP3    H213777   5.198   3.550   2.518
 4591TIP3   OH213778   1.586   1.789   4.224
 4591TIP3    H113779   1.651   1.849   4.259
 4591TIP3    H213780   1.569   1.728   4.296
 4592TIP3   OH213781   0.117   1.054   4.897
 4592TIP3    H113782   0.161   1.136   4.918
 4592TIP3    H213783   0.149   1.032   4.809
 4593TIP3   OH213784   1.407   1.574   3.785
 4593TIP3    H113785   1.343   1.509   3.757
 4593TIP3    H213786   1.394   1.583   3.879
 4594TIP3   OH213787   5.794   4.102   1.812
 4594TIP3    H113788   5.873   4.147   1.843
 4594TIP3    H213789   5.826   4.024   1.768
 4595TIP3   OH213790   2.982   2.088   2.524
 4595TIP3    H113791   2.899   2.047   2.549
 4595TIP3    H213792   3.048   2.022   2.545
 4596TIP3   OH213793   2.019   4.297   2.973
 4596TIP3    H113794   1.946   4.251   2.932
 4596TIP3    H213795   2.057   4.232   3.033
 4597TIP3   OH213796   6.000   3.601   3.518
 4597TIP3    H113797   6.065   3.531   3.516
 4597TIP3    H213798   6.041   3.673   3.470
 4598TIP3   OH213799   0.452   4.764   2.815
 4598TIP3    H113800   0.496   4.741   2.732
 4598TIP3    H213801   0.420   4.680   2.848
 4599TIP3   OH213802   6.195   5.396   0.776
 4599TIP3    H113803   6.242   5.397   0.693
 4599TIP3    H213804   6.236   5.465   0.827
 4600TIP3   OH213805   5.010   3.749   2.128
 4600TIP3    H113806   5.010   3.841   2.153
 4600TIP3    H213807   5.102   3.726   2.119
 4601TIP3   OH213808   1.231   4.754   3.293
 4601TIP3    H113809   1.261   4.798   3.213
 4601TIP3    H213810   1.153   4.803   3.319
 4602TIP3   OH213811   0.137   4.711   2.362
 4602TIP3    H113812   0.212   4.702   2.305
 4602TIP3    H213813   0.162   4.667   2.443
 4603TIP3   OH213814   2.757   0.814   2.539
 4603TIP3    H113815   2.687   0.809   2.604
 4603TIP3    H213816   2.810   0.736   2.555
 4604TIP3   OH213817   3.619   1.599   0.292
 4604TIP3    H113818   3.621   1.543   0.370
 4604TIP3    H213819   3.531   1.587   0.256
 4605TIP3   OH213820   1.104   2.890   3.277
 4605TIP3    H113821   1.092   2.859   3.367
 4605TIP3    H213822   1.194   2.866   3.255
 4606TIP3   OH213823   1.139   1.031   2.542
 4606TIP3    H113824   1.208   0.971   2.515
 4606TIP3    H213825   1.154   1.109   2.488
 4607TIP3   OH213826   4.288   4.914   4.462
 4607TIP3    H113827   4.339   4.990   4.489
 4607TIP3    H213828   4.340   4.839   4.491
 4608TIP3   OH213829   2.998   2.829   4.750
 4608TIP3    H113830   2.961   2.845   4.837
 4608TIP3    H213831   3.082   2.875   4.751
 4609TIP3   OH213832   6.239   3.561   1.619
 4609TIP3    H113833   6.295   3.533   1.692
 4609TIP3    H213834   6.297   3.617   1.566
 4610TIP3   OH213835   4.723   5.107   0.015
 4610TIP3    H113836   4.685   5.194   0.019
 4610TIP3    H213837   4.757   5.091   0.104
 4611TIP3   OH213838   4.584   3.555   4.817
 4611TIP3    H113839   4.506   3.518   4.859
 4611TIP3    H213840   4.598   3.638   4.863
 4612TIP3   OH213841   4.866   4.267   1.823
 4612TIP3    H113842   4.953   4.252   1.861
 4612TIP3    H213843   4.884   4.293   1.732
 4613TIP3   OH213844   4.754   5.684   0.817
 4613TIP3    H113845   4.691   5.632   0.868
 4613TIP3    H213846   4.700   5.727   0.750
 4614TIP3   OH213847   0.546   2.781  -0.003
 4614TIP3    H113848   0.460   2.822   0.005
 4614TIP3    H213849   0.570   2.760   0.087
 4615TIP3   OH213850   1.597   0.912   1.077
 4615TIP3    H113851   1.623   0.944   0.991
 4615TIP3    H213852   1.632   0.977   1.138
 4616TIP3   OH213853   3.527   4.679   1.469
 4616TIP3    H113854   3.600   4.716   1.518
 4616TIP3    H213855   3.533   4.585   1.484
 4617TIP3   OH213856   5.092   3.995   2.999
 4617TIP3    H113857   5.066   4.086   3.007
 4617TIP3    H213858   5.014   3.950   2.966
 4618TIP3   OH213859   2.216   3.096   2.218
 4618TIP3    H113860   2.290   3.148   2.187
 4618TIP3    H213861   2.163   3.082   2.140
 4619TIP3   OH213862   2.834   4.331   3.652
 4619TIP3    H113863   2.849   4.384   3.730
 4619TIP3    H213864   2.744   4.351   3.626
 4620TIP3   OH213865   4.932   1.046   4.142
 4620TIP3    H113866   4.942   1.130   4.098
 4620TIP3    H213867   4.860   1.003   4.095
 4621TIP3   OH213868   2.337   3.064   4.366
 4621TIP3    H113869   2.332   3.144   4.315
 4621TIP3    H213870   2.430   3.043   4.370
 4622TIP3   OH213871   4.623   5.819   0.617
 4622TIP3    H113872   4.697   5.805   0.559
 4622TIP3    H213873   4.551   5.770   0.578
 4623TIP3   OH213874   4.211   2.508   1.997
 4623TIP3    H113875   4.166   2.591   1.982
 4623TIP3    H213876   4.140   2.444   2.008
 4624TIP3   OH213877   3.876   3.727   1.481
 4624TIP3    H113878   3.831   3.811   1.492
 4624TIP3    H213879   3.969   3.748   1.489
 4625TIP3   OH213880   0.425   5.593   4.863
 4625TIP3    H113881   0.370   5.525   4.901
 4625TIP3    H213882   0.509   5.550   4.847
 4626TIP3   OH213883   4.792   2.139   4.254
 4626TIP3    H113884   4.725   2.204   4.276
 4626TIP3    H213885   4.821   2.104   4.338
 4627TIP3   OH213886   5.037   2.263   3.532
 4627TIP3    H113887   5.078   2.225   3.610
 4627TIP3    H213888   5.044   2.358   3.546
 4628TIP3   OH213889   4.360   0.183   3.634
 4628TIP3    H113890   4.331   0.230   3.557
 4628TIP3    H213891   4.407   0.107   3.600
 4629TIP3   OH213892   0.955   1.188   4.291
 4629TIP3    H113893   0.921   1.227   4.210
 4629TIP3    H213894   0.922   1.245   4.360
 4630TIP3   OH213895   4.128   4.387   0.030
 4630TIP3    H113896   4.205   4.443   0.034
 4630TIP3    H213897   4.137   4.329   0.106
 4631TIP3   OH213898   0.284   0.598   1.594
 4631TIP3    H113899   0.249   0.617   1.506
 4631TIP3    H213900   0.213   0.550   1.637
 4632TIP3   OH213901   1.737   1.429   4.845
 4632TIP3    H113902   1.760   1.411   4.937
 4632TIP3    H213903   1.644   1.406   4.839
 4633TIP3   OH213904   6.306   1.569   3.002
 4633TIP3    H113905   6.365   1.508   2.958
 4633TIP3    H213906   6.229   1.517   3.024
 4634TIP3   OH213907   0.953   2.978   0.354
 4634TIP3    H113908   0.937   2.939   0.440
 4634TIP3    H213909   0.872   2.962   0.305
 4635TIP3   OH213910   0.200   3.027   0.988
 4635TIP3    H113911   0.271   2.963   1.000
 4635TIP3    H213912   0.181   3.024   0.895
 4636TIP3   OH213913   1.104   5.731   4.684
 4636TIP3    H113914   1.095   5.790   4.610
 4636TIP3    H213915   1.104   5.788   4.761
 4637TIP3   OH213916   1.157   2.928   0.172
 4637TIP3    H113917   1.102   2.948   0.247
 4637TIP3    H213918   1.168   2.833   0.175
 4638TIP3   OH213919   3.154   0.157   4.793
 4638TIP3    H113920   3.071   0.206   4.796
 4638TIP3    H213921   3.132   0.070   4.826
 4639TIP3   OH213922   3.176   3.111   1.327
 4639TIP3    H113923   3.272   3.119   1.328
 4639TIP3    H213924   3.145   3.202   1.320
 4640TIP3   OH213925   5.500   3.831   1.737
 4640TIP3    H113926   5.425   3.890   1.730
 4640TIP3    H213927   5.562   3.861   1.671
 4641TIP3   OH213928   4.818   5.523   3.526
 4641TIP3    H113929   4.855   5.610   3.510
 4641TIP3    H213930   4.750   5.537   3.591
 4642TIP3   OH213931   0.220   4.086   3.524
 4642TIP3    H113932   0.217   4.174   3.561
 4642TIP3    H213933   0.249   4.030   3.596
 4643TIP3   OH213934   0.354   2.196   4.737
 4643TIP3    H113935   0.379   2.107   4.715
 4643TIP3    H213936   0.422   2.251   4.699
 4644TIP3   OH213937   0.123   0.913   1.649
 4644TIP3    H113938   0.056   0.846   1.661
 4644TIP3    H213939   0.113   0.940   1.557
 4645TIP3   OH213940   1.210   2.567   0.801
 4645TIP3    H113941   1.270   2.574   0.874
 4645TIP3    H213942   1.181   2.657   0.784
 4646TIP3   OH213943   5.643   5.877   4.679
 4646TIP3    H113944   5.660   5.863   4.772
 4646TIP3    H213945   5.557   5.837   4.665
 4647TIP3   OH213946   2.623   2.442   4.947
 4647TIP3    H113947   2.663   2.527   4.931
 4647TIP3    H213948   2.606   2.408   4.859
 4648TIP3   OH213949   5.417   3.222   4.913
 4648TIP3    H113950   5.375   3.268   4.985
 4648TIP3    H213951   5.376   3.135   4.911
 4649TIP3   OH213952   0.934   0.394   2.064
 4649TIP3    H113953   0.988   0.330   2.111
 4649TIP3    H213954   0.917   0.352   1.980
 4650TIP3   OH213955   5.545   3.154   0.994
 4650TIP3    H113956   5.550   3.247   0.973
 4650TIP3    H213957   5.455   3.130   0.975
 4651TIP3   OH213958   4.032   0.644   0.963
 4651TIP3    H113959   4.093   0.632   0.890
 4651TIP3    H213960   3.968   0.706   0.930
 4652TIP3   OH213961   1.818   4.024   1.963
 4652TIP3    H113962   1.859   3.942   1.989
 4652TIP3    H213963   1.846   4.038   1.872
 4653TIP3   OH213964   3.884   5.226   3.241
 4653TIP3    H113965   3.929   5.265   3.315
 4653TIP3    H213966   3.927   5.263   3.164
 4654TIP3   OH213967   2.507   2.704   4.815
 4654TIP3    H113968   2.578   2.711   4.879
 4654TIP3    H213969   2.438   2.761   4.850
 4655TIP3   OH213970   3.781   4.556   0.576
 4655TIP3    H113971   3.803   4.628   0.517
 4655TIP3    H213972   3.686   4.546   0.567
 4656TIP3   OH213973   5.335   3.046   5.186
 4656TIP3    H113974   5.363   3.133   5.213
 4656TIP3    H213975   5.267   3.062   5.120
 4657TIP3   OH213976   6.087   4.285   3.805
 4657TIP3    H113977   6.042   4.369   3.792
 4657TIP3    H213978   6.168   4.309   3.850
 4658TIP3   OH213979   1.382   4.047   5.038
 4658TIP3    H113980   1.397   4.021   5.129
 4658TIP3    H213981   1.352   4.138   5.044
 4659TIP3   OH213982   2.781   2.731   1.781
 4659TIP3    H113983   2.838   2.790   1.732
 4659TIP3    H213984   2.693   2.751   1.750
 4660TIP3   OH213985   3.207   4.694   4.301
 4660TIP3    H113986   3.199   4.622   4.365
 4660TIP3    H213987   3.125   4.692   4.253
 4661TIP3   OH213988   3.437   4.346   2.674
 4661TIP3    H113989   3.376   4.415   2.647
 4661TIP3    H213990   3.403   4.266   2.633
 4662TIP3   OH213991   3.569   0.091   3.789
 4662TIP3    H113992   3.586   0.123   3.701
 4662TIP3    H213993   3.474   0.089   3.796
 4663TIP3   OH213994   3.562   2.116   4.320
 4663TIP3    H113995   3.500   2.052   4.356
 4663TIP3    H213996   3.648   2.082   4.343
 4664TIP3   OH213997   3.703   0.218   0.941
 4664TIP3    H113998   3.782   0.184   0.985
 4664TIP3    H213999   3.712   0.313   0.947
 4665TIP3   OH214000   2.006   5.898   5.121
 4665TIP3    H114001   1.955   5.862   5.194
 4665TIP3    H214002   2.017   5.990   5.143
 4666TIP3   OH214003   5.791   4.806   4.514
 4666TIP3    H114004   5.817   4.872   4.579
 4666TIP3    H214005   5.696   4.809   4.515
 4667TIP3   OH214006   5.778   0.222   4.848
 4667TIP3    H114007   5.770   0.315   4.868
 4667TIP3    H214008   5.707   0.206   4.785
 4668TIP3   OH214009   2.441   0.095   5.236
 4668TIP3    H114010   2.349   0.122   5.237
 4668TIP3    H214011   2.489   0.175   5.215
 4669TIP3   OH214012   5.534   3.950   4.441
 4669TIP3    H114013   5.585   3.942   4.361
 4669TIP3    H214014   5.477   4.025   4.425
 4670TIP3   OH214015   3.664   5.962   3.419
 4670TIP3    H114016   3.667   5.866   3.425
 4670TIP3    H214017   3.572   5.982   3.407
 4671TIP3   OH214018   3.895   3.246   2.742
 4671TIP3    H114019   3.944   3.178   2.695
 4671TIP3    H214020   3.831   3.197   2.795
 4672TIP3   OH214021   5.651   2.017   3.004
 4672TIP3    H114022   5.575   2.054   3.050
 4672TIP3    H214023   5.636   2.040   2.912
 4673TIP3   OH214024   3.327   3.099   1.997
 4673TIP3    H114025   3.317   3.012   1.959
 4673TIP3    H214026   3.368   3.084   2.082
 4674TIP3   OH214027   1.932   0.823   0.692
 4674TIP3    H114028   2.000   0.808   0.757
 4674TIP3    H214029   1.936   0.917   0.673
 4675TIP3   OH214030   2.184   4.684   2.755
 4675TIP3    H114031   2.126   4.610   2.739
 4675TIP3    H214032   2.258   4.647   2.804
 4676TIP3   OH214033   4.063   2.057   0.602
 4676TIP3    H114034   3.975   2.095   0.600
 4676TIP3    H214035   4.052   1.971   0.559
 4677TIP3   OH214036   0.699   3.794   0.934
 4677TIP3    H114037   0.667   3.708   0.962
 4677TIP3    H214038   0.623   3.851   0.941
 4678TIP3   OH214039   6.208   4.269   0.056
 4678TIP3    H114040   6.274   4.200   0.053
 4678TIP3    H214041   6.247   4.337   0.111
 4679TIP3   OH214042   5.010   3.171   1.686
 4679TIP3    H114043   4.945   3.120   1.735
 4679TIP3    H214044   4.961   3.211   1.615
 4680TIP3   OH214045   0.444   2.568   2.879
 4680TIP3    H114046   0.498   2.506   2.829
 4680TIP3    H214047   0.380   2.513   2.924
 4681TIP3   OH214048   2.793   5.094   4.374
 4681TIP3    H114049   2.783   5.023   4.437
 4681TIP3    H214050   2.737   5.164   4.408
 4682TIP3   OH214051   5.173   4.256   3.552
 4682TIP3    H114052   5.145   4.302   3.473
 4682TIP3    H214053   5.215   4.323   3.605
 4683TIP3   OH214054   2.059   1.599   0.313
 4683TIP3    H114055   2.061   1.508   0.284
 4683TIP3    H214056   2.115   1.601   0.391
 4684TIP3   OH214057   3.218   1.361   0.935
 4684TIP3    H114058   3.264   1.369   0.851
 4684TIP3    H214059   3.288   1.352   0.999
 4685TIP3   OH214060   3.497   3.252   4.947
 4685TIP3    H114061   3.514   3.204   4.866
 4685TIP3    H214062   3.417   3.212   4.982
 4686TIP3   OH214063   3.156   1.558   5.117
 4686TIP3    H114064   3.222   1.625   5.100
 4686TIP3    H214065   3.198   1.498   5.178
 4687TIP3   OH214066   1.169   2.396   3.927
 4687TIP3    H114067   1.188   2.306   3.899
 4687TIP3    H214068   1.087   2.418   3.884
 4688TIP3   OH214069   3.144   5.390   1.648
 4688TIP3    H114070   3.158   5.367   1.556
 4688TIP3    H214071   3.114   5.481   1.645
 4689TIP3   OH214072   6.341   2.753   1.970
 4689TIP3    H114073   6.318   2.712   1.887
 4689TIP3    H214074   6.290   2.704   2.035
 4690TIP3   OH214075   1.768   2.008   2.122
 4690TIP3    H114076   1.771   2.050   2.208
 4690TIP3    H214077   1.705   2.061   2.072
 4691TIP3   OH214078   0.258   2.911   1.851
 4691TIP3    H114079   0.168   2.882   1.837
 4691TIP3    H214080   0.291   2.856   1.922
 4692TIP3   OH214081   2.173   4.081   2.625
 4692TIP3    H114082   2.140   4.150   2.567
 4692TIP3    H214083   2.266   4.101   2.636
 4693TIP3   OH214084   1.981   1.026   3.829
 4693TIP3    H114085   2.011   0.955   3.772
 4693TIP3    H214086   2.008   0.999   3.917
 4694TIP3   OH214087   4.140   1.428   3.703
 4694TIP3    H114088   4.215   1.487   3.710
 4694TIP3    H214089   4.178   1.340   3.703
 4695TIP3   OH214090   5.123   0.893   4.593
 4695TIP3    H114091   5.047   0.842   4.565
 4695TIP3    H214092   5.178   0.831   4.641
 4696TIP3   OH214093   3.914   1.585   0.234
 4696TIP3    H114094   3.823   1.607   0.254
 4696TIP3    H214095   3.924   1.609   0.142
 4697TIP3   OH214096   0.693   2.191   5.027
 4697TIP3    H114097   0.690   2.257   5.096
 4697TIP3    H214098   0.772   2.211   4.978
 4698TIP3   OH214099   2.728   5.310   1.699
 4698TIP3    H114100   2.671   5.336   1.771
 4698TIP3    H214101   2.816   5.313   1.736
 4699TIP3   OH214102   2.283   0.937   1.910
 4699TIP3    H114103   2.330   1.020   1.907
 4699TIP3    H214104   2.257   0.921   1.819
 4700TIP3   OH214105   5.236   1.916   4.524
 4700TIP3    H114106   5.234   1.943   4.432
 4700TIP3    H214107   5.324   1.879   4.536
 4701TIP3   OH214108   2.134   0.612   2.356
 4701TIP3    H114109   2.209   0.601   2.413
 4701TIP3    H214110   2.159   0.683   2.296
 4702TIP3   OH214111   0.047   0.827   2.785
 4702TIP3    H114112   0.089   0.808   2.701
 4702TIP3    H214113   0.115   0.873   2.835
 4703TIP3   OH214114   4.719   5.685   2.862
 4703TIP3    H114115   4.792   5.642   2.819
 4703TIP3    H214116   4.744   5.689   2.954
 4704TIP3   OH214117   5.978   3.539   4.737
 4704TIP3    H114118   5.907   3.527   4.800
 4704TIP3    H214119   5.975   3.633   4.716
 4705TIP3   OH214120   3.181   2.825   3.394
 4705TIP3    H114121   3.174   2.734   3.365
 4705TIP3    H214122   3.208   2.873   3.316
 4706TIP3   OH214123   3.434   3.647   3.145
 4706TIP3    H114124   3.506   3.650   3.208
 4706TIP3    H214125   3.387   3.729   3.158
 4707TIP3   OH214126   0.331   5.627   2.196
 4707TIP3    H114127   0.311   5.571   2.271
 4707TIP3    H214128   0.246   5.644   2.155
 4708TIP3   OH214129   4.492   5.383   1.249
 4708TIP3    H114130   4.562   5.448   1.252
 4708TIP3    H214131   4.531   5.307   1.208
 4709TIP3   OH214132   0.129   5.668   0.889
 4709TIP3    H114133   0.101   5.675   0.981
 4709TIP3    H214134   0.166   5.754   0.869
 4710TIP3   OH214135   3.721   3.460   4.916
 4710TIP3    H114136   3.746   3.548   4.945
 4710TIP3    H214137   3.732   3.462   4.821
 4711TIP3   OH214138   1.430   4.768   3.701
 4711TIP3    H114139   1.482   4.822   3.641
 4711TIP3    H214140   1.405   4.692   3.650
 4712TIP3   OH214141   5.353   4.780   3.567
 4712TIP3    H114142   5.396   4.851   3.519
 4712TIP3    H214143   5.346   4.709   3.504
 4713TIP3   OH214144   5.465   0.463   3.638
 4713TIP3    H114145   5.506   0.434   3.720
 4713TIP3    H214146   5.424   0.547   3.661
 4714TIP3   OH214147   3.947   5.568   0.238
 4714TIP3    H114148   4.013   5.620   0.284
 4714TIP3    H214149   3.995   5.493   0.202
 4715TIP3   OH214150   5.089   5.132   3.385
 4715TIP3    H114151   5.174   5.107   3.421
 4715TIP3    H214152   5.079   5.077   3.307
 4716TIP3   OH214153   6.348   4.421   1.579
 4716TIP3    H114154   6.352   4.475   1.658
 4716TIP3    H214155   6.258   4.428   1.550
 4717TIP3   OH214156   2.301   0.869   2.570
 4717TIP3    H114157   2.253   0.932   2.624
 4717TIP3    H214158   2.265   0.881   2.482
 4718TIP3   OH214159   0.538   1.195   2.307
 4718TIP3    H114160   0.626   1.160   2.291
 4718TIP3    H214161   0.535   1.276   2.256
 4719TIP3   OH214162   1.739   5.329   4.623
 4719TIP3    H114163   1.764   5.356   4.535
 4719TIP3    H214164   1.810   5.359   4.679
 4720TIP3   OH214165   2.342   0.445   4.982
 4720TIP3    H114166   2.437   0.457   4.982
 4720TIP3    H214167   2.326   0.386   4.908
 4721TIP3   OH214168   3.990   1.833   2.206
 4721TIP3    H114169   4.084   1.849   2.194
 4721TIP3    H214170   3.960   1.907   2.259
 4722TIP3   OH214171   4.503   2.612   0.960
 4722TIP3    H114172   4.421   2.660   0.961
 4722TIP3    H214173   4.477   2.520   0.958
 4723TIP3   OH214174   2.025   0.154   2.310
 4723TIP3    H114175   1.956   0.114   2.258
 4723TIP3    H214176   2.062   0.082   2.360
 4724TIP3   OH214177   0.079   2.713   0.009
 4724TIP3    H114178   0.027   2.792  -0.008
 4724TIP3    H214179   0.148   2.743   0.067
 4725TIP3   OH214180   6.037   4.074   1.465
 4725TIP3    H114181   6.028   4.014   1.539
 4725TIP3    H214182   5.983   4.149   1.489
 4726TIP3   OH214183   0.649   2.237   2.330
 4726TIP3    H114184   0.688   2.220   2.416
 4726TIP3    H214185   0.559   2.203   2.338
 4727TIP3   OH214186   0.497   5.088   3.138
 4727TIP3    H114187   0.475   5.051   3.053
 4727TIP3    H214188   0.440   5.165   3.146
 4728TIP3   OH214189   2.168   5.909   4.251
 4728TIP3    H114190   2.111   5.871   4.185
 4728TIP3    H214191   2.109   5.941   4.319
 4729TIP3   OH214192   0.820   3.085   1.520
 4729TIP3    H114193   0.791   3.174   1.538
 4729TIP3    H214194   0.813   3.076   1.425
 4730TIP3   OH214195   5.009   1.389   4.867
 4730TIP3    H114196   5.088   1.360   4.912
 4730TIP3    H214197   4.992   1.321   4.802
 4731TIP3   OH214198   5.379   3.029   1.575
 4731TIP3    H114199   5.420   3.063   1.495
 4731TIP3    H214200   5.305   2.977   1.545
 4732TIP3   OH214201   0.206   1.602   1.087
 4732TIP3    H114202   0.243   1.534   1.142
 4732TIP3    H214203   0.193   1.677   1.145
 4733TIP3   OH214204   0.786   3.422   2.466
 4733TIP3    H114205   0.789   3.342   2.518
 4733TIP3    H214206   0.878   3.446   2.454
 4734TIP3   OH214207   5.672   0.061   3.662
 4734TIP3    H114208   5.711   0.015   3.588
 4734TIP3    H214209   5.717   0.145   3.665
 4735TIP3   OH214210   2.365   4.137   2.899
 4735TIP3    H114211   2.418   4.080   2.955
 4735TIP3    H214212   2.288   4.158   2.953
 4736TIP3   OH214213   1.170   0.261   4.668
 4736TIP3    H114214   1.250   0.269   4.617
 4736TIP3    H214215   1.175   0.173   4.705
 4737TIP3   OH214216   4.553   1.925   3.916
 4737TIP3    H114217   4.564   1.930   3.821
 4737TIP3    H214218   4.542   2.017   3.943
 4738TIP3   OH214219   1.497   4.608   5.031
 4738TIP3    H114220   1.551   4.537   5.067
 4738TIP3    H214221   1.498   4.593   4.937
 4739TIP3   OH214222   2.496   1.176   4.477
 4739TIP3    H114223   2.429   1.243   4.490
 4739TIP3    H214224   2.579   1.221   4.494
 4740TIP3   OH214225   6.081   3.007   2.191
 4740TIP3    H114226   6.068   3.080   2.253
 4740TIP3    H214227   6.168   3.023   2.154
 4741TIP3   OH214228   2.547   1.621   2.930
 4741TIP3    H114229   2.571   1.674   2.854
 4741TIP3    H214230   2.606   1.546   2.927
 4742TIP3   OH214231   0.002   5.994   4.308
 4742TIP3    H114232   0.087   5.950   4.304
 4742TIP3    H214233  -0.031   5.975   4.395
 4743TIP3   OH214234   1.412   4.386   0.857
 4743TIP3    H114235   1.363   4.455   0.812
 4743TIP3    H214236   1.359   4.307   0.844
 4744TIP3   OH214237   4.348   0.523   1.547
 4744TIP3    H114238   4.328   0.431   1.526
 4744TIP3    H214239   4.437   0.521   1.581
 4745TIP3   OH214240   3.028   0.784   0.146
 4745TIP3    H114241   2.977   0.865   0.149
 4745TIP3    H214242   2.990   0.735   0.073
 4746TIP3   OH214243   0.349   2.146   3.244
 4746TIP3    H114244   0.317   2.097   3.169
 4746TIP3    H214245   0.270   2.176   3.289
 4747TIP3   OH214246   5.910   3.906   1.664
 4747TIP3    H114247   5.967   3.831   1.679
 4747TIP3    H214248   5.836   3.871   1.615
 4748TIP3   OH214249   2.754   3.716   0.755
 4748TIP3    H114250   2.706   3.713   0.672
 4748TIP3    H214251   2.846   3.714   0.728
 4749TIP3   OH214252   5.748   0.489   4.883
 4749TIP3    H114253   5.806   0.555   4.919
 4749TIP3    H214254   5.667   0.499   4.933
 4750TIP3   OH214255   4.954   0.485   3.215
 4750TIP3    H114256   4.896   0.493   3.291
 4750TIP3    H214257   5.031   0.538   3.238
 4751TIP3   OH214258   5.633   2.018   3.631
 4751TIP3    H114259   5.619   2.075   3.707
 4751TIP3    H214260   5.575   1.944   3.645
 4752TIP3   OH214261   5.274   4.650   3.126
 4752TIP3    H114262   5.315   4.587   3.068
 4752TIP3    H214263   5.341   4.716   3.143
 4753TIP3   OH214264   1.148   4.584   1.789
 4753TIP3    H114265   1.140   4.499   1.745
 4753TIP3    H214266   1.119   4.567   1.878
 4754TIP3   OH214267   1.967   1.791   4.750
 4754TIP3    H114268   1.988   1.866   4.806
 4754TIP3    H214269   2.049   1.772   4.705
 4755TIP3   OH214270   0.278   4.809   0.645
 4755TIP3    H114271   0.279   4.866   0.568
 4755TIP3    H214272   0.296   4.868   0.718
 4756TIP3   OH214273   2.414   5.481   3.257
 4756TIP3    H114274   2.459   5.460   3.339
 4756TIP3    H214275   2.322   5.493   3.283
 4757TIP3   OH214276   2.860   0.618   1.785
 4757TIP3    H114277   2.804   0.670   1.842
 4757TIP3    H214278   2.808   0.605   1.706
 4758TIP3   OH214279   3.395   4.185   2.200
 4758TIP3    H114280   3.440   4.110   2.239
 4758TIP3    H214281   3.442   4.261   2.235
 4759TIP3   OH214282   0.399   4.452   4.742
 4759TIP3    H114283   0.360   4.531   4.780
 4759TIP3    H214284   0.325   4.403   4.708
 4760TIP3   OH214285   0.023   2.401   2.196
 4760TIP3    H114286   0.109   2.366   2.173
 4760TIP3    H214287   0.040   2.491   2.224
 4761TIP3   OH214288   6.269   5.939   4.553
 4761TIP3    H114289   6.210   5.863   4.549
 4761TIP3    H214290   6.293   5.946   4.645
 4762TIP3   OH214291   3.713   1.765   2.972
 4762TIP3    H114292   3.790   1.748   2.918
 4762TIP3    H214293   3.748   1.804   3.052
 4763TIP3   OH214294   5.863   5.098   0.036
 4763TIP3    H114295   5.798   5.088   0.106
 4763TIP3    H214296   5.814   5.081  -0.045
 4764TIP3   OH214297   1.747   4.725   1.596
 4764TIP3    H114298   1.706   4.720   1.510
 4764TIP3    H214299   1.673   4.732   1.657
 4765TIP3   OH214300   2.781   4.801   0.980
 4765TIP3    H114301   2.731   4.753   0.914
 4765TIP3    H214302   2.751   4.764   1.064
 4766TIP3   OH214303   3.851   2.868   3.725
 4766TIP3    H114304   3.824   2.959   3.730
 4766TIP3    H214305   3.824   2.830   3.809
 4767TIP3   OH214306   2.657   4.792   2.202
 4767TIP3    H114307   2.663   4.887   2.201
 4767TIP3    H214308   2.570   4.773   2.167
 4768TIP3   OH214309   0.994   1.319   1.429
 4768TIP3    H114310   0.921   1.352   1.377
 4768TIP3    H214311   0.999   1.379   1.504
 4769TIP3   OH214312   6.254   5.550   5.139
 4769TIP3    H114313   6.238   5.590   5.224
 4769TIP3    H214314   6.332   5.497   5.152
 4770TIP3   OH214315   3.957   5.099   1.832
 4770TIP3    H114316   3.868   5.095   1.867
 4770TIP3    H214317   3.990   5.184   1.860
 4771TIP3   OH214318   4.168   1.728   0.079
 4771TIP3    H114319   4.140   1.814   0.108
 4771TIP3    H214320   4.240   1.705   0.138
 4772TIP3   OH214321   0.455   5.212   2.640
 4772TIP3    H114322   0.524   5.278   2.635
 4772TIP3    H214323   0.495   5.133   2.606
 4773TIP3   OH214324   5.007   0.943   2.590
 4773TIP3    H114325   5.027   0.924   2.682
 4773TIP3    H214326   4.944   1.015   2.594
 4774TIP3   OH214327   2.716   4.474   3.074
 4774TIP3    H114328   2.697   4.383   3.094
 4774TIP3    H214329   2.804   4.473   3.038
 4775TIP3   OH214330   2.242   3.801   1.326
 4775TIP3    H114331   2.306   3.869   1.347
 4775TIP3    H214332   2.262   3.729   1.385
 4776TIP3   OH214333   3.470   1.315   0.149
 4776TIP3    H114334   3.397   1.272   0.105
 4776TIP3    H214335   3.546   1.291   0.097
 4777TIP3   OH214336   0.868   5.962   2.638
 4777TIP3    H114337   0.778   5.966   2.671
 4777TIP3    H214338   0.860   5.930   2.549
 4778TIP3   OH214339   5.873   2.905   3.854
 4778TIP3    H114340   5.892   2.928   3.763
 4778TIP3    H214341   5.951   2.930   3.902
 4779TIP3   OH214342   3.893   3.984   2.384
 4779TIP3    H114343   3.957   4.018   2.321
 4779TIP3    H214344   3.866   4.060   2.435
 4780TIP3   OH214345   2.260   4.572   4.283
 4780TIP3    H114346   2.349   4.607   4.281
 4780TIP3    H214347   2.213   4.629   4.343
 4781TIP3   OH214348   0.341   4.302   3.660
 4781TIP3    H114349   0.365   4.395   3.669
 4781TIP3    H214350   0.381   4.260   3.736
 4782TIP3   OH214351   3.941   4.871   5.043
 4782TIP3    H114352   3.991   4.814   4.985
 4782TIP3    H214353   3.979   4.958   5.030
 4783TIP3   OH214354   2.383   4.496   0.739
 4783TIP3    H114355   2.424   4.476   0.655
 4783TIP3    H214356   2.449   4.475   0.804
 4784TIP3   OH214357   0.590   5.107   4.771
 4784TIP3    H114358   0.611   5.014   4.776
 4784TIP3    H214359   0.563   5.121   4.680
 4785TIP3   OH214360   1.717   1.437   1.262
 4785TIP3    H114361   1.646   1.492   1.295
 4785TIP3    H214362   1.728   1.464   1.171
 4786TIP3   OH214363   3.774   5.027   0.364
 4786TIP3    H114364   3.724   4.957   0.321
 4786TIP3    H214365   3.713   5.100   0.369
 4787TIP3   OH214366   2.515   0.397   2.897
 4787TIP3    H114367   2.542   0.389   2.989
 4787TIP3    H214368   2.597   0.401   2.848
 4788TIP3   OH214369   5.041   1.879   1.794
 4788TIP3    H114370   5.066   1.793   1.827
 4788TIP3    H214371   5.073   1.941   1.859
 4789TIP3   OH214372   2.569   4.236   1.514
 4789TIP3    H114373   2.646   4.283   1.547
 4789TIP3    H214374   2.568   4.254   1.420
 4790TIP3   OH214375   4.019   1.207   2.380
 4790TIP3    H114376   3.960   1.135   2.359
 4790TIP3    H214377   4.063   1.227   2.297
 4791TIP3   OH214378   2.079   5.402   1.367
 4791TIP3    H114379   2.045   5.448   1.291
 4791TIP3    H214380   2.028   5.438   1.441
 4792TIP3   OH214381   1.614   5.379   1.289
 4792TIP3    H114382   1.557   5.390   1.365
 4792TIP3    H214383   1.675   5.310   1.314
 4793TIP3   OH214384   2.087   4.154   2.243
 4793TIP3    H114385   2.033   4.081   2.273
 4793TIP3    H214386   2.165   4.113   2.205
 4794TIP3   OH214387   5.036   3.844   3.730
 4794TIP3    H114388   4.945   3.825   3.706
 4794TIP3    H214389   5.075   3.879   3.650
 4795TIP3   OH214390   4.182   3.230   0.321
 4795TIP3    H114391   4.261   3.256   0.274
 4795TIP3    H214392   4.110   3.269   0.271
 4796TIP3   OH214393   4.314   0.671   0.179
 4796TIP3    H114394   4.278   0.638   0.097
 4796TIP3    H214395   4.237   0.683   0.235
 4797TIP3   OH214396   2.154   3.606   4.513
 4797TIP3    H114397   2.123   3.682   4.464
 4797TIP3    H214398   2.084   3.587   4.575
 4798TIP3   OH214399   1.567   3.670   1.025
 4798TIP3    H114400   1.500   3.605   1.045
 4798TIP3    H214401   1.537   3.710   0.943
 4799TIP3   OH214402   2.225   1.830   2.968
 4799TIP3    H114403   2.246   1.824   2.875
 4799TIP3    H214404   2.306   1.859   3.009
 4800TIP3   OH214405   3.055   5.654   2.714
 4800TIP3    H114406   3.039   5.632   2.805
 4800TIP3    H214407   3.013   5.739   2.702
 4801TIP3   OH214408   3.765   1.061   4.876
 4801TIP3    H114409   3.697   1.032   4.815
 4801TIP3    H214410   3.747   1.013   4.957
 4802TIP3   OH214411   5.746   2.800   1.516
 4802TIP3    H114412   5.680   2.792   1.585
 4802TIP3    H214413   5.697   2.831   1.439
 4803TIP3   OH214414   4.449   5.451   1.522
 4803TIP3    H114415   4.388   5.404   1.577
 4803TIP3    H214416   4.415   5.440   1.433
 4804TIP3   OH214417   2.067   2.866   2.524
 4804TIP3    H114418   2.141   2.806   2.535
 4804TIP3    H214419   2.106   2.949   2.499
 4805TIP3   OH214420   3.748   0.867   2.348
 4805TIP3    H114421   3.664   0.822   2.352
 4805TIP3    H214422   3.727   0.953   2.310
 4806TIP3   OH214423   1.244   1.362   3.674
 4806TIP3    H114424   1.271   1.291   3.616
 4806TIP3    H214425   1.239   1.323   3.760
 4807TIP3   OH214426   2.758   5.360   3.563
 4807TIP3    H114427   2.832   5.391   3.614
 4807TIP3    H214428   2.757   5.416   3.486
 4808TIP3   OH214429   0.636   2.671   2.497
 4808TIP3    H114430   0.590   2.755   2.483
 4808TIP3    H214431   0.574   2.605   2.466
 4809TIP3   OH214432   5.715   0.827   2.433
 4809TIP3    H114433   5.809   0.843   2.439
 4809TIP3    H214434   5.706   0.733   2.448
 4810TIP3   OH214435   3.998   2.051   4.599
 4810TIP3    H114436   3.938   2.123   4.620
 4810TIP3    H214437   3.941   1.982   4.564
 4811TIP3   OH214438   0.252   3.500   1.980
 4811TIP3    H114439   0.343   3.479   1.963
 4811TIP3    H214440   0.252   3.593   2.004
 4812TIP3   OH214441   4.787   0.550   0.254
 4812TIP3    H114442   4.793   0.619   0.187
 4812TIP3    H214443   4.728   0.586   0.320
 4813TIP3   OH214444   4.360   4.479   3.460
 4813TIP3    H114445   4.372   4.468   3.554
 4813TIP3    H214446   4.381   4.393   3.423
 4814TIP3   OH214447   4.698   2.656   4.002
 4814TIP3    H114448   4.735   2.658   4.091
 4814TIP3    H214449   4.774   2.669   3.945
 4815TIP3   OH214450   5.923   3.626   0.948
 4815TIP3    H114451   6.015   3.625   0.924
 4815TIP3    H214452   5.916   3.565   1.021
 4816TIP3   OH214453   1.897   3.499   4.711
 4816TIP3    H114454   1.939   3.575   4.752
 4816TIP3    H214455   1.929   3.425   4.761
 4817TIP3   OH214456   3.320   0.746   4.137
 4817TIP3    H114457   3.293   0.675   4.196
 4817TIP3    H214458   3.322   0.824   4.194
 4818TIP3   OH214459   0.920   0.422   0.864
 4818TIP3    H114460   0.825   0.429   0.875
 4818TIP3    H214461   0.957   0.488   0.923
 4819TIP3   OH214462   3.458   1.449   2.393
 4819TIP3    H114463   3.523   1.407   2.336
 4819TIP3    H214464   3.478   1.542   2.388
 4820TIP3   OH214465   0.105   1.336   3.575
 4820TIP3    H114466   0.054   1.326   3.656
 4820TIP3    H214467   0.040   1.331   3.505
 4821TIP3   OH214468   4.668  -0.004   3.735
 4821TIP3    H114469   4.602  -0.039   3.674
 4821TIP3    H214470   4.625   0.071   3.776
 4822TIP3   OH214471   5.669   1.665   0.612
 4822TIP3    H114472   5.621   1.745   0.634
 4822TIP3    H214473   5.602   1.606   0.578
 4823TIP3   OH214474   3.719   4.196   4.387
 4823TIP3    H114475   3.773   4.254   4.441
 4823TIP3    H214476   3.777   4.122   4.366
 4824TIP3   OH214477   5.475   3.531   0.157
 4824TIP3    H114478   5.409   3.551   0.092
 4824TIP3    H214479   5.541   3.480   0.110
 4825TIP3   OH214480   6.001   3.157   0.681
 4825TIP3    H114481   5.963   3.217   0.745
 4825TIP3    H214482   5.929   3.137   0.621
 4826TIP3   OH214483   4.580   3.221   1.709
 4826TIP3    H114484   4.537   3.191   1.629
 4826TIP3    H214485   4.548   3.163   1.778
 4827TIP3   OH214486   2.041   0.466   3.227
 4827TIP3    H114487   2.117   0.510   3.266
 4827TIP3    H214488   2.065   0.455   3.135
 4828TIP3   OH214489   1.036   0.389   3.509
 4828TIP3    H114490   1.015   0.330   3.436
 4828TIP3    H214491   0.961   0.381   3.569
 4829TIP3   OH214492   3.926   3.603   0.259
 4829TIP3    H114493   3.835   3.578   0.277
 4829TIP3    H214494   3.969   3.520   0.238
 4830TIP3   OH214495   3.195   3.093   0.272
 4830TIP3    H114496   3.285   3.119   0.289
 4830TIP3    H214497   3.163   3.156   0.208
 4831TIP3   OH214498   1.055   4.331   3.652
 4831TIP3    H114499   0.966   4.333   3.617
 4831TIP3    H214500   1.077   4.423   3.666
 4832TIP3   OH214501   4.018   4.969   0.191
 4832TIP3    H114502   4.004   5.021   0.112
 4832TIP3    H214503   3.961   5.009   0.257
 4833TIP3   OH214504   1.054   4.088   4.704
 4833TIP3    H114505   0.996   4.013   4.705
 4833TIP3    H214506   1.015   4.149   4.642
 4834TIP3   OH214507   1.492   0.442   0.652
 4834TIP3    H114508   1.540   0.419   0.572
 4834TIP3    H214509   1.535   0.521   0.684
 4835TIP3   OH214510   2.858   1.823   2.026
 4835TIP3    H114511   2.847   1.894   1.964
 4835TIP3    H214512   2.952   1.822   2.044
 4836TIP3   OH214513   0.421   5.669   0.241
 4836TIP3    H114514   0.436   5.662   0.147
 4836TIP3    H214515   0.404   5.762   0.256
 4837TIP3   OH214516   3.697   0.016   2.585
 4837TIP3    H114517   3.789   0.029   2.609
 4837TIP3    H214518   3.686   0.063   2.503
 4838TIP3   OH214519   1.039   1.963   4.277
 4838TIP3    H114520   1.119   1.919   4.306
 4838TIP3    H214521   0.982   1.892   4.247
 4839TIP3   OH214522   1.325   0.118   4.313
 4839TIP3    H114523   1.234   0.134   4.290
 4839TIP3    H214524   1.329   0.133   4.407
 4840TIP3   OH214525   4.271   3.054   2.587
 4840TIP3    H114526   4.306   3.141   2.610
 4840TIP3    H214527   4.349   3.004   2.560
 4841TIP3   OH214528   1.028   3.956   2.729
 4841TIP3    H114529   1.096   3.889   2.716
 4841TIP3    H214530   1.038   4.016   2.655
 4842TIP3   OH214531   4.228   0.985   0.782
 4842TIP3    H114532   4.222   1.023   0.694
 4842TIP3    H214533   4.302   0.924   0.777
 4843TIP3   OH214534   3.969   2.731   2.446
 4843TIP3    H114535   3.887   2.734   2.496
 4843TIP3    H214536   3.993   2.823   2.433
 4844TIP3   OH214537   1.809   5.866   1.245
 4844TIP3    H114538   1.838   5.945   1.199
 4844TIP3    H214539   1.830   5.883   1.337
 4845TIP3   OH214540   1.917   4.854   3.626
 4845TIP3    H114541   1.946   4.774   3.582
 4845TIP3    H214542   1.847   4.825   3.685
 4846TIP3   OH214543   1.058   3.188   5.145
 4846TIP3    H114544   1.108   3.183   5.064
 4846TIP3    H214545   0.980   3.238   5.121
 4847TIP3   OH214546   1.471   1.569   4.355
 4847TIP3    H114547   1.446   1.591   4.445
 4847TIP3    H214548   1.408   1.504   4.328
 4848TIP3   OH214549   5.825   1.267   5.024
 4848TIP3    H114550   5.816   1.323   5.101
 4848TIP3    H214551   5.896   1.206   5.047
 4849TIP3   OH214552   3.379   5.800   3.618
 4849TIP3    H114553   3.359   5.874   3.561
 4849TIP3    H214554   3.341   5.824   3.703
 4850TIP3   OH214555   1.371   4.297   2.781
 4850TIP3    H114556   1.297   4.265   2.833
 4850TIP3    H214557   1.342   4.382   2.749
 4851TIP3   OH214558   2.155   2.027   4.171
 4851TIP3    H114559   2.118   1.939   4.179
 4851TIP3    H214560   2.089   2.076   4.122
 4852TIP3   OH214561   0.069   2.489   1.119
 4852TIP3    H114562   0.108   2.498   1.206
 4852TIP3    H214563   0.122   2.545   1.063
 4853TIP3   OH214564   1.494   4.533   0.467
 4853TIP3    H114565   1.496   4.577   0.382
 4853TIP3    H214566   1.402   4.531   0.491
 4854TIP3   OH214567   4.679   4.720   1.567
 4854TIP3    H114568   4.661   4.671   1.647
 4854TIP3    H214569   4.684   4.652   1.499
 4855TIP3   OH214570   3.389   0.903   1.400
 4855TIP3    H114571   3.410   0.925   1.309
 4855TIP3    H214572   3.442   0.826   1.419
 4856TIP3   OH214573   3.584   2.831   3.317
 4856TIP3    H114574   3.503   2.878   3.336
 4856TIP3    H214575   3.577   2.809   3.224
 4857TIP3   OH214576   5.432   0.693   2.426
 4857TIP3    H114577   5.415   0.710   2.333
 4857TIP3    H214578   5.510   0.638   2.426
 4858TIP3   OH214579   5.829   4.523   4.457
 4858TIP3    H114580   5.828   4.619   4.460
 4858TIP3    H214581   5.742   4.497   4.487
 4859TIP3   OH214582   2.894   0.588   2.616
 4859TIP3    H114583   2.854   0.576   2.702
 4859TIP3    H214584   2.986   0.564   2.628
 4860TIP3   OH214585   6.164   5.767   2.802
 4860TIP3    H114586   6.147   5.696   2.740
 4860TIP3    H214587   6.102   5.836   2.777
 4861TIP3   OH214588   4.458   5.061   4.824
 4861TIP3    H114589   4.499   4.976   4.810
 4861TIP3    H214590   4.494   5.117   4.755
 4862TIP3   OH214591   0.065   0.359   2.309
 4862TIP3    H114592   0.097   0.347   2.398
 4862TIP3    H214593   0.006   0.286   2.294
 4863TIP3   OH214594   0.979   4.270   3.188
 4863TIP3    H114595   1.016   4.354   3.214
 4863TIP3    H214596   0.993   4.213   3.265
 4864TIP3   OH214597   1.153   1.189   0.139
 4864TIP3    H114598   1.234   1.195   0.089
 4864TIP3    H214599   1.084   1.217   0.079
 4865TIP3   OH214600   5.060   2.844   4.929
 4865TIP3    H114601   4.983   2.832   4.874
 4865TIP3    H214602   5.045   2.786   5.004
 4866TIP3   OH214603   5.902   3.006   3.375
 4866TIP3    H114604   5.860   2.999   3.461
 4866TIP3    H214605   5.939   2.918   3.359
 4867TIP3   OH214606   2.554   3.926   5.113
 4867TIP3    H114607   2.521   3.842   5.082
 4867TIP3    H214608   2.647   3.910   5.131
 4868TIP3   OH214609   4.389   0.816   4.155
 4868TIP3    H114610   4.425   0.901   4.184
 4868TIP3    H214611   4.429   0.802   4.069
 4869TIP3   OH214612   0.170   1.033   1.978
 4869TIP3    H114613   0.247   1.050   2.032
 4869TIP3    H214614   0.158   1.112   1.927
 4870TIP3   OH214615   0.902   5.458   1.932
 4870TIP3    H114616   0.841   5.419   1.994
 4870TIP3    H214617   0.871   5.548   1.921
 4871TIP3   OH214618   1.165   5.043   5.183
 4871TIP3    H114619   1.088   5.068   5.133
 4871TIP3    H214620   1.239   5.085   5.139
 4872TIP3   OH214621   6.271   2.927   1.551
 4872TIP3    H114622   6.303   2.841   1.579
 4872TIP3    H214623   6.183   2.932   1.587
 4873TIP3   OH214624   4.192   4.973   1.787
 4873TIP3    H114625   4.103   5.007   1.794
 4873TIP3    H214626   4.187   4.885   1.824
 4874TIP3   OH214627   4.788   3.546   1.050
 4874TIP3    H114628   4.702   3.577   1.019
 4874TIP3    H214629   4.779   3.542   1.145
 4875TIP3   OH214630   4.782   3.088   5.122
 4875TIP3    H114631   4.736   3.039   5.054
 4875TIP3    H214632   4.853   3.132   5.076
 4876TIP3   OH214633   1.643   0.783   2.705
 4876TIP3    H114634   1.719   0.750   2.752
 4876TIP3    H214635   1.578   0.713   2.711
 4877TIP3   OH214636   1.709   0.879   3.015
 4877TIP3    H114637   1.710   0.926   3.099
 4877TIP3    H214638   1.694   0.948   2.950
 4878TIP3   OH214639   5.285   2.983   4.880
 4878TIP3    H114640   5.293   2.956   4.788
 4878TIP3    H214641   5.215   2.927   4.915
 4879TIP3   OH214642   0.817   0.499   5.119
 4879TIP3    H114643   0.861   0.554   5.184
 4879TIP3    H214644   0.875   0.501   5.043
 4880TIP3   OH214645   4.425   1.490   3.551
 4880TIP3    H114646   4.456   1.404   3.524
 4880TIP3    H214647   4.349   1.507   3.496
 4881TIP3   OH214648   2.699   5.828   3.231
 4881TIP3    H114649   2.605   5.848   3.222
 4881TIP3    H214650   2.709   5.744   3.186
 4882TIP3   OH214651   3.476   0.897   0.478
 4882TIP3    H114652   3.499   0.990   0.485
 4882TIP3    H214653   3.381   0.896   0.466
 4883TIP3   OH214654   0.213   5.069   3.770
 4883TIP3    H114655   0.186   5.110   3.853
 4883TIP3    H214656   0.308   5.079   3.768
 4884TIP3   OH214657   1.220   5.854   2.612
 4884TIP3    H114658   1.190   5.943   2.627
 4884TIP3    H214659   1.174   5.826   2.532
 4885TIP3   OH214660   4.132   3.539   1.589
 4885TIP3    H114661   4.197   3.469   1.598
 4885TIP3    H214662   4.055   3.495   1.554
 4886TIP3   OH214663   3.162   3.689   4.680
 4886TIP3    H114664   3.084   3.742   4.697
 4886TIP3    H214665   3.215   3.698   4.759
 4887TIP3   OH214666   3.166   2.698   2.680
 4887TIP3    H114667   3.141   2.715   2.589
 4887TIP3    H214668   3.092   2.733   2.731
 4888TIP3   OH214669   5.404   3.520   3.262
 4888TIP3    H114670   5.497   3.544   3.265
 4888TIP3    H214671   5.403   3.425   3.265
 4889TIP3   OH214672   6.316   0.634   3.469
 4889TIP3    H114673   6.369   0.711   3.490
 4889TIP3    H214674   6.364   0.561   3.509
 4890TIP3   OH214675   4.984   1.934   0.451
 4890TIP3    H114676   4.927   1.954   0.525
 4890TIP3    H214677   5.045   2.008   0.446
 4891TIP3   OH214678   5.354   2.876   2.356
 4891TIP3    H114679   5.373   2.840   2.270
 4891TIP3    H214680   5.259   2.888   2.357
 4892TIP3   OH214681   1.251   1.832   1.364
 4892TIP3    H114682   1.191   1.883   1.419
 4892TIP3    H214683   1.207   1.827   1.279
 4893TIP3   OH214684   0.096   4.274   0.911
 4893TIP3    H114685   0.076   4.321   0.992
 4893TIP3    H214686   0.015   4.278   0.860
 4894TIP3   OH214687   2.154   3.513   4.084
 4894TIP3    H114688   2.160   3.504   3.989
 4894TIP3    H214689   2.185   3.601   4.102
 4895TIP3   OH214690   1.540   1.566   1.536
 4895TIP3    H114691   1.455   1.549   1.495
 4895TIP3    H214692   1.577   1.637   1.484
 4896TIP3   OH214693   2.092   2.483   1.684
 4896TIP3    H114694   2.053   2.513   1.766
 4896TIP3    H214695   2.021   2.487   1.620
 4897TIP3   OH214696   6.243   3.268   2.947
 4897TIP3    H114697   6.211   3.216   2.873
 4897TIP3    H214698   6.312   3.214   2.986
 4898TIP3   OH214699   3.658   5.513   4.552
 4898TIP3    H114700   3.680   5.450   4.483
 4898TIP3    H214701   3.572   5.546   4.528
 4899TIP3   OH214702   4.183   2.988   5.144
 4899TIP3    H114703   4.214   2.973   5.233
 4899TIP3    H214704   4.258   2.965   5.089
 4900TIP3   OH214705   0.333   0.024   3.714
 4900TIP3    H114706   0.425   0.040   3.694
 4900TIP3    H214707   0.305   0.101   3.763
 4901TIP3   OH214708   2.245   1.228   1.257
 4901TIP3    H114709   2.200   1.209   1.340
 4901TIP3    H214710   2.241   1.146   1.208
 4902TIP3   OH214711   4.896   0.768   1.899
 4902TIP3    H114712   4.862   0.849   1.861
 4902TIP3    H214713   4.825   0.737   1.956
 4903TIP3   OH214714   2.058   4.241   1.753
 4903TIP3    H114715   2.015   4.312   1.800
 4903TIP3    H214716   2.147   4.273   1.736
 4904TIP3   OH214717   4.491   2.706   1.625
 4904TIP3    H114718   4.438   2.627   1.613
 4904TIP3    H214719   4.431   2.779   1.607
 4905TIP3   OH214720   2.517   5.566   0.575
 4905TIP3    H114721   2.583   5.535   0.637
 4905TIP3    H214722   2.495   5.489   0.523
 4906TIP3   OH214723   3.856   2.508   2.282
 4906TIP3    H114724   3.914   2.506   2.206
 4906TIP3    H214725   3.862   2.598   2.314
 4907TIP3   OH214726   3.114   1.589   1.239
 4907TIP3    H114727   3.046   1.525   1.219
 4907TIP3    H214728   3.074   1.647   1.304
 4908TIP3   OH214729   5.109   3.977   2.646
 4908TIP3    H114730   5.198   3.986   2.613
 4908TIP3    H214731   5.119   3.933   2.731
 4909TIP3   OH214732   3.515   4.001   2.354
 4909TIP3    H114733   3.571   3.961   2.287
 4909TIP3    H214734   3.576   4.037   2.418
 4910TIP3   OH214735   2.445   4.299   0.310
 4910TIP3    H114736   2.467   4.216   0.267
 4910TIP3    H214737   2.382   4.276   0.378
 4911TIP3   OH214738   4.816   2.124   2.103
 4911TIP3    H114739   4.761   2.065   2.154
 4911TIP3    H214740   4.775   2.126   2.017
 4912TIP3   OH214741   1.715   4.175   1.010
 4912TIP3    H114742   1.762   4.169   1.093
 4912TIP3    H214743   1.696   4.268   1.000
 4913TIP3   OH214744   3.994   2.078   4.004
 4913TIP3    H114745   4.084   2.057   4.028
 4913TIP3    H214746   3.947   1.996   4.014
 4914TIP3   OH214747   3.932   2.400   2.637
 4914TIP3    H114748   3.998   2.415   2.569
 4914TIP3    H214749   3.976   2.425   2.718
 4915TIP3   OH214750   1.051   0.519   4.672
 4915TIP3    H114751   1.064   0.598   4.620
 4915TIP3    H214752   1.131   0.468   4.657
 4916TIP3   OH214753   5.830   2.189   0.608
 4916TIP3    H114754   5.853   2.270   0.563
 4916TIP3    H214755   5.825   2.214   0.701
 4917TIP3   OH214756   1.010   4.539   0.907
 4917TIP3    H114757   1.020   4.515   0.999
 4917TIP3    H214758   1.094   4.577   0.883
 4918TIP3   OH214759   0.172   2.262   4.321
 4918TIP3    H114760   0.098   2.235   4.267
 4918TIP3    H214761   0.151   2.229   4.408
 4919TIP3   OH214762   4.366   3.396   1.647
 4919TIP3    H114763   4.432   3.379   1.714
 4919TIP3    H214764   4.376   3.324   1.584
 4920TIP3   OH214765   2.663   2.499   0.474
 4920TIP3    H114766   2.697   2.464   0.392
 4920TIP3    H214767   2.712   2.580   0.489
 4921TIP3   OH214768   3.475   2.310   0.875
 4921TIP3    H114769   3.463   2.218   0.898
 4921TIP3    H214770   3.556   2.311   0.823
 4922TIP3   OH214771   5.217   2.541   5.006
 4922TIP3    H114772   5.261   2.524   5.089
 4922TIP3    H214773   5.167   2.621   5.021
 4923TIP3   OH214774   1.103   3.395   0.771
 4923TIP3    H114775   1.074   3.315   0.815
 4923TIP3    H214776   1.029   3.420   0.716
 4924TIP3   OH214777   4.842   3.269   4.073
 4924TIP3    H114778   4.911   3.286   4.137
 4924TIP3    H214779   4.882   3.290   3.989
 4925TIP3   OH214780   5.587   0.975   0.472
 4925TIP3    H114781   5.541   0.953   0.391
 4925TIP3    H214782   5.575   0.898   0.528
 4926TIP3   OH214783   1.400   3.480   4.658
 4926TIP3    H114784   1.441   3.515   4.737
 4926TIP3    H214785   1.438   3.393   4.647
 4927TIP3   OH214786   4.638   4.119   3.123
 4927TIP3    H114787   4.575   4.172   3.075
 4927TIP3    H214788   4.607   4.120   3.213
 4928TIP3   OH214789   4.326   3.492   4.896
 4928TIP3    H114790   4.362   3.425   4.955
 4928TIP3    H214791   4.231   3.478   4.900
 4929TIP3   OH214792   5.835   2.038   3.430
 4929TIP3    H114793   5.761   2.033   3.492
 4929TIP3    H214794   5.903   2.085   3.479
 4930TIP3   OH214795   4.189   3.709   0.928
 4930TIP3    H114796   4.209   3.720   1.021
 4930TIP3    H214797   4.127   3.637   0.925
 4931TIP3   OH214798   0.478   5.731   2.855
 4931TIP3    H114799   0.413   5.675   2.813
 4931TIP3    H214800   0.426   5.790   2.910
 4932TIP3   OH214801   5.205   0.532   2.979
 4932TIP3    H114802   5.141   0.579   2.926
 4932TIP3    H214803   5.247   0.471   2.919
 4933TIP3   OH214804   4.615   3.404   3.485
 4933TIP3    H114805   4.641   3.347   3.412
 4933TIP3    H214806   4.520   3.411   3.477
 4934TIP3   OH214807   3.911   1.026   1.165
 4934TIP3    H114808   3.858   1.103   1.188
 4934TIP3    H214809   3.920   1.031   1.069
 4935TIP3   OH214810   3.394   5.943   3.860
 4935TIP3    H114811   3.450   5.988   3.797
 4935TIP3    H214812   3.309   5.987   3.852
 4936TIP3   OH214813   5.031   4.786   4.921
 4936TIP3    H114814   4.956   4.800   4.978
 4936TIP3    H214815   5.104   4.831   4.965
 4937TIP3   OH214816   0.720   4.539   4.866
 4937TIP3    H114817   0.627   4.516   4.865
 4937TIP3    H214818   0.725   4.621   4.818
 4938TIP3   OH214819   1.769   1.540   3.862
 4938TIP3    H114820   1.778   1.445   3.858
 4938TIP3    H214821   1.723   1.563   3.782
 4939TIP3   OH214822   4.722   4.529   1.762
 4939TIP3    H114823   4.669   4.465   1.809
 4939TIP3    H214824   4.789   4.556   1.825
 4940TIP3   OH214825   5.994   3.400   0.445
 4940TIP3    H114826   6.046   3.414   0.524
 4940TIP3    H214827   5.936   3.475   0.440
 4941TIP3   OH214828   0.119   4.389   2.364
 4941TIP3    H114829   0.214   4.382   2.373
 4941TIP3    H214830   0.086   4.383   2.453
 4942TIP3   OH214831   0.888   5.858   2.364
 4942TIP3    H114832   0.831   5.934   2.366
 4942TIP3    H214833   0.868   5.815   2.281
 4943TIP3   OH214834   4.255   3.131   3.763
 4943TIP3    H114835   4.265   3.097   3.852
 4943TIP3    H214836   4.228   3.222   3.776
 4944TIP3   OH214837   3.265   2.532   0.354
 4944TIP3    H114838   3.187   2.486   0.383
 4944TIP3    H214839   3.241   2.569   0.269
 4945TIP3   OH214840   5.946   3.854   3.080
 4945TIP3    H114841   5.980   3.936   3.115
 4945TIP3    H214842   5.855   3.872   3.059
 4946TIP3   OH214843   4.575   1.192   4.811
 4946TIP3    H114844   4.516   1.220   4.742
 4946TIP3    H214845   4.605   1.274   4.851
 4947TIP3   OH214846   2.879   5.447   1.457
 4947TIP3    H114847   2.889   5.371   1.514
 4947TIP3    H214848   2.966   5.486   1.454
 4948TIP3   OH214849   2.177   0.000   3.895
 4948TIP3    H114850   2.147   0.011   3.804
 4948TIP3    H214851   2.271  -0.016   3.887
 4949TIP3   OH214852   3.264   4.982   0.637
 4949TIP3    H114853   3.265   4.924   0.713
 4949TIP3    H214854   3.242   5.068   0.672
 4950TIP3   OH214855   4.116   0.686   2.754
 4950TIP3    H114856   4.048   0.740   2.714
 4950TIP3    H214857   4.182   0.676   2.685
 4951TIP3   OH214858   2.467   2.331   2.814
 4951TIP3    H114859   2.502   2.242   2.810
 4951TIP3    H214860   2.421   2.335   2.899
 4952TIP3   OH214861   3.419   1.687   5.036
 4952TIP3    H114862   3.437   1.609   4.984
 4952TIP3    H214863   3.505   1.719   5.062
 4953TIP3   OH214864   1.068   1.116   1.794
 4953TIP3    H114865   1.037   1.082   1.710
 4953TIP3    H214866   1.119   1.044   1.831
 4954TIP3   OH214867   5.838   0.701   4.141
 4954TIP3    H114868   5.827   0.607   4.152
 4954TIP3    H214869   5.932   0.714   4.138
 4955TIP3   OH214870   3.326   2.287   0.483
 4955TIP3    H114871   3.297   2.340   0.557
 4955TIP3    H214872   3.342   2.351   0.412
 4956TIP3   OH214873   6.100   3.622   4.032
 4956TIP3    H114874   6.012   3.629   3.992
 4956TIP3    H214875   6.084   3.622   4.126
 4957TIP3   OH214876   3.855   5.969   2.405
 4957TIP3    H114877   3.796   5.987   2.479
 4957TIP3    H214878   3.803   5.991   2.327
 4958TIP3   OH214879   4.616   5.366   3.381
 4958TIP3    H114880   4.624   5.272   3.366
 4958TIP3    H214881   4.705   5.395   3.399
 4959TIP3   OH214882   2.209   5.104   1.146
 4959TIP3    H114883   2.125   5.147   1.130
 4959TIP3    H214884   2.264   5.132   1.072
 4960TIP3   OH214885   1.111   0.399   1.223
 4960TIP3    H114886   1.057   0.449   1.286
 4960TIP3    H214887   1.127   0.461   1.152
 4961TIP3   OH214888   6.318   3.465   4.110
 4961TIP3    H114889   6.386   3.452   4.044
 4961TIP3    H214890   6.265   3.537   4.075
 4962TIP3   OH214891   5.284   4.504   2.748
 4962TIP3    H114892   5.193   4.535   2.742
 4962TIP3    H214893   5.304   4.506   2.841
 4963TIP3   OH214894   4.229   4.124   3.291
 4963TIP3    H114895   4.318   4.131   3.325
 4963TIP3    H214896   4.211   4.211   3.254
 4964TIP3   OH214897   1.334   4.561   1.365
 4964TIP3    H114898   1.350   4.653   1.387
 4964TIP3    H214899   1.245   4.561   1.329
 4965TIP3   OH214900   0.181   3.021   0.723
 4965TIP3    H114901   0.180   3.093   0.661
 4965TIP3    H214902   0.179   2.942   0.668
 4966TIP3   OH214903   0.772   4.784   1.985
 4966TIP3    H114904   0.830   4.848   1.943
 4966TIP3    H214905   0.792   4.791   2.078
 4967TIP3   OH214906   6.222   2.089   5.119
 4967TIP3    H114907   6.162   2.092   5.193
 4967TIP3    H214908   6.273   2.170   5.126
 4968TIP3   OH214909   3.571   0.551   2.199
 4968TIP3    H114910   3.667   0.543   2.196
 4968TIP3    H214911   3.540   0.505   2.121
 4969TIP3   OH214912   5.146   1.489   1.165
 4969TIP3    H114913   5.084   1.440   1.111
 4969TIP3    H214914   5.092   1.552   1.213
 4970TIP3   OH214915  -0.001   3.498   1.853
 4970TIP3    H114916   0.088   3.477   1.882
 4970TIP3    H214917  -0.055   3.428   1.888
 4971TIP3   OH214918   5.183   5.468   0.222
 4971TIP3    H114919   5.194   5.563   0.218
 4971TIP3    H214920   5.142   5.444   0.140
 4972TIP3   OH214921   5.835   0.624   2.752
 4972TIP3    H114922   5.761   0.576   2.788
 4972TIP3    H214923   5.835   0.708   2.799
 4973TIP3   OH214924   6.346   2.961   4.109
 4973TIP3    H114925   6.432   2.924   4.092
 4973TIP3    H214926   6.330   2.942   4.202
 4974TIP3   OH214927   6.340   0.165   0.045
 4974TIP3    H114928   6.382   0.214  -0.025
 4974TIP3    H214929   6.274   0.225   0.081
 4975TIP3   OH214930   3.026   4.475   4.852
 4975TIP3    H114931   3.000   4.545   4.793
 4975TIP3    H214932   2.962   4.479   4.924
 4976TIP3   OH214933   0.782   2.237   4.438
 4976TIP3    H114934   0.845   2.165   4.433
 4976TIP3    H214935   0.733   2.221   4.519
 4977TIP3   OH214936   2.422   5.229   2.557
 4977TIP3    H114937   2.331   5.226   2.586
 4977TIP3    H214938   2.467   5.279   2.625
 4978TIP3   OH214939   5.526   1.280   0.275
 4978TIP3    H114940   5.551   1.197   0.234
 4978TIP3    H214941   5.609   1.322   0.297
 4979TIP3   OH214942   0.100   0.411   1.713
 4979TIP3    H114943   0.123   0.320   1.700
 4979TIP3    H214944   0.034   0.409   1.782
 4980TIP3   OH214945   1.137   4.992   0.255
 4980TIP3    H114946   1.163   5.061   0.316
 4980TIP3    H214947   1.102   5.040   0.180
 4981TIP3   OH214948   5.765   5.293   3.552
 4981TIP3    H114949   5.808   5.346   3.620
 4981TIP3    H214950   5.759   5.350   3.476
 4982TIP3   OH214951   4.916   4.569   1.473
 4982TIP3    H114952   4.880   4.489   1.512
 4982TIP3    H214953   4.951   4.618   1.548
 4983TIP3   OH214954   1.564   1.569   3.232
 4983TIP3    H114955   1.493   1.531   3.283
 4983TIP3    H214956   1.635   1.583   3.295
 4984TIP3   OH214957   3.745   4.002   3.316
 4984TIP3    H114958   3.670   4.001   3.374
 4984TIP3    H214959   3.819   4.027   3.372
 4985TIP3   OH214960   1.496   3.070   3.019
 4985TIP3    H114961   1.559   3.038   2.955
 4985TIP3    H214962   1.513   3.020   3.099
 4986TIP3   OH214963   3.279   4.376   0.651
 4986TIP3    H114964   3.340   4.420   0.710
 4986TIP3    H214965   3.278   4.430   0.572
 4987TIP3   OH214966   4.936   1.594   1.290
 4987TIP3    H114967   4.857   1.632   1.251
 4987TIP3    H214968   4.962   1.657   1.357
 4988TIP3   OH214969   0.700   2.713   3.790
 4988TIP3    H114970   0.657   2.677   3.868
 4988TIP3    H214971   0.674   2.805   3.790
 4989TIP3   OH214972   6.162   3.923   1.052
 4989TIP3    H114973   6.088   3.980   1.075
 4989TIP3    H214974   6.206   3.906   1.135
 4990TIP3   OH214975   2.775   2.523   0.081
 4990TIP3    H114976   2.826   2.484   0.152
 4990TIP3    H214977   2.687   2.532   0.117
 4991TIP3   OH214978   2.683   3.113   3.733
 4991TIP3    H114979   2.627   3.036   3.740
 4991TIP3    H214980   2.740   3.109   3.810
 4992TIP3   OH214981   5.253   1.358   0.354
 4992TIP3    H114982   5.218   1.362   0.265
 4992TIP3    H214983   5.344   1.329   0.342
 4993TIP3   OH214984   0.907   5.119   1.322
 4993TIP3    H114985   0.918   5.174   1.244
 4993TIP3    H214986   0.897   5.031   1.288
 4994TIP3   OH214987   5.864   5.505   0.185
 4994TIP3    H114988   5.857   5.601   0.176
 4994TIP3    H214989   5.781   5.472   0.149
 4995TIP3   OH214990   2.511   1.986   1.275
 4995TIP3    H114991   2.490   1.919   1.340
 4995TIP3    H214992   2.525   2.066   1.326
 4996TIP3   OH214993   6.037   0.703   3.565
 4996TIP3    H114994   6.130   0.703   3.589
 4996TIP3    H214995   6.035   0.744   3.478
 4997TIP3   OH214996   3.091   0.875   2.950
 4997TIP3    H114997   3.106   0.782   2.968
 4997TIP3    H214998   3.172   0.905   2.909
 4998TIP3   OH214999   2.615   1.438   2.694
 4998TIP3    H115000   2.552   1.374   2.726
 4998TIP3    H215001   2.692   1.387   2.670
 4999TIP3   OH215002   3.646   5.377   2.561
 4999TIP3    H115003   3.702   5.306   2.529
 4999TIP3    H215004   3.604   5.412   2.482
 5000TIP3   OH215005   6.248   5.050   4.975
 5000TIP3    H115006   6.249   5.021   4.884
 5000TIP3    H215007   6.283   5.139   4.973
 5001TIP3   OH215008   5.401   0.391   0.651
 5001TIP3    H115009   5.420   0.320   0.713
 5001TIP3    H215010   5.479   0.395   0.595
 5002TIP3   OH215011   0.743   5.574   1.064
 5002TIP3    H115012   0.745   5.631   0.987
 5002TIP3    H215013   0.682   5.617   1.124
 5003TIP3   OH215014   4.669   0.140   0.960
 5003TIP3    H115015   4.643   0.052   0.988
 5003TIP3    H215016   4.755   0.129   0.921
 5004TIP3   OH215017   5.869   0.374   0.862
 5004TIP3    H115018   5.922   0.339   0.790
 5004TIP3    H215019   5.782   0.338   0.847
 5005TIP3   OH215020   5.933   2.684   3.046
 5005TIP3    H115021   5.922   2.776   3.023
 5005TIP3    H215022   5.901   2.678   3.136
 5006TIP3   OH215023   0.800   2.210   2.566
 5006TIP3    H115024   0.851   2.272   2.618
 5006TIP3    H215025   0.866   2.149   2.531
 5007TIP3   OH215026   0.544   3.071   2.146
 5007TIP3    H115027   0.467   3.015   2.140
 5007TIP3    H215028   0.606   3.022   2.200
 5008TIP3   OH215029   3.564   2.615   1.582
 5008TIP3    H115030   3.496   2.633   1.646
 5008TIP3    H215031   3.644   2.652   1.621
 5009TIP3   OH215032   4.390   4.970   0.194
 5009TIP3    H115033   4.431   4.982   0.108
 5009TIP3    H215034   4.338   4.890   0.185
 5010TIP3   OH215035   5.072   4.521   1.162
 5010TIP3    H115036   5.133   4.584   1.199
 5010TIP3    H215037   5.080   4.444   1.218
 5011TIP3   OH215038   4.449   3.125   5.025
 5011TIP3    H115039   4.446   3.047   5.080
 5011TIP3    H215040   4.416   3.195   5.081
 5012TIP3   OH215041   0.992   1.858   0.771
 5012TIP3    H115042   1.048   1.897   0.839
 5012TIP3    H215043   0.958   1.778   0.811
 5013TIP3   OH215044   2.479   2.301   3.766
 5013TIP3    H115045   2.507   2.308   3.857
 5013TIP3    H215046   2.548   2.343   3.716
 5014TIP3   OH215047   1.036   3.526   2.407
 5014TIP3    H115048   1.019   3.570   2.324
 5014TIP3    H215049   1.128   3.546   2.426
 5015TIP3   OH215050   3.634   5.689   2.179
 5015TIP3    H115051   3.654   5.693   2.086
 5015TIP3    H215052   3.557   5.746   2.189
 5016TIP3   OH215053   0.464   2.829   5.017
 5016TIP3    H115054   0.508   2.753   5.055
 5016TIP3    H215055   0.371   2.808   5.021
 5017TIP3   OH215056   3.391   2.969   3.669
 5017TIP3    H115057   3.438   3.048   3.642
 5017TIP3    H215058   3.433   2.943   3.751
 5018TIP3   OH215059   5.988   3.600   3.211
 5018TIP3    H115060   6.005   3.680   3.161
 5018TIP3    H215061   6.055   3.600   3.279
 5019TIP3   OH215062   0.524   3.086   4.556
 5019TIP3    H115063   0.444   3.120   4.514
 5019TIP3    H215064   0.498   3.001   4.591
 5020TIP3   OH215065   1.807   1.056   2.733
 5020TIP3    H115066   1.822   0.962   2.723
 5020TIP3    H215067   1.891   1.090   2.762
 5021TIP3   OH215068   5.811   5.462   0.625
 5021TIP3    H115069   5.826   5.487   0.716
 5021TIP3    H215070   5.777   5.541   0.584
 5022TIP3   OH215071   3.371   3.411   0.971
 5022TIP3    H115072   3.336   3.492   0.932
 5022TIP3    H215073   3.460   3.405   0.937
 5023TIP3   OH215074   3.438   3.681   4.258
 5023TIP3    H115075   3.503   3.676   4.187
 5023TIP3    H215076   3.356   3.652   4.218
 5024TIP3   OH215077   2.934   4.944   1.391
 5024TIP3    H115078   2.927   5.012   1.324
 5024TIP3    H215079   2.928   4.991   1.474
 5025TIP3   OH215080   4.174   1.458   3.201
 5025TIP3    H115081   4.121   1.451   3.281
 5025TIP3    H215082   4.228   1.535   3.214
 5026TIP3   OH215083   3.778   4.595   2.025
 5026TIP3    H115084   3.750   4.523   2.083
 5026TIP3    H215085   3.867   4.572   2.000
 5027TIP3   OH215086   2.323   3.648   0.905
 5027TIP3    H115087   2.397   3.650   0.966
 5027TIP3    H215088   2.250   3.685   0.955
 5028TIP3   OH215089   4.537   4.188   0.631
 5028TIP3    H115090   4.494   4.194   0.716
 5028TIP3    H215091   4.619   4.237   0.642
 5029TIP3   OH215092   2.158   5.595   0.282
 5029TIP3    H115093   2.215   5.670   0.293
 5029TIP3    H215094   2.082   5.613   0.337
 5030TIP3   OH215095   1.023   1.817   1.190
 5030TIP3    H115096   0.947   1.856   1.234
 5030TIP3    H215097   0.995   1.807   1.099
 5031TIP3   OH215098   5.748   3.635   0.054
 5031TIP3    H115099   5.691   3.702   0.092
 5031TIP3    H215100   5.731   3.640  -0.040
 5032TIP3   OH215101   1.337   2.393   3.176
 5032TIP3    H115102   1.313   2.431   3.092
 5032TIP3    H215103   1.301   2.453   3.241
 5033TIP3   OH215104   2.202   2.572   4.186
 5033TIP3    H115105   2.194   2.650   4.240
 5033TIP3    H215106   2.115   2.532   4.188
 5034TIP3   OH215107   6.011   4.691   2.266
 5034TIP3    H115108   6.055   4.706   2.182
 5034TIP3    H215109   6.069   4.730   2.331
 5035TIP3   OH215110   6.087   2.107   1.751
 5035TIP3    H115111   6.019   2.145   1.807
 5035TIP3    H215112   6.084   2.160   1.671
 5036TIP3   OH215113   4.188   0.955   3.309
 5036TIP3    H115114   4.159   1.023   3.249
 5036TIP3    H215115   4.109   0.926   3.354
 5037TIP3   OH215116   3.855   5.714   2.886
 5037TIP3    H115117   3.810   5.655   2.826
 5037TIP3    H215118   3.948   5.697   2.871
 5038TIP3   OH215119   0.753   4.879   0.480
 5038TIP3    H115120   0.732   4.850   0.391
 5038TIP3    H215121   0.768   4.973   0.472
 5039TIP3   OH215122   2.832   1.050   1.969
 5039TIP3    H115123   2.913   1.020   2.010
 5039TIP3    H215124   2.860   1.121   1.911
 5040TIP3   OH215125   0.990   4.219   1.306
 5040TIP3    H115126   1.073   4.221   1.353
 5040TIP3    H215127   0.953   4.306   1.317
 5041TIP3   OH215128   5.034   2.361   1.617
 5041TIP3    H115129   5.087   2.288   1.586
 5041TIP3    H215130   4.996   2.330   1.699
 5042TIP3   OH215131   1.436   2.360   1.178
 5042TIP3    H115132   1.388   2.353   1.260
 5042TIP3    H215133   1.455   2.270   1.153
 5043TIP3   OH215134   2.628   4.743   3.005
 5043TIP3    H115135   2.720   4.772   3.006
 5043TIP3    H215136   2.634   4.648   3.008
 5044TIP3   OH215137   5.535   5.301   3.257
 5044TIP3    H115138   5.547   5.358   3.182
 5044TIP3    H215139   5.477   5.231   3.226
 5045TIP3   OH215140   4.307   3.542   3.253
 5045TIP3    H115141   4.278   3.629   3.280
 5045TIP3    H215142   4.232   3.507   3.204
 5046TIP3   OH215143   3.760   5.280   4.730
 5046TIP3    H115144   3.787   5.209   4.672
 5046TIP3    H215145   3.705   5.336   4.675
 5047TIP3   OH215146   3.367   0.441   3.787
 5047TIP3    H115147   3.415   0.515   3.824
 5047TIP3    H215148   3.352   0.466   3.695
 5048TIP3   OH215149   2.618   3.505   2.483
 5048TIP3    H115150   2.705   3.520   2.521
 5048TIP3    H215151   2.565   3.476   2.557
 5049TIP3   OH215152   2.361   3.810   0.438
 5049TIP3    H115153   2.308   3.857   0.373
 5049TIP3    H215154   2.445   3.856   0.438
 5050TIP3   OH215155   0.042   3.028   2.108
 5050TIP3    H115156   0.023   3.014   2.201
 5050TIP3    H215157   0.061   2.941   2.074
 5051TIP3   OH215158   3.688   3.043   4.816
 5051TIP3    H115159   3.734   3.063   4.898
 5051TIP3    H215160   3.679   2.948   4.817
 5052TIP3   OH215161   0.172   4.817   3.711
 5052TIP3    H115162   0.163   4.809   3.616
 5052TIP3    H215163   0.181   4.911   3.726
 5053TIP3   OH215164   2.596   0.376   1.034
 5053TIP3    H115165   2.520   0.383   0.975
 5053TIP3    H215166   2.570   0.310   1.098
 5054TIP3   OH215167   1.461   4.477   4.397
 5054TIP3    H115168   1.415   4.536   4.457
 5054TIP3    H215169   1.468   4.527   4.315
 5055TIP3   OH215170   4.195   5.475   1.384
 5055TIP3    H115171   4.174   5.525   1.463
 5055TIP3    H215172   4.217   5.541   1.318
 5056TIP3   OH215173   1.385   5.484   2.950
 5056TIP3    H115174   1.342   5.403   2.977
 5056TIP3    H215175   1.330   5.518   2.879
 5057TIP3   OH215176   1.552   1.299   2.048
 5057TIP3    H115177   1.630   1.323   1.998
 5057TIP3    H215178   1.525   1.215   2.012
 5058TIP3   OH215179   5.086   4.013   2.089
 5058TIP3    H115180   5.168   4.054   2.063
 5058TIP3    H215181   5.039   4.082   2.136
 5059TIP3   OH215182   3.990   2.683   3.440
 5059TIP3    H115183   4.028   2.597   3.455
 5059TIP3    H215184   4.028   2.740   3.507
 5060TIP3   OH215185   5.515   4.727   4.180
 5060TIP3    H115186   5.608   4.740   4.203
 5060TIP3    H215187   5.483   4.816   4.163
 5061TIP3   OH215188   4.769   4.678   5.159
 5061TIP3    H115189   4.721   4.728   5.094
 5061TIP3    H215190   4.766   4.731   5.238
 5062TIP3   OH215191   0.794   1.076   2.274
 5062TIP3    H115192   0.846   1.074   2.194
 5062TIP3    H215193   0.830   1.006   2.328
 5063TIP3   OH215194   3.894   1.122   3.300
 5063TIP3    H115195   3.972   1.146   3.250
 5063TIP3    H215196   3.828   1.103   3.233
 5064TIP3   OH215197   4.077   2.708   1.008
 5064TIP3    H115198   4.062   2.638   1.072
 5064TIP3    H215199   4.167   2.736   1.023
 5065TIP3   OH215200   4.279   1.813   4.108
 5065TIP3    H115201   4.303   1.905   4.099
 5065TIP3    H215202   4.281   1.796   4.203
 5066TIP3   OH215203   6.073   1.562   3.711
 5066TIP3    H115204   6.099   1.610   3.632
 5066TIP3    H215205   6.044   1.629   3.772
 5067TIP3   OH215206   1.517   2.981   2.508
 5067TIP3    H115207   1.498   3.057   2.563
 5067TIP3    H215208   1.610   2.963   2.524
 5068TIP3   OH215209   1.830   5.903   1.570
 5068TIP3    H115210   1.790   5.829   1.617
 5068TIP3    H215211   1.903   5.930   1.626
 5069TIP3   OH215212   5.260   3.363   4.684
 5069TIP3    H115213   5.305   3.290   4.727
 5069TIP3    H215214   5.301   3.370   4.598
 5070TIP3   OH215215   3.499   4.528   0.518
 5070TIP3    H115216   3.537   4.464   0.458
 5070TIP3    H215217   3.405   4.520   0.505
 5071TIP3   OH215218   2.715   5.290   0.075
 5071TIP3    H115219   2.771   5.267   0.149
 5071TIP3    H215220   2.630   5.307   0.114
 5072TIP3   OH215221   2.241   2.659   2.148
 5072TIP3    H115222   2.275   2.630   2.232
 5072TIP3    H215223   2.247   2.582   2.091
 5073TIP3   OH215224   3.778   5.604   1.246
 5073TIP3    H115225   3.851   5.545   1.226
 5073TIP3    H215226   3.739   5.624   1.161
 5074TIP3   OH215227   5.409   5.426   1.814
 5074TIP3    H115228   5.332   5.382   1.851
 5074TIP3    H215229   5.481   5.366   1.830
 5075TIP3   OH215230   4.163   5.362   0.476
 5075TIP3    H115231   4.138   5.452   0.496
 5075TIP3    H215232   4.259   5.364   0.471
 5076TIP3   OH215233   1.721   2.834   0.606
 5076TIP3    H115234   1.793   2.846   0.544
 5076TIP3    H215235   1.743   2.889   0.680
 5077TIP3   OH215236   4.169   2.815   1.343
 5077TIP3    H115237   4.166   2.781   1.254
 5077TIP3    H215238   4.136   2.905   1.336
 5078TIP3   OH215239   0.529   0.622   1.697
 5078TIP3    H115240   0.586   0.630   1.620
 5078TIP3    H215241   0.443   0.601   1.661
 5079TIP3   OH215242   5.961   0.046   4.697
 5079TIP3    H115243   5.986   0.000   4.777
 5079TIP3    H215244   5.866   0.052   4.700
 5080TIP3   OH215245   2.994   1.655   3.684
 5080TIP3    H115246   2.955   1.599   3.617
 5080TIP3    H215247   2.983   1.744   3.650
 5081TIP3   OH215248   5.103   0.241   4.086
 5081TIP3    H115249   5.060   0.216   4.168
 5081TIP3    H215250   5.143   0.326   4.105
 5082TIP3   OH215251   4.075   0.166   5.162
 5082TIP3    H115252   4.014   0.216   5.217
 5082TIP3    H215253   4.106   0.230   5.098
 5083TIP3   OH215254   3.491   1.814   3.473
 5083TIP3    H115255   3.488   1.760   3.552
 5083TIP3    H215256   3.400   1.838   3.457
 5084TIP3   OH215257   0.807   2.305   0.595
 5084TIP3    H115258   0.894   2.324   0.631
 5084TIP3    H215259   0.820   2.302   0.501
 5085TIP3   OH215260   2.508   2.369   0.956
 5085TIP3    H115261   2.418   2.398   0.947
 5085TIP3    H215262   2.502   2.280   0.991
 5086TIP3   OH215263   4.229   1.832   4.374
 5086TIP3    H115264   4.195   1.759   4.426
 5086TIP3    H215265   4.232   1.905   4.435
 5087TIP3   OH215266   5.141   3.409   0.687
 5087TIP3    H115267   5.158   3.487   0.635
 5087TIP3    H215268   5.207   3.345   0.657
 5088TIP3   OH215269   4.087   2.440   3.862
 5088TIP3    H115270   4.097   2.480   3.775
 5088TIP3    H215271   4.023   2.370   3.848
 5089TIP3   OH215272   2.168   2.580   2.750
 5089TIP3    H115273   2.160   2.543   2.662
 5089TIP3    H215274   2.263   2.590   2.762
 5090TIP3   OH215275   4.315   3.108   3.491
 5090TIP3    H115276   4.301   3.097   3.585
 5090TIP3    H215277   4.335   3.019   3.460
 5091TIP3   OH215278   1.081   1.990   5.032
 5091TIP3    H115279   1.119   1.934   5.100
 5091TIP3    H215280   1.049   1.929   4.966
 5092TIP3   OH215281   4.137   3.547   4.538
 5092TIP3    H115282   4.106   3.545   4.629
 5092TIP3    H215283   4.160   3.457   4.519
 5093TIP3   OH215284   4.469   4.781   1.981
 5093TIP3    H115285   4.561   4.760   1.965
 5093TIP3    H215286   4.456   4.761   2.074
 5094TIP3   OH215287   1.946   3.646   2.298
 5094TIP3    H115288   1.940   3.577   2.364
 5094TIP3    H215289   1.869   3.701   2.314
 5095TIP3   OH215290   2.496   4.206   1.937
 5095TIP3    H115291   2.554   4.141   1.897
 5095TIP3    H215292   2.426   4.218   1.872
 5096TIP3   OH215293   5.410   0.638   0.215
 5096TIP3    H115294   5.498   0.619   0.248
 5096TIP3    H215295   5.423   0.653   0.121
 5097TIP3   OH215296   4.133   4.201   2.880
 5097TIP3    H115297   4.054   4.148   2.891
 5097TIP3    H215298   4.113   4.282   2.925
 5098TIP3   OH215299   1.007   1.353   2.173
 5098TIP3    H115300   1.099   1.339   2.147
 5098TIP3    H215301   0.959   1.285   2.125
 5099TIP3   OH215302   2.042   1.041   5.160
 5099TIP3    H115303   1.957   1.072   5.131
 5099TIP3    H215304   2.105   1.096   5.114
 5100TIP3   OH215305   3.819   3.176   1.395
 5100TIP3    H115306   3.774   3.150   1.475
 5100TIP3    H215307   3.756   3.230   1.348
 5101TIP3   OH215308   4.110   1.413   1.228
 5101TIP3    H115309   4.143   1.323   1.232
 5101TIP3    H215310   4.119   1.446   1.317
 5102TIP3   OH215311   0.788   4.584   0.536
 5102TIP3    H115312   0.830   4.576   0.450
 5102TIP3    H215313   0.703   4.542   0.525
 5103TIP3   OH215314   2.062   4.415   2.713
 5103TIP3    H115315   2.063   4.359   2.791
 5103TIP3    H215316   2.084   4.356   2.641
 5104TIP3   OH215317   1.441   1.522   1.231
 5104TIP3    H115318   1.381   1.547   1.301
 5104TIP3    H215319   1.441   1.597   1.172
 5105TIP3   OH215320   0.731   3.451   0.730
 5105TIP3    H115321   0.742   3.546   0.729
 5105TIP3    H215322   0.744   3.427   0.822
 5106TIP3   OH215323   4.102   0.364   1.081
 5106TIP3    H115324   4.127   0.305   1.009
 5106TIP3    H215325   4.079   0.446   1.038
 5107TIP3   OH215326   0.081   2.024   3.147
 5107TIP3    H115327   0.078   1.929   3.153
 5107TIP3    H215328  -0.010   2.052   3.159
 5108TIP3   OH215329   6.225   5.100   1.368
 5108TIP3    H115330   6.278   5.093   1.288
 5108TIP3    H215331   6.253   5.026   1.421
 5109TIP3   OH215332   3.250   1.618   4.414
 5109TIP3    H115333   3.277   1.637   4.504
 5109TIP3    H215334   3.331   1.591   4.370
 5110TIP3   OH215335   4.737   3.973   0.492
 5110TIP3    H115336   4.746   4.001   0.583
 5110TIP3    H215337   4.648   4.000   0.468
 5111TIP3   OH215338   1.332   0.073   4.946
 5111TIP3    H115339   1.368  -0.015   4.936
 5111TIP3    H215340   1.249   0.071   4.897
 5112TIP3   OH215341   0.225   1.254   4.432
 5112TIP3    H115342   0.268   1.335   4.461
 5112TIP3    H215343   0.152   1.242   4.493
 5113TIP3   OH215344   0.302   5.778   2.544
 5113TIP3    H115345   0.229   5.800   2.602
 5113TIP3    H215346   0.370   5.842   2.566
 5114TIP3   OH215347   0.177   1.852   4.282
 5114TIP3    H115348   0.266   1.851   4.317
 5114TIP3    H215349   0.189   1.866   4.188
 5115TIP3   OH215350   4.274   0.158   4.867
 5115TIP3    H115351   4.202   0.220   4.882
 5115TIP3    H215352   4.348   0.195   4.915
 5116TIP3   OH215353   3.403   3.843   3.998
 5116TIP3    H115354   3.326   3.820   3.945
 5116TIP3    H215355   3.461   3.767   3.989
 5117TIP3   OH215356   2.255   0.661   5.152
 5117TIP3    H115357   2.319   0.723   5.188
 5117TIP3    H215358   2.299   0.622   5.077
 5118TIP3   OH215359   3.595   2.619   4.639
 5118TIP3    H115360   3.504   2.600   4.662
 5118TIP3    H215361   3.589   2.681   4.567
 5119TIP3   OH215362   2.771   5.768   2.457
 5119TIP3    H115363   2.750   5.689   2.508
 5119TIP3    H215364   2.692   5.821   2.462
 5120TIP3   OH215365   2.341   1.101   2.958
 5120TIP3    H115366   2.348   1.196   2.949
 5120TIP3    H215367   2.254   1.087   2.996
 5121TIP3   OH215368   6.109   3.311   1.638
 5121TIP3    H115369   6.135   3.401   1.619
 5121TIP3    H215370   6.172   3.282   1.704
 5122TIP3   OH215371   1.254   4.815   1.768
 5122TIP3    H115372   1.206   4.732   1.766
 5122TIP3    H215373   1.201   4.875   1.716
 5123TIP3   OH215374   0.182   4.622   3.094
 5123TIP3    H115375   0.211   4.549   3.149
 5123TIP3    H215376   0.216   4.700   3.137
 5124TIP3   OH215377   2.689   0.644   0.312
 5124TIP3    H115378   2.653   0.646   0.223
 5124TIP3    H215379   2.681   0.552   0.338
 5125TIP3   OH215380   1.273   0.829   4.707
 5125TIP3    H115381   1.322   0.760   4.753
 5125TIP3    H215382   1.192   0.838   4.757
 5126TIP3   OH215383   5.974   3.694   1.294
 5126TIP3    H115384   6.037   3.623   1.305
 5126TIP3    H215385   5.889   3.651   1.297
 5127TIP3   OH215386   4.369   2.845   3.474
 5127TIP3    H115387   4.385   2.786   3.400
 5127TIP3    H215388   4.305   2.798   3.528
 5128TIP3   OH215389   0.565   3.607   3.394
 5128TIP3    H115390   0.593   3.592   3.304
 5128TIP3    H215391   0.570   3.702   3.405
 5129TIP3   OH215392   1.158   1.306   0.485
 5129TIP3    H115393   1.090   1.247   0.452
 5129TIP3    H215394   1.184   1.358   0.409
 5130TIP3   OH215395   6.120   2.220   2.077
 5130TIP3    H115396   6.080   2.307   2.069
 5130TIP3    H215397   6.178   2.212   2.002
 5131TIP3   OH215398   2.479   1.709   0.757
 5131TIP3    H115399   2.460   1.733   0.666
 5131TIP3    H215400   2.562   1.662   0.752
 5132TIP3   OH215401   1.308   0.454   1.396
 5132TIP3    H115402   1.265   0.415   1.320
 5132TIP3    H215403   1.323   0.382   1.456
 5133TIP3   OH215404   0.308   4.651   1.566
 5133TIP3    H115405   0.363   4.693   1.498
 5133TIP3    H215406   0.337   4.560   1.567
 5134TIP3   OH215407   1.192   5.802   0.069
 5134TIP3    H115408   1.159   5.885   0.037
 5134TIP3    H215409   1.288   5.811   0.064
 5135TIP3   OH215410   3.816   3.039   3.144
 5135TIP3    H115411   3.783   3.095   3.073
 5135TIP3    H215412   3.764   2.958   3.137
 5136TIP3   OH215413   3.455   3.847   2.083
 5136TIP3    H115414   3.515   3.774   2.098
 5136TIP3    H215415   3.380   3.828   2.140
 5137TIP3   OH215416   1.996   3.869   0.107
 5137TIP3    H115417   1.918   3.924   0.102
 5137TIP3    H215418   2.043   3.887   0.026
 5138TIP3   OH215419   2.605   1.916   3.332
 5138TIP3    H115420   2.620   2.002   3.293
 5138TIP3    H215421   2.687   1.895   3.377
 5139TIP3   OH215422   2.953   0.881   4.726
 5139TIP3    H115423   2.989   0.970   4.726
 5139TIP3    H215424   2.917   0.869   4.814
 5140TIP3   OH215425   3.578   1.995   1.474
 5140TIP3    H115426   3.667   1.961   1.484
 5140TIP3    H215427   3.577   2.031   1.385
 5141TIP3   OH215428   1.014   0.846   4.836
 5141TIP3    H115429   1.029   0.824   4.928
 5141TIP3    H215430   0.919   0.857   4.829
 5142TIP3   OH215431   3.071   4.257   4.653
 5142TIP3    H115432   3.070   4.164   4.674
 5142TIP3    H215433   3.053   4.300   4.736
 5143TIP3   OH215434   4.173   5.174   2.417
 5143TIP3    H115435   4.233   5.122   2.363
 5143TIP3    H215436   4.098   5.116   2.431
 5144TIP3   OH215437   2.717   3.905   0.167
 5144TIP3    H115438   2.775   3.981   0.168
 5144TIP3    H215439   2.761   3.840   0.221
 5145TIP3   OH215440   0.572   5.683   1.245
 5145TIP3    H115441   0.505   5.668   1.179
 5145TIP3    H215442   0.528   5.735   1.313
 5146TIP3   OH215443   0.445   4.563   3.671
 5146TIP3    H115444   0.493   4.624   3.616
 5146TIP3    H215445   0.504   4.544   3.743
 5147TIP3   OH215446   5.004   0.589   1.100
 5147TIP3    H115447   5.084   0.610   1.052
 5147TIP3    H215448   4.974   0.674   1.134
 5148TIP3   OH215449   2.442   0.954   0.967
 5148TIP3    H115450   2.436   0.866   1.005
 5148TIP3    H215451   2.440   1.013   1.042
 5149TIP3   OH215452   5.294   3.235   2.449
 5149TIP3    H115453   5.208   3.219   2.488
 5149TIP3    H215454   5.280   3.226   2.355
 5150TIP3   OH215455   0.717   0.846   0.033
 5150TIP3    H115456   0.809   0.820   0.045
 5150TIP3    H215457   0.719   0.942   0.034
 5151TIP3   OH215458   2.685   3.534   0.950
 5151TIP3    H115459   2.666   3.449   0.910
 5151TIP3    H215460   2.698   3.593   0.875
 5152TIP3   OH215461   0.935   3.665   4.073
 5152TIP3    H115462   0.859   3.635   4.024
 5152TIP3    H215463   0.960   3.589   4.127
 5153TIP3   OH215464   3.078   2.930   3.670
 5153TIP3    H115465   3.016   2.864   3.704
 5153TIP3    H215466   3.024   3.007   3.655
 5154TIP3   OH215467   5.806   5.285   1.864
 5154TIP3    H115468   5.887   5.259   1.907
 5154TIP3    H215469   5.784   5.370   1.904
 5155TIP3   OH215470   3.939   4.903   3.821
 5155TIP3    H115471   3.887   4.823   3.821
 5155TIP3    H215472   3.901   4.957   3.890
 5156TIP3   OH215473   2.329   0.435   1.488
 5156TIP3    H115474   2.379   0.509   1.453
 5156TIP3    H215475   2.277   0.404   1.414
 5157TIP3   OH215476   2.023   3.743   5.097
 5157TIP3    H115477   2.062   3.656   5.095
 5157TIP3    H215478   2.093   3.801   5.066
 5158TIP3   OH215479   5.737   2.403   2.067
 5158TIP3    H115480   5.655   2.423   2.023
 5158TIP3    H215481   5.713   2.397   2.160
 5159TIP3   OH215482   5.513   5.324   2.155
 5159TIP3    H115483   5.506   5.419   2.156
 5159TIP3    H215484   5.475   5.298   2.071
 5160TIP3   OH215485   5.927   0.645   5.094
 5160TIP3    H115486   5.993   0.577   5.097
 5160TIP3    H215487   5.885   0.642   5.180
 5161TIP3   OH215488   5.553   4.654   2.375
 5161TIP3    H115489   5.548   4.745   2.346
 5161TIP3    H215490   5.604   4.610   2.307
 5162TIP3   OH215491   5.357   2.245   4.801
 5162TIP3    H115492   5.294   2.207   4.740
 5162TIP3    H215493   5.423   2.177   4.814
 5163TIP3   OH215494   1.603   2.504   0.015
 5163TIP3    H115495   1.588   2.475   0.105
 5163TIP3    H215496   1.585   2.427  -0.038
 5164TIP3   OH215497   4.251   2.637   4.254
 5164TIP3    H115498   4.254   2.723   4.296
 5164TIP3    H215499   4.172   2.596   4.290
 5165TIP3   OH215500   2.712   2.567   2.899
 5165TIP3    H115501   2.755   2.634   2.846
 5165TIP3    H215502   2.780   2.501   2.913
 5166TIP3   OH215503   3.286   0.725   2.154
 5166TIP3    H115504   3.218   0.721   2.086
 5166TIP3    H215505   3.367   0.736   2.105
 5167TIP3   OH215506   2.325   2.867   1.264
 5167TIP3    H115507   2.297   2.803   1.200
 5167TIP3    H215508   2.254   2.931   1.267
 5168TIP3   OH215509   1.791   1.934   0.138
 5168TIP3    H115510   1.794   1.905   0.047
 5168TIP3    H215511   1.850   1.874   0.184
 5169TIP3   OH215512   1.505   3.623   0.141
 5169TIP3    H115513   1.448   3.694   0.115
 5169TIP3    H215514   1.450   3.545   0.138
 5170TIP3   OH215515   5.163   5.417   1.942
 5170TIP3    H115516   5.160   5.471   2.021
 5170TIP3    H215517   5.104   5.461   1.880
 5171TIP3   OH215518   4.874   1.960   2.623
 5171TIP3    H115519   4.906   2.029   2.681
 5171TIP3    H215520   4.936   1.889   2.632
 5172TIP3   OH215521   3.501   4.292   3.128
 5172TIP3    H115522   3.550   4.368   3.097
 5172TIP3    H215523   3.527   4.283   3.220
 5173TIP3   OH215524   6.155   2.250   1.506
 5173TIP3    H115525   6.207   2.325   1.477
 5173TIP3    H215526   6.206   2.173   1.479
 5174TIP3   OH215527   2.163   4.323   5.158
 5174TIP3    H115528   2.223   4.397   5.150
 5174TIP3    H215529   2.216   4.247   5.135
 5175TIP3   OH215530   1.325   2.497   2.603
 5175TIP3    H115531   1.353   2.571   2.658
 5175TIP3    H215532   1.229   2.501   2.604
 5176TIP3   OH215533   2.656   5.193   3.994
 5176TIP3    H115534   2.706   5.180   3.914
 5176TIP3    H215535   2.672   5.284   4.019
 5177TIP3   OH215536   6.143   4.729   2.021
 5177TIP3    H115537   6.104   4.811   1.990
 5177TIP3    H215538   6.231   4.729   1.984
 5178TIP3   OH215539   2.593   3.892   2.602
 5178TIP3    H115540   2.572   3.942   2.523
 5178TIP3    H215541   2.541   3.812   2.594
 5179TIP3   OH215542   3.776   2.654   5.056
 5179TIP3    H115543   3.856   2.706   5.066
 5179TIP3    H215544   3.720   2.682   5.128
 5180TIP3   OH215545   3.862   1.911   1.389
 5180TIP3    H115546   3.932   1.972   1.411
 5180TIP3    H215547   3.865   1.904   1.294
 5181TIP3   OH215548   1.594   2.703   1.117
 5181TIP3    H115549   1.603   2.755   1.197
 5181TIP3    H215550   1.634   2.619   1.139
 5182TIP3   OH215551   4.268   3.027   2.002
 5182TIP3    H115552   4.225   3.027   1.916
 5182TIP3    H215553   4.244   2.943   2.040
 5183TIP3   OH215554   5.208   4.758   4.682
 5183TIP3    H115555   5.140   4.724   4.740
 5183TIP3    H215556   5.267   4.806   4.740
 5184TIP3   OH215557   6.220   4.012   1.814
 5184TIP3    H115558   6.280   3.936   1.816
 5184TIP3    H215559   6.246   4.060   1.735
 5185TIP3   OH215560   5.233   0.029   1.920
 5185TIP3    H115561   5.279   0.113   1.921
 5185TIP3    H215562   5.141   0.051   1.914
 5186TIP3   OH215563   4.950   3.445   4.340
 5186TIP3    H115564   4.907   3.484   4.264
 5186TIP3    H215565   5.011   3.381   4.302
 5187TIP3   OH215566   1.384   1.835   2.140
 5187TIP3    H115567   1.392   1.898   2.212
 5187TIP3    H215568   1.466   1.785   2.143
 5188TIP3   OH215569   5.071   1.106   0.218
 5188TIP3    H115570   5.142   1.151   0.264
 5188TIP3    H215571   5.062   1.023   0.264
 5189TIP3   OH215572   0.057   2.480   3.123
 5189TIP3    H115573   0.140   2.434   3.110
 5189TIP3    H215574  -0.007   2.410   3.136
 5190TIP3   OH215575   2.212   1.355   0.261
 5190TIP3    H115576   2.218   1.266   0.296
 5190TIP3    H215577   2.210   1.343   0.166
 5191TIP3   OH215578   3.701   4.329   4.886
 5191TIP3    H115579   3.705   4.340   4.791
 5191TIP3    H215580   3.683   4.236   4.899
 5192TIP3   OH215581   5.532   5.595   5.004
 5192TIP3    H115582   5.613   5.546   5.021
 5192TIP3    H215583   5.473   5.530   4.966
 5193TIP3   OH215584   2.687   5.125   0.605
 5193TIP3    H115585   2.779   5.135   0.580
 5193TIP3    H215586   2.638   5.149   0.527
 5194TIP3   OH215587   0.402   1.548   4.317
 5194TIP3    H115588   0.366   1.530   4.404
 5194TIP3    H215589   0.434   1.638   4.323
 5195TIP3   OH215590   0.102   1.424   0.898
 5195TIP3    H115591   0.166   1.358   0.873
 5195TIP3    H215592   0.149   1.481   0.959
 5196TIP3   OH215593   1.114   4.466   2.799
 5196TIP3    H115594   1.021   4.445   2.793
 5196TIP3    H215595   1.145   4.419   2.876
 5197TIP3   OH215596   0.586   0.146   3.674
 5197TIP3    H115597   0.597   0.172   3.765
 5197TIP3    H215598   0.631   0.062   3.667
 5198TIP3   OH215599   0.146   2.219   3.428
 5198TIP3    H115600   0.139   2.313   3.414
 5198TIP3    H215601   0.057   2.190   3.448
 5199TIP3   OH215602   3.284   2.220   4.944
 5199TIP3    H115603   3.208   2.247   4.892
 5199TIP3    H215604   3.292   2.126   4.927
 5200TIP3   OH215605   2.714   1.696   3.680
 5200TIP3    H115606   2.798   1.690   3.725
 5200TIP3    H215607   2.667   1.617   3.707
 5201TIP3   OH215608   5.201   0.011   4.420
 5201TIP3    H115609   5.242   0.043   4.340
 5201TIP3    H215610   5.221   0.078   4.486
 5202TIP3   OH215611   1.405   5.538   0.308
 5202TIP3    H115612   1.468   5.527   0.238
 5202TIP3    H215613   1.345   5.464   0.300
 5203TIP3   OH215614   0.623   4.672   0.064
 5203TIP3    H115615   0.552   4.626   0.019
 5203TIP3    H215616   0.701   4.623   0.041
 5204TIP3   OH215617   0.388   3.054   0.257
 5204TIP3    H115618   0.461   3.048   0.195
 5204TIP3    H215619   0.348   2.968   0.256
 5205TIP3   OH215620   4.096   2.343   0.251
 5205TIP3    H115621   4.152   2.418   0.230
 5205TIP3    H215622   4.048   2.326   0.170
 5206TIP3   OH215623   3.751   0.741   3.318
 5206TIP3    H115624   3.808   0.749   3.394
 5206TIP3    H215625   3.736   0.832   3.290
 5207TIP3   OH215626   0.603   4.560   3.912
 5207TIP3    H115627   0.551   4.502   3.967
 5207TIP3    H215628   0.682   4.510   3.893
 5208TIP3   OH215629   4.341   2.391   0.916
 5208TIP3    H115630   4.346   2.322   0.849
 5208TIP3    H215631   4.249   2.420   0.912
 5209TIP3   OH215632   6.102   2.386   2.344
 5209TIP3    H115633   6.181   2.387   2.398
 5209TIP3    H215634   6.133   2.409   2.257
 5210TIP3   OH215635   3.869   4.986   4.677
 5210TIP3    H115636   3.914   4.921   4.625
 5210TIP3    H215637   3.893   4.966   4.768
 5211TIP3   OH215638   1.930   3.066   4.994
 5211TIP3    H115639   1.993   2.996   4.976
 5211TIP3    H215640   1.916   3.061   5.089
 5212TIP3   OH215641   3.611   0.927   4.201
 5212TIP3    H115642   3.601   0.977   4.120
 5212TIP3    H215643   3.530   0.943   4.249
 5213TIP3   OH215644   6.294   3.069   3.813
 5213TIP3    H115645   6.260   3.001   3.872
 5213TIP3    H215646   6.389   3.055   3.813
 5214TIP3   OH215647   0.771   0.958   1.792
 5214TIP3    H115648   0.781   1.052   1.806
 5214TIP3    H215649   0.771   0.948   1.696
 5215TIP3   OH215650   0.411   4.651   5.110
 5215TIP3    H115651   0.401   4.664   5.016
 5215TIP3    H215652   0.412   4.739   5.147
 5216TIP3   OH215653   2.143   1.476   3.279
 5216TIP3    H115654   2.093   1.479   3.197
 5216TIP3    H215655   2.143   1.383   3.304
 5217TIP3   OH215656   1.882   1.826   2.799
 5217TIP3    H115657   1.866   1.755   2.861
 5217TIP3    H215658   1.897   1.903   2.853
 5218TIP3   OH215659   4.999   2.145   3.298
 5218TIP3    H115660   5.093   2.147   3.283
 5218TIP3    H215661   4.985   2.202   3.374
 5219TIP3   OH215662   6.353   4.014   4.913
 5219TIP3    H115663   6.368   4.107   4.930
 5219TIP3    H215664   6.273   3.993   4.961
 5220TIP3   OH215665   4.663   2.097   0.601
 5220TIP3    H115666   4.571   2.103   0.625
 5220TIP3    H215667   4.675   2.166   0.535
 5221TIP3   OH215668   3.114   4.839   3.346
 5221TIP3    H115669   3.037   4.783   3.359
 5221TIP3    H215670   3.079   4.928   3.351
 5222TIP3   OH215671   0.550   5.127   1.971
 5222TIP3    H115672   0.479   5.104   2.031
 5222TIP3    H215673   0.524   5.089   1.887
 5223TIP3   OH215674   4.826   3.620   4.159
 5223TIP3    H115675   4.906   3.660   4.127
 5223TIP3    H215676   4.769   3.694   4.181
 5224TIP3   OH215677   5.860   4.883   3.774
 5224TIP3    H115678   5.818   4.908   3.691
 5224TIP3    H215679   5.949   4.858   3.749
 5225TIP3   OH215680   0.184   5.715   4.971
 5225TIP3    H115681   0.255   5.674   4.920
 5225TIP3    H215682   0.113   5.650   4.969
 5226TIP3   OH215683   4.532   2.408   3.080
 5226TIP3    H115684   4.535   2.334   3.140
 5226TIP3    H215685   4.551   2.371   2.994
 5227TIP3   OH215686   6.114   0.804   2.134
 5227TIP3    H115687   6.184   0.785   2.071
 5227TIP3    H215688   6.082   0.718   2.160
 5228TIP3   OH215689   4.693   1.239   3.934
 5228TIP3    H115690   4.728   1.327   3.949
 5228TIP3    H215691   4.610   1.238   3.982
 5229TIP3   OH215692   4.018   1.645   1.126
 5229TIP3    H115693   4.085   1.710   1.105
 5229TIP3    H215694   4.068   1.568   1.156
 5230TIP3   OH215695   3.782   0.440   0.301
 5230TIP3    H115696   3.816   0.351   0.315
 5230TIP3    H215697   3.759   0.470   0.389
 5231TIP3   OH215698   1.792   0.848   2.079
 5231TIP3    H115699   1.764   0.776   2.023
 5231TIP3    H215700   1.782   0.813   2.168
 5232TIP3   OH215701   3.895   2.197   1.730
 5232TIP3    H115702   3.855   2.134   1.789
 5232TIP3    H215703   3.836   2.272   1.731
 5233TIP3   OH215704   6.203   3.427   3.456
 5233TIP3    H115705   6.159   3.345   3.438
 5233TIP3    H215706   6.272   3.433   3.391
 5234TIP3   OH215707   3.189   3.182   1.718
 5234TIP3    H115708   3.189   3.125   1.795
 5234TIP3    H215709   3.279   3.182   1.688
 5235TIP3   OH215710   4.349   0.257   1.644
 5235TIP3    H115711   4.422   0.214   1.689
 5235TIP3    H215712   4.283   0.188   1.636
 5236TIP3   OH215713   4.975   3.690   1.396
 5236TIP3    H115714   5.015   3.725   1.475
 5236TIP3    H215715   5.029   3.724   1.324
 5237TIP3   OH215716   5.888   0.649   0.388
 5237TIP3    H115717   5.879   0.607   0.473
 5237TIP3    H215718   5.884   0.743   0.406
 5238TIP3   OH215719   6.324   5.390   0.183
 5238TIP3    H115720   6.302   5.364   0.273
 5238TIP3    H215721   6.243   5.380   0.134
 5239TIP3   OH215722   4.693   0.447   4.808
 5239TIP3    H115723   4.779   0.472   4.775
 5239TIP3    H215724   4.703   0.445   4.903
 5240TIP3   OH215725   3.319   2.271   1.388
 5240TIP3    H115726   3.232   2.304   1.409
 5240TIP3    H215727   3.312   2.239   1.298
 5241TIP3   OH215728   4.741   5.363   3.032
 5241TIP3    H115729   4.785   5.336   3.113
 5241TIP3    H215730   4.811   5.400   2.978
 5242TIP3   OH215731   0.591   4.124   2.824
 5242TIP3    H115732   0.533   4.084   2.759
 5242TIP3    H215733   0.640   4.051   2.861
 5243TIP3   OH215734   5.077   4.779   3.297
 5243TIP3    H115735   4.989   4.745   3.285
 5243TIP3    H215736   5.132   4.723   3.243
 5244TIP3   OH215737   2.476   5.480   2.980
 5244TIP3    H115738   2.474   5.389   2.951
 5244TIP3    H215739   2.431   5.479   3.065
 5245TIP3   OH215740   1.754   3.777   1.191
 5245TIP3    H115741   1.708   3.720   1.130
 5245TIP3    H215742   1.686   3.808   1.251
 5246TIP3   OH215743   1.991   1.422   1.551
 5246TIP3    H115744   1.995   1.512   1.583
 5246TIP3    H215745   1.903   1.414   1.515
 5247TIP3   OH215746   1.088   2.488   1.102
 5247TIP3    H115747   1.150   2.500   1.174
 5247TIP3    H215748   1.112   2.556   1.039
 5248TIP3   OH215749   4.493   0.198   5.040
 5248TIP3    H115750   4.575   0.148   5.034
 5248TIP3    H215751   4.460   0.180   5.128
 5249TIP3   OH215752   2.468   1.994   0.828
 5249TIP3    H115753   2.457   2.013   0.921
 5249TIP3    H215754   2.490   1.901   0.825
 5250TIP3   OH215755   5.887   4.802   3.264
 5250TIP3    H115756   5.848   4.888   3.250
 5250TIP3    H215757   5.917   4.776   3.177
 5251TIP3   OH215758   4.306   1.445   4.992
 5251TIP3    H115759   4.276   1.365   4.949
 5251TIP3    H215760   4.229   1.502   4.993
 5252TIP3   OH215761   0.301   3.937   4.400
 5252TIP3    H115762   0.221   3.941   4.452
 5252TIP3    H215763   0.371   3.945   4.464
 5253TIP3   OH215764   5.104   0.605   4.905
 5253TIP3    H115765   5.062   0.651   4.977
 5253TIP3    H215766   5.160   0.670   4.863
 5254TIP3   OH215767   2.793   3.538   3.900
 5254TIP3    H115768   2.731   3.513   3.969
 5254TIP3    H215769   2.741   3.590   3.838
 5255TIP3   OH215770   4.134   0.846   1.199
 5255TIP3    H115771   4.047   0.886   1.196
 5255TIP3    H215772   4.123   0.769   1.254
 5256TIP3   OH215773   0.358   5.983   3.916
 5256TIP3    H115774   0.343   6.057   3.974
 5256TIP3    H215775   0.408   5.921   3.968
 5257TIP3   OH215776   5.711   5.465   3.992
 5257TIP3    H115777   5.654   5.486   4.066
 5257TIP3    H215778   5.786   5.420   4.032
 5258TIP3   OH215779   2.145   5.011   1.414
 5258TIP3    H115780   2.148   5.056   1.329
 5258TIP3    H215781   2.223   4.957   1.415
 5259TIP3   OH215782   5.673   4.707   0.404
 5259TIP3    H115783   5.673   4.641   0.473
 5259TIP3    H215784   5.754   4.692   0.356
 5260TIP3   OH215785   2.431   4.176   0.950
 5260TIP3    H115786   2.365   4.112   0.977
 5260TIP3    H215787   2.442   4.160   0.856
 5261TIP3   OH215788   5.786   1.902   5.069
 5261TIP3    H115789   5.843   1.901   5.146
 5261TIP3    H215790   5.846   1.892   4.995
 5262TIP3   OH215791   1.391   3.734   1.755
 5262TIP3    H115792   1.412   3.658   1.701
 5262TIP3    H215793   1.474   3.783   1.759
 5263TIP3   OH215794   2.836   0.980   2.849
 5263TIP3    H115795   2.817   0.925   2.772
 5263TIP3    H215796   2.926   0.959   2.872
 5264TIP3   OH215797   2.760   0.308   2.350
 5264TIP3    H115798   2.753   0.358   2.431
 5264TIP3    H215799   2.680   0.329   2.302
 5265TIP3   OH215800   0.504   0.988   2.970
 5265TIP3    H115801   0.546   1.063   2.929
 5265TIP3    H215802   0.526   0.995   3.063
 5266TIP3   OH215803   0.493   4.531   1.831
 5266TIP3    H115804   0.559   4.471   1.866
 5266TIP3    H215805   0.543   4.596   1.781
 5267TIP3   OH215806   1.261   3.293   4.231
 5267TIP3    H115807   1.301   3.368   4.187
 5267TIP3    H215808   1.277   3.219   4.172
 5268TIP3   OH215809   0.864   1.990   3.097
 5268TIP3    H115810   0.864   1.895   3.085
 5268TIP3    H215811   0.788   2.007   3.153
 5269TIP3   OH215812   4.713   3.538   2.010
 5269TIP3    H115813   4.790   3.560   2.062
 5269TIP3    H215814   4.748   3.500   1.930
 5270TIP3   OH215815   5.706   5.690   0.507
 5270TIP3    H115816   5.611   5.695   0.520
 5270TIP3    H215817   5.724   5.754   0.438
 5271TIP3   OH215818   3.415   3.619   4.575
 5271TIP3    H115819   3.323   3.639   4.591
 5271TIP3    H215820   3.420   3.523   4.582
 5272TIP3   OH215821   4.056   3.944   0.819
 5272TIP3    H115822   4.119   3.901   0.876
 5272TIP3    H215823   4.106   3.966   0.740
 5273TIP3   OH215824   1.241   4.311   1.479
 5273TIP3    H115825   1.312   4.268   1.528
 5273TIP3    H215826   1.263   4.404   1.482
 5274TIP3   OH215827   2.935   0.547   4.834
 5274TIP3    H115828   2.910   0.534   4.926
 5274TIP3    H215829   3.025   0.578   4.839
 5275TIP3   OH215830   2.879   1.064   2.506
 5275TIP3    H115831   2.828   0.983   2.508
 5275TIP3    H215832   2.952   1.045   2.447
 5276TIP3   OH215833   2.672   5.560  -0.022
 5276TIP3    H115834   2.615   5.589   0.049
 5276TIP3    H215835   2.684   5.466  -0.007
 5277TIP3   OH215836   3.268   4.190   3.344
 5277TIP3    H115837   3.360   4.215   3.342
 5277TIP3    H215838   3.269   4.100   3.378
 5278TIP3   OH215839   3.511   4.973   2.708
 5278TIP3    H115840   3.554   5.044   2.758
 5278TIP3    H215841   3.432   5.013   2.673
 5279TIP3   OH215842   6.334   0.040   1.847
 5279TIP3    H115843   6.257   0.038   1.904
 5279TIP3    H215844   6.408   0.046   1.907
 5280TIP3   OH215845   1.071   4.803   0.612
 5280TIP3    H115846   1.151   4.851   0.634
 5280TIP3    H215847   1.093   4.753   0.533
 5281TIP3   OH215848   5.233   3.811   1.831
 5281TIP3    H115849   5.273   3.856   1.906
 5281TIP3    H215850   5.270   3.723   1.833
 5282TIP3   OH215851   1.678   2.913   3.961
 5282TIP3    H115852   1.678   2.988   4.020
 5282TIP3    H215853   1.600   2.924   3.907
 5283TIP3   OH215854   4.486   4.762   0.585
 5283TIP3    H115855   4.444   4.695   0.531
 5283TIP3    H215856   4.421   4.782   0.653
 5284TIP3   OH215857   2.973   0.091   0.404
 5284TIP3    H115858   2.911   0.100   0.332
 5284TIP3    H215859   3.059   0.101   0.363
 5285TIP3   OH215860   5.228   4.756   0.374
 5285TIP3    H115861   5.195   4.734   0.462
 5285TIP3    H215862   5.188   4.691   0.316
 5286TIP3   OH215863   3.059   5.418   0.563
 5286TIP3    H115864   3.005   5.378   0.630
 5286TIP3    H215865   3.003   5.484   0.523
 5287TIP3   OH215866   5.988   4.118   0.182
 5287TIP3    H115867   6.024   4.035   0.212
 5287TIP3    H215868   6.061   4.161   0.137
 5288TIP3   OH215869   2.934   2.488   1.765
 5288TIP3    H115870   2.893   2.571   1.741
 5288TIP3    H215871   3.028   2.504   1.756
 5289TIP3   OH215872   2.520   0.778   1.569
 5289TIP3    H115873   2.528   0.760   1.475
 5289TIP3    H215874   2.579   0.715   1.610
 5290TIP3   OH215875   1.293   4.118   4.015
 5290TIP3    H115876   1.250   4.044   4.059
 5290TIP3    H215877   1.370   4.136   4.068
 5291TIP3   OH215878   5.763   3.015   2.582
 5291TIP3    H115879   5.765   2.937   2.637
 5291TIP3    H215880   5.692   2.999   2.520
 5292TIP3   OH215881   2.518   3.044   4.934
 5292TIP3    H115882   2.433   2.999   4.934
 5292TIP3    H215883   2.537   3.057   4.841
 5293TIP3   OH215884   3.604   3.638   1.411
 5293TIP3    H115885   3.533   3.677   1.464
 5293TIP3    H215886   3.683   3.683   1.441
 5294TIP3   OH215887   3.122   3.869   0.238
 5294TIP3    H115888   3.038   3.834   0.267
 5294TIP3    H215889   3.149   3.930   0.307
 5295TIP3   OH215890   1.616   4.183   3.865
 5295TIP3    H115891   1.622   4.195   3.959
 5295TIP3    H215892   1.696   4.222   3.830
 5296TIP3   OH215893   6.222   2.501   1.425
 5296TIP3    H115894   6.160   2.541   1.485
 5296TIP3    H215895   6.169   2.477   1.349
 5297TIP3   OH215896   1.593   1.353   0.055
 5297TIP3    H115897   1.524   1.350  -0.011
 5297TIP3    H215898   1.675   1.352   0.005
 5298TIP3   OH215899   2.859   5.759   4.630
 5298TIP3    H115900   2.913   5.829   4.669
 5298TIP3    H215901   2.779   5.804   4.601
 5299TIP3   OH215902   5.215   5.477   2.742
 5299TIP3    H115903   5.216   5.519   2.656
 5299TIP3    H215904   5.214   5.550   2.804
 5300TIP3   OH215905   2.920   1.330   2.145
 5300TIP3    H115906   2.972   1.350   2.223
 5300TIP3    H215907   2.839   1.290   2.179
 5301TIP3   OH215908   0.143   2.847   1.363
 5301TIP3    H115909   0.059   2.876   1.399
 5301TIP3    H215910   0.143   2.752   1.376
 5302TIP3   OH215911   1.168   0.268   0.922
 5302TIP3    H115912   1.105   0.327   0.881
 5302TIP3    H215913   1.169   0.190   0.867
 5303TIP3   OH215914   2.910   5.913   3.410
 5303TIP3    H115915   2.832   5.869   3.378
 5303TIP3    H215916   2.889   6.007   3.405
 5304TIP3   OH215917   6.085   2.224   3.032
 5304TIP3    H115918   6.087   2.139   2.986
 5304TIP3    H215919   6.022   2.211   3.103
 5305TIP3   OH215920   5.687   5.602   2.355
 5305TIP3    H115921   5.737   5.633   2.279
 5305TIP3    H215922   5.599   5.636   2.341
 5306TIP3   OH215923   3.080   2.988   2.589
 5306TIP3    H115924   2.998   2.965   2.546
 5306TIP3    H215925   3.098   3.077   2.559
 5307TIP3   OH215926   2.795   5.514   4.532
 5307TIP3    H115927   2.827   5.598   4.566
 5307TIP3    H215928   2.717   5.537   4.481
 5308TIP3   OH215929   0.536   0.799   3.585
 5308TIP3    H115930   0.512   0.876   3.637
 5308TIP3    H215931   0.632   0.798   3.587
 5309TIP3   OH215932   5.823   4.682   2.062
 5309TIP3    H115933   5.837   4.592   2.032
 5309TIP3    H215934   5.867   4.686   2.147
 5310TIP3   OH215935   6.076   3.796   4.279
 5310TIP3    H115936   6.053   3.795   4.372
 5310TIP3    H215937   6.135   3.871   4.269
 5311TIP3   OH215938   4.456   4.647   5.059
 5311TIP3    H115939   4.386   4.607   5.007
 5311TIP3    H215940   4.498   4.709   4.999
 5312TIP3   OH215941   4.617   2.188   2.643
 5312TIP3    H115942   4.665   2.179   2.561
 5312TIP3    H215943   4.584   2.100   2.662
 5313TIP3   OH215944   1.055   2.925   1.246
 5313TIP3    H115945   1.032   2.961   1.160
 5313TIP3    H215946   1.138   2.966   1.268
 5314TIP3   OH215947   3.707   5.460   0.300
 5314TIP3    H115948   3.791   5.504   0.291
 5314TIP3    H215949   3.642   5.525   0.272
 5315TIP3   OH215950   5.714   0.466   3.476
 5315TIP3    H115951   5.738   0.418   3.555
 5315TIP3    H215952   5.741   0.409   3.404
 5316TIP3   OH215953   1.026   4.029   1.600
 5316TIP3    H115954   1.069   4.023   1.685
 5316TIP3    H215955   0.933   4.033   1.620
 5317TIP3   OH215956   1.585   1.669   4.900
 5317TIP3    H115957   1.556   1.677   4.991
 5317TIP3    H215958   1.629   1.584   4.896
 5318TIP3   OH215959   2.848   1.332   2.544
 5318TIP3    H115960   2.859   1.237   2.538
 5318TIP3    H215961   2.807   1.357   2.461
 5319TIP3   OH215962   4.119   5.089   2.093
 5319TIP3    H115963   4.213   5.104   2.088
 5319TIP3    H215964   4.099   5.034   2.017
 5320TIP3   OH215965   4.500   5.841   3.545
 5320TIP3    H115966   4.501   5.756   3.588
 5320TIP3    H215967   4.529   5.902   3.613
 5321TIP3   OH215968   1.387   2.798   2.152
 5321TIP3    H115969   1.321   2.732   2.173
 5321TIP3    H215970   1.383   2.859   2.226
 5322TIP3   OH215971   1.254   3.965   4.528
 5322TIP3    H115972   1.247   3.945   4.621
 5322TIP3    H215973   1.349   3.971   4.513
 5323TIP3   OH215974   3.905   1.767   4.483
 5323TIP3    H115975   3.841   1.730   4.422
 5323TIP3    H215976   3.969   1.697   4.496
 5324TIP3   OH215977   0.325   4.432   3.253
 5324TIP3    H115978   0.389   4.503   3.254
 5324TIP3    H215979   0.365   4.364   3.199
 5325TIP3   OH215980   4.363   1.882   1.942
 5325TIP3    H115981   4.394   1.968   1.914
 5325TIP3    H215982   4.363   1.829   1.863
 5326TIP3   OH215983   2.890   2.975   2.409
 5326TIP3    H115984   2.950   2.976   2.334
 5326TIP3    H215985   2.837   3.054   2.398
 5327TIP3   OH215986   2.701   1.947   1.632
 5327TIP3    H115987   2.732   1.959   1.542
 5327TIP3    H215988   2.763   1.995   1.685
 5328TIP3   OH215989   4.687   5.145   3.636
 5328TIP3    H115990   4.765   5.200   3.624
 5328TIP3    H215991   4.621   5.206   3.670
 5329TIP3   OH215992   1.866   2.786   2.765
 5329TIP3    H115993   1.943   2.800   2.711
 5329TIP3    H215994   1.854   2.691   2.765
 5330TIP3   OH215995   3.674   2.057   3.871
 5330TIP3    H115996   3.724   2.002   3.931
 5330TIP3    H215997   3.593   2.078   3.919
 5331TIP3   OH215998   2.921   2.067   1.435
 5331TIP3    H115999   2.901   2.134   1.500
 5331TIP3    H216000   2.953   2.116   1.360
 5332TIP3   OH216001   0.267   1.818   2.921
 5332TIP3    H116002   0.207   1.798   2.849
 5332TIP3    H216003   0.324   1.885   2.886
 5333TIP3   OH216004   1.369   5.986   4.287
 5333TIP3    H116005   1.306   5.999   4.216
 5333TIP3    H216006   1.356   5.896   4.315
 5334TIP3   OH216007   5.597   1.600   4.009
 5334TIP3    H116008   5.599   1.551   4.091
 5334TIP3    H216009   5.505   1.603   3.985
 5335TIP3   OH216010   3.181   1.009   1.188
 5335TIP3    H116011   3.265   0.975   1.157
 5335TIP3    H216012   3.193   1.104   1.189
 5336TIP3   OH216013   3.346   5.100   3.200
 5336TIP3    H116014   3.339   5.143   3.285
 5336TIP3    H216015   3.431   5.128   3.165
 5337TIP3   OH216016   2.240   0.261   4.403
 5337TIP3    H116017   2.304   0.207   4.449
 5337TIP3    H216018   2.167   0.202   4.385
 5338TIP3   OH216019   5.116   3.049   2.853
 5338TIP3    H116020   5.152   2.961   2.868
 5338TIP3    H216021   5.144   3.100   2.929
 5339TIP3   OH216022   5.539   4.923   1.456
 5339TIP3    H116023   5.557   4.835   1.488
 5339TIP3    H216024   5.569   4.923   1.365
 5340TIP3   OH216025   4.590   4.879   4.330
 5340TIP3    H116026   4.602   4.800   4.383
 5340TIP3    H216027   4.503   4.870   4.293
 5341TIP3   OH216028   3.001   0.277   3.747
 5341TIP3    H116029   2.910   0.252   3.761
 5341TIP3    H216030   3.012   0.274   3.652
 5342TIP3   OH216031   4.154   5.352   4.004
 5342TIP3    H116032   4.155   5.305   3.921
 5342TIP3    H216033   4.178   5.442   3.982
 5343TIP3   OH216034   4.998   0.974   2.852
 5343TIP3    H116035   4.961   0.894   2.888
 5343TIP3    H216036   5.079   0.988   2.901
 5344TIP3   OH216037   5.041   5.015   0.563
 5344TIP3    H116038   5.106   4.994   0.495
 5344TIP3    H216039   4.993   4.933   0.576
 5345TIP3   OH216040   2.791   4.647   2.693
 5345TIP3    H116041   2.761   4.643   2.602
 5345TIP3    H216042   2.718   4.684   2.742
 5346TIP3   OH216043   3.803   0.105   2.350
 5346TIP3    H116044   3.781   0.196   2.371
 5346TIP3    H216045   3.858   0.111   2.272
 5347TIP3   OH216046   3.451   2.537   1.189
 5347TIP3    H116047   3.540   2.563   1.212
 5347TIP3    H216048   3.461   2.453   1.143
 5348TIP3   OH216049   5.381   5.535   3.344
 5348TIP3    H116050   5.414   5.581   3.421
 5348TIP3    H216051   5.449   5.471   3.324
 5349TIP3   OH216052   0.110   3.674   3.847
 5349TIP3    H116053   0.045   3.619   3.802
 5349TIP3    H216054   0.143   3.619   3.918
 5350TIP3   OH216055   3.032   5.615   2.017
 5350TIP3    H116056   2.998   5.625   2.105
 5350TIP3    H216057   2.970   5.662   1.961
 5351TIP3   OH216058   4.434   5.350   0.458
 5351TIP3    H116059   4.403   5.268   0.420
 5351TIP3    H216060   4.529   5.349   0.442
 5352TIP3   OH216061   2.703   3.829   2.837
 5352TIP3    H116062   2.671   3.868   2.756
 5352TIP3    H216063   2.629   3.778   2.871
 5353TIP3   OH216064   4.086   5.331   2.760
 5353TIP3    H116065   4.096   5.292   2.847
 5353TIP3    H216066   4.145   5.280   2.704
 5354TIP3   OH216067   4.599   3.538   2.355
 5354TIP3    H116068   4.525   3.529   2.295
 5354TIP3    H216069   4.658   3.600   2.312
 5355TIP3   OH216070   0.446   4.597   0.272
 5355TIP3    H116071   0.426   4.682   0.311
 5355TIP3    H216072   0.523   4.613   0.217
 5356TIP3   OH216073   2.793   1.794   2.834
 5356TIP3    H116074   2.837   1.843   2.903
 5356TIP3    H216075   2.855   1.795   2.761
 5357TIP3   OH216076   2.342   5.108   4.857
 5357TIP3    H116077   2.347   5.091   4.763
 5357TIP3    H216078   2.278   5.179   4.865
 5358TIP3   OH216079   1.620   2.016   3.428
 5358TIP3    H116080   1.672   1.979   3.356
 5358TIP3    H216081   1.579   2.094   3.390
 5359TIP3   OH216082   4.074   4.289   1.505
 5359TIP3    H116083   4.107   4.205   1.473
 5359TIP3    H216084   4.148   4.349   1.493
 5360TIP3   OH216085   4.431   1.512   1.651
 5360TIP3    H116086   4.355   1.460   1.676
 5360TIP3    H216087   4.478   1.459   1.587
 5361TIP3   OH216088   4.448   5.639   0.527
 5361TIP3    H116089   4.480   5.554   0.499
 5361TIP3    H216090   4.396   5.621   0.606
 5362TIP3   OH216091   6.317   1.683   0.618
 5362TIP3    H116092   6.392   1.699   0.675
 5362TIP3    H216093   6.326   1.748   0.548
 5363TIP3   OH216094   3.469   3.968   1.813
 5363TIP3    H116095   3.456   3.927   1.899
 5363TIP3    H216096   3.501   3.897   1.757
 5364TIP3   OH216097   4.756   5.043   3.358
 5364TIP3    H116098   4.729   5.065   3.447
 5364TIP3    H216099   4.739   4.949   3.350
 5365TIP3   OH216100   3.573   1.548   2.765
 5365TIP3    H116101   3.605   1.614   2.703
 5365TIP3    H216102   3.560   1.595   2.847
 5366TIP3   OH216103   3.291   1.428   2.655
 5366TIP3    H116104   3.338   1.423   2.572
 5366TIP3    H216105   3.359   1.444   2.721
 5367TIP3   OH216106   2.117   1.157   2.003
 5367TIP3    H116107   2.198   1.184   2.048
 5367TIP3    H216108   2.120   1.061   2.005
 5368TIP3   OH216109   5.685   4.453   2.200
 5368TIP3    H116110   5.765   4.475   2.248
 5368TIP3    H216111   5.704   4.369   2.158
 5369TIP3   OH216112   1.347   5.456   3.930
 5369TIP3    H116113   1.352   5.535   3.983
 5369TIP3    H216114   1.322   5.387   3.993
 5370TIP3   OH216115   5.813   4.393   1.113
 5370TIP3    H116116   5.747   4.323   1.110
 5370TIP3    H216117   5.848   4.397   1.024
 5371TIP3   OH216118   4.009   5.803   3.757
 5371TIP3    H116119   3.997   5.880   3.701
 5371TIP3    H216120   3.933   5.747   3.737
 5372TIP3   OH216121   6.209   1.276   4.441
 5372TIP3    H116122   6.236   1.269   4.349
 5372TIP3    H216123   6.143   1.345   4.441
 5373TIP3   OH216124   2.740   5.130   0.886
 5373TIP3    H116125   2.828   5.093   0.897
 5373TIP3    H216126   2.721   5.118   0.793
 5374TIP3   OH216127   4.672   0.766   2.503
 5374TIP3    H116128   4.633   0.727   2.425
 5374TIP3    H216129   4.634   0.854   2.508
 5375TIP3   OH216130   0.282   5.694   3.576
 5375TIP3    H116131   0.222   5.686   3.651
 5375TIP3    H216132   0.225   5.692   3.500
 5376TIP3   OH216133   3.389   5.548   4.504
 5376TIP3    H116134   3.323   5.565   4.437
 5376TIP3    H216135   3.350   5.481   4.560
 5377TIP3   OH216136   5.611   3.581   1.810
 5377TIP3    H116137   5.665   3.551   1.737
 5377TIP3    H216138   5.565   3.658   1.776
 5378TIP3   OH216139   6.278   2.773   0.760
 5378TIP3    H116140   6.203   2.828   0.739
 5378TIP3    H216141   6.251   2.685   0.735
 5379TIP3   OH216142   5.111   3.792   1.611
 5379TIP3    H116143   5.093   3.875   1.566
 5379TIP3    H216144   5.141   3.818   1.698
 5380TIP3   OH216145   3.403   3.755   3.591
 5380TIP3    H116146   3.453   3.679   3.560
 5380TIP3    H216147   3.467   3.807   3.640
 5381TIP3   OH216148   5.379   3.346   2.737
 5381TIP3    H116149   5.350   3.295   2.662
 5381TIP3    H216150   5.428   3.419   2.700
 5382TIP3   OH216151   1.999   0.333   0.203
 5382TIP3    H116152   1.933   0.355   0.268
 5382TIP3    H216153   2.074   0.302   0.254
 5383TIP3   OH216154   2.477   1.860   3.738
 5383TIP3    H116155   2.508   1.931   3.793
 5383TIP3    H216156   2.553   1.832   3.687
 5384TIP3   OH216157   3.668   4.548   1.781
 5384TIP3    H116158   3.692   4.566   1.871
 5384TIP3    H216159   3.604   4.615   1.759
 5385TIP3   OH216160   2.444   4.718   3.378
 5385TIP3    H116161   2.531   4.746   3.350
 5385TIP3    H216162   2.392   4.798   3.376
 5386TIP3   OH216163   6.357   5.031   1.072
 5386TIP3    H116164   6.335   5.074   0.989
 5386TIP3    H216165   6.320   4.943   1.064
 5387TIP3   OH216166   5.951   0.346   2.495
 5387TIP3    H116167   6.014   0.384   2.556
 5387TIP3    H216168   5.896   0.290   2.550
 5388TIP3   OH216169   1.544   5.658   1.820
 5388TIP3    H116170   1.500   5.574   1.814
 5388TIP3    H216171   1.502   5.712   1.753
 5389TIP3   OH216172   5.702   4.046   0.512
 5389TIP3    H116173   5.627   4.060   0.455
 5389TIP3    H216174   5.735   3.959   0.487
 5390TIP3   OH216175   5.014   5.723   0.761
 5390TIP3    H116176   4.938   5.679   0.799
 5390TIP3    H216177   5.085   5.705   0.822
 5391TIP3   OH216178   0.019   0.289   1.255
 5391TIP3    H116179  -0.073   0.310   1.268
 5391TIP3    H216180   0.045   0.344   1.181
 5392TIP3   OH216181   3.430   2.667   2.312
 5392TIP3    H116182   3.504   2.704   2.361
 5392TIP3    H216183   3.408   2.587   2.359
 5393TIP3   OH216184   1.565   4.155   2.901
 5393TIP3    H116185   1.521   4.086   2.951
 5393TIP3    H216186   1.493   4.204   2.860
 5394TIP3   OH216187   2.860   1.189   3.604
 5394TIP3    H116188   2.945   1.174   3.564
 5394TIP3    H216189   2.801   1.203   3.530
 5395TIP3   OH216190   0.579   4.233   0.659
 5395TIP3    H116191   0.589   4.324   0.684
 5395TIP3    H216192   0.526   4.236   0.579
 5396TIP3   OH216193   5.259   5.470   2.436
 5396TIP3    H116194   5.305   5.546   2.402
 5396TIP3    H216195   5.326   5.402   2.441
 5397TIP3   OH216196   3.295   1.409   3.034
 5397TIP3    H116197   3.316   1.419   3.127
 5397TIP3    H216198   3.343   1.480   2.991
 5398TIP3   OH216199   1.741   5.085   3.107
 5398TIP3    H116200   1.758   5.043   3.023
 5398TIP3    H216201   1.686   5.022   3.155
 5399TIP3   OH216202   2.734   2.203   3.303
 5399TIP3    H116203   2.751   2.191   3.396
 5399TIP3    H216204   2.702   2.293   3.296
 5400TIP3   OH216205   1.825   4.670   2.887
 5400TIP3    H116206   1.861   4.586   2.916
 5400TIP3    H216207   1.767   4.647   2.814
 5401TIP3   OH216208   3.212   3.236   4.184
 5401TIP3    H116209   3.144   3.300   4.160
 5401TIP3    H216210   3.165   3.153   4.192
 5402TIP3   OH216211   4.890   4.182   2.625
 5402TIP3    H116212   4.854   4.113   2.570
 5402TIP3    H216213   4.833   4.183   2.702
 5403TIP3   OH216214   2.495   3.879   2.169
 5403TIP3    H116215   2.484   3.874   2.264
 5403TIP3    H216216   2.428   3.941   2.141
 5404TIP3   OH216217   3.116   5.205   0.785
 5404TIP3    H116218   3.095   5.208   0.879
 5404TIP3    H216219   3.185   5.270   0.774
 5405TIP3   OH216220   0.300   4.533   0.960
 5405TIP3    H116221   0.267   4.444   0.946
 5405TIP3    H216222   0.250   4.565   1.035
 5406TIP3   OH216223   1.000   0.545   1.467
 5406TIP3    H116224   0.986   0.637   1.445
 5406TIP3    H216225   1.006   0.544   1.562
 5407TIP3   OH216226   4.093   3.088   2.985
 5407TIP3    H116227   4.035   3.097   3.060
 5407TIP3    H216228   4.111   2.994   2.980
 5408TIP3   OH216229   6.050   5.605   4.960
 5408TIP3    H116230   6.119   5.594   5.025
 5408TIP3    H216231   6.020   5.695   4.971
 5409TIP3   OH216232   3.332   1.864   1.445
 5409TIP3    H116233   3.391   1.792   1.468
 5409TIP3    H216234   3.385   1.943   1.457
 5410TIP3   OH216235   2.308   3.628   2.313
 5410TIP3    H116236   2.239   3.689   2.339
 5410TIP3    H216237   2.261   3.554   2.274
 5411TIP3   OH216238   4.605   0.278   0.734
 5411TIP3    H116239   4.528   0.261   0.679
 5411TIP3    H216240   4.593   0.221   0.810
 5412TIP3   OH216241   4.895   0.058   3.080
 5412TIP3    H116242   4.888  -0.011   3.147
 5412TIP3    H216243   4.867   0.015   3.000
 5413TIP3   OH216244   5.300   0.674   0.603
 5413TIP3    H116245   5.375   0.733   0.605
 5413TIP3    H216246   5.339   0.586   0.610
 5414TIP3   OH216247   6.320   3.495   0.485
 5414TIP3    H116248   6.390   3.504   0.549
 5414TIP3    H216249   6.242   3.477   0.538
 5415TIP3   OH216250   0.801   2.868   3.293
 5415TIP3    H116251   0.778   2.939   3.232
 5415TIP3    H216252   0.881   2.899   3.336
 5416TIP3   OH216253   5.268   4.966   1.269
 5416TIP3    H116254   5.205   5.031   1.239
 5416TIP3    H216255   5.294   4.996   1.356
 5417TIP3   OH216256   1.163   0.366   3.756
 5417TIP3    H116257   1.149   0.379   3.662
 5417TIP3    H216258   1.124   0.443   3.797
 5418TIP3   OH216259   6.002   2.032   0.402
 5418TIP3    H116260   6.012   1.950   0.352
 5418TIP3    H216261   6.000   2.100   0.335
 5419TIP3   OH216262   4.056   0.838   3.555
 5419TIP3    H116263   4.072   0.835   3.650
 5419TIP3    H216264   4.039   0.931   3.537
 5420TIP3   OH216265   5.361   3.218   3.581
 5420TIP3    H116266   5.341   3.307   3.609
 5420TIP3    H216267   5.378   3.226   3.487
 5421TIP3   OH216268   2.958   1.199   5.058
 5421TIP3    H116269   3.016   1.253   5.004
 5421TIP3    H216270   2.882   1.255   5.076
 5422TIP3   OH216271   5.121   5.437   4.857
 5422TIP3    H116272   5.033   5.458   4.887
 5422TIP3    H216273   5.110   5.359   4.802
 5423TIP3   OH216274   2.119   4.889   2.439
 5423TIP3    H116275   2.062   4.846   2.375
 5423TIP3    H216276   2.059   4.940   2.494
 5424TIP3   OH216277   5.687   5.815   4.950
 5424TIP3    H116278   5.763   5.795   5.003
 5424TIP3    H216279   5.628   5.741   4.963
 5425TIP3   OH216280   0.840   5.935   4.900
 5425TIP3    H116281   0.922   5.888   4.916
 5425TIP3    H216282   0.772   5.876   4.933
 5426TIP3   OH216283   5.388   2.533   3.933
 5426TIP3    H116284   5.302   2.495   3.953
 5426TIP3    H216285   5.421   2.562   4.018
 5427TIP3   OH216286   1.320   1.334   4.534
 5427TIP3    H116287   1.248   1.389   4.503
 5427TIP3    H216288   1.286   1.245   4.530
 5428TIP3   OH216289   2.702   4.794   3.529
 5428TIP3    H116290   2.769   4.792   3.461
 5428TIP3    H216291   2.687   4.702   3.550
 5429TIP3   OH216292   6.081   1.939   3.014
 5429TIP3    H116293   6.103   1.946   3.107
 5429TIP3    H216294   6.015   1.869   3.011
 5430TIP3   OH216295   0.268   1.499   3.041
 5430TIP3    H116296   0.257   1.409   3.072
 5430TIP3    H216297   0.272   1.552   3.120
 5431TIP3   OH216298   5.423   1.512   1.052
 5431TIP3    H116299   5.422   1.443   1.118
 5431TIP3    H216300   5.341   1.559   1.066
 5432TIP3   OH216301   6.073   3.198   3.500
 5432TIP3    H116302   5.987   3.220   3.464
 5432TIP3    H216303   6.077   3.102   3.494
 5433TIP3   OH216304   2.554   4.443   3.645
 5433TIP3    H116305   2.471   4.424   3.688
 5433TIP3    H216306   2.533   4.449   3.552
 5434TIP3   OH216307   5.672   4.022   1.294
 5434TIP3    H116308   5.756   4.003   1.252
 5434TIP3    H216309   5.636   4.096   1.244
 5435TIP3   OH216310   6.309   5.422   4.026
 5435TIP3    H116311   6.394   5.462   4.009
 5435TIP3    H216312   6.294   5.435   4.120
 5436TIP3   OH216313   3.638   5.279   1.455
 5436TIP3    H116314   3.725   5.287   1.494
 5436TIP3    H216315   3.655   5.238   1.370
 5437TIP3   OH216316   2.388   4.774   2.110
 5437TIP3    H116317   2.322   4.840   2.087
 5437TIP3    H216318   2.389   4.714   2.036
 5438TIP3   OH216319   5.783   5.842   3.607
 5438TIP3    H116320   5.771   5.807   3.519
 5438TIP3    H216321   5.773   5.766   3.664
 5439TIP3   OH216322   2.609   2.971   0.847
 5439TIP3    H116323   2.579   3.061   0.839
 5439TIP3    H216324   2.586   2.947   0.937
 5440TIP3   OH216325   5.451   5.083   3.739
 5440TIP3    H116326   5.523   5.043   3.689
 5440TIP3    H216327   5.495   5.145   3.798
 5441TIP3   OH216328   3.590   2.358   1.441
 5441TIP3    H116329   3.504   2.323   1.417
 5441TIP3    H216330   3.574   2.451   1.456
 5442TIP3   OH216331   5.563   0.409   2.185
 5442TIP3    H116332   5.588   0.338   2.126
 5442TIP3    H216333   5.468   0.400   2.195
 5443TIP3   OH216334   3.743   3.038   3.459
 5443TIP3    H116335   3.835   3.028   3.436
 5443TIP3    H216336   3.698   2.970   3.409
 5444TIP3   OH216337   4.648   4.397   4.847
 5444TIP3    H116338   4.576   4.335   4.854
 5444TIP3    H216339   4.623   4.469   4.906
 5445TIP3   OH216340   1.245   3.379   3.855
 5445TIP3    H116341   1.322   3.353   3.905
 5445TIP3    H216342   1.255   3.335   3.771
 5446TIP3   OH216343   3.933   3.303   0.235
 5446TIP3    H116344   3.880   3.284   0.312
 5446TIP3    H216345   3.870   3.334   0.169
 5447TIP3   OH216346   0.246   5.301   3.174
 5447TIP3    H116347   0.191   5.351   3.235
 5447TIP3    H216348   0.330   5.347   3.174
 5448TIP3   OH216349   2.478   1.290   4.763
 5448TIP3    H116350   2.424   1.228   4.813
 5448TIP3    H216351   2.420   1.321   4.693
 5449TIP3   OH216352   4.667   0.944   0.223
 5449TIP3    H116353   4.704   1.011   0.281
 5449TIP3    H216354   4.633   0.877   0.282
 5450TIP3   OH216355   4.928   3.808   2.502
 5450TIP3    H116356   4.872   3.867   2.451
 5450TIP3    H216357   4.983   3.866   2.554
 5451TIP3   OH216358   0.187   4.420   4.255
 5451TIP3    H116359   0.251   4.351   4.271
 5451TIP3    H216360   0.110   4.394   4.306
 5452TIP3   OH216361   4.289   3.528   2.250
 5452TIP3    H116362   4.276   3.619   2.279
 5452TIP3    H216363   4.255   3.475   2.321
 5453TIP3   OH216364   4.644   1.553   2.052
 5453TIP3    H116365   4.721   1.575   1.999
 5453TIP3    H216366   4.612   1.471   2.015
 5454TIP3   OH216367   5.168   2.602   3.105
 5454TIP3    H116368   5.202   2.649   3.029
 5454TIP3    H216369   5.166   2.667   3.175
 5455TIP3   OH216370   4.677   1.058   2.797
 5455TIP3    H116371   4.760   1.077   2.840
 5455TIP3    H216372   4.657   1.137   2.747
 5456TIP3   OH216373   0.907   2.049   3.496
 5456TIP3    H116374   0.842   2.006   3.441
 5456TIP3    H216375   0.908   2.139   3.466
 5457TIP3   OH216376   2.896   4.046   1.678
 5457TIP3    H116377   2.933   4.027   1.592
 5457TIP3    H216378   2.942   3.987   1.738
 5458TIP3   OH216379   0.259   2.113   1.708
 5458TIP3    H116380   0.274   2.085   1.798
 5458TIP3    H216381   0.165   2.099   1.693
 5459TIP3   OH216382   1.934   4.606   3.442
 5459TIP3    H116383   1.944   4.656   3.360
 5459TIP3    H216384   2.020   4.612   3.484
 5460TIP3   OH216385   3.447   2.501   5.004
 5460TIP3    H116386   3.370   2.446   5.019
 5460TIP3    H216387   3.411   2.583   4.969
 5461TIP3   OH216388   2.061   3.706   0.715
 5461TIP3    H116389   2.029   3.663   0.794
 5461TIP3    H216390   2.144   3.745   0.742
 5462TIP3   OH216391   3.853   1.978   0.845
 5462TIP3    H116392   3.828   2.017   0.762
 5462TIP3    H216393   3.942   1.946   0.831
 5463TIP3   OH216394   4.747   1.340   2.925
 5463TIP3    H116395   4.706   1.334   2.839
 5463TIP3    H216396   4.682   1.305   2.986
 5464TIP3   OH216397   3.744   0.487   0.587
 5464TIP3    H116398   3.758   0.573   0.628
 5464TIP3    H216399   3.809   0.430   0.629
 5465TIP3   OH216400   4.905   4.845   4.300
 5465TIP3    H116401   4.849   4.904   4.350
 5465TIP3    H216402   4.844   4.784   4.258
 5466TIP3   OH216403   1.007   3.523   5.160
 5466TIP3    H116404   1.042   3.611   5.142
 5466TIP3    H216405   0.984   3.525   5.253
 5467TIP3   OH216406   1.519   1.090   3.049
 5467TIP3    H116407   1.491   1.071   2.959
 5467TIP3    H216408   1.573   1.168   3.041
 5468TIP3   OH216409   5.229   2.929   1.242
 5468TIP3    H116410   5.163   2.912   1.309
 5468TIP3    H216411   5.280   2.848   1.238
 5469TIP3   OH216412   3.094   0.096   3.911
 5469TIP3    H116413   3.064   0.139   3.831
 5469TIP3    H216414   3.116   0.168   3.970
 5470TIP3   OH216415   1.510   5.972   4.566
 5470TIP3    H116416   1.537   6.028   4.493
 5470TIP3    H216417   1.427   6.009   4.596
 5471TIP3   OH216418   0.922   4.754   5.099
 5471TIP3    H116419   0.865   4.820   5.060
 5471TIP3    H216420   1.005   4.763   5.052
 5472TIP3   OH216421   3.482   4.743   2.930
 5472TIP3    H116422   3.521   4.800   2.864
 5472TIP3    H216423   3.406   4.704   2.888
 5473TIP3   OH216424   0.648   0.551   3.462
 5473TIP3    H116425   0.702   0.588   3.532
 5473TIP3    H216426   0.568   0.522   3.506
 5474TIP3   OH216427   5.076   1.038   3.709
 5474TIP3    H116428   4.997   1.066   3.661
 5474TIP3    H216429   5.124   1.119   3.723
 5475TIP3   OH216430   1.686   1.001   3.462
 5475TIP3    H116431   1.708   0.931   3.524
 5475TIP3    H216432   1.621   0.962   3.404
 5476TIP3   OH216433   5.471   4.088   1.557
 5476TIP3    H116434   5.412   4.021   1.523
 5476TIP3    H216435   5.543   4.092   1.493
 5477TIP3   OH216436   4.965   3.816   0.489
 5477TIP3    H116437   4.883   3.857   0.461
 5477TIP3    H216438   4.963   3.819   0.584
 5478TIP3   OH216439   2.247   0.354   2.198
 5478TIP3    H116440   2.244   0.381   2.106
 5478TIP3    H216441   2.163   0.382   2.234
 5479TIP3   OH216442   5.843   1.664   0.960
 5479TIP3    H116443   5.899   1.695   0.889
 5479TIP3    H216444   5.784   1.737   0.978
 5480TIP3   OH216445   6.121   2.898   4.586
 5480TIP3    H116446   6.132   2.803   4.578
 5480TIP3    H216447   6.049   2.908   4.648
 5481TIP3   OH216448   1.918   2.962   3.675
 5481TIP3    H116449   1.915   2.871   3.705
 5481TIP3    H216450   1.906   3.014   3.755
 5482TIP3   OH216451   4.712   2.328   3.367
 5482TIP3    H116452   4.707   2.384   3.290
 5482TIP3    H216453   4.776   2.371   3.424
 5483TIP3   OH216454   2.302   3.010   2.767
 5483TIP3    H116455   2.263   2.965   2.692
 5483TIP3    H216456   2.318   2.941   2.831
 5484TIP3   OH216457   5.438   3.214   1.779
 5484TIP3    H116458   5.419   3.148   1.712
 5484TIP3    H216459   5.352   3.243   1.809
 5485TIP3   OH216460   5.705   2.515   3.753
 5485TIP3    H116461   5.638   2.582   3.767
 5485TIP3    H216462   5.705   2.463   3.833
 5486TIP3   OH216463   3.600   1.501   1.855
 5486TIP3    H116464   3.562   1.514   1.941
 5486TIP3    H216465   3.526   1.502   1.795
 5487TIP3   OH216466   2.773   0.485   2.848
 5487TIP3    H116467   2.766   0.550   2.918
 5487TIP3    H216468   2.837   0.422   2.881
 5488TIP3   OH216469   0.502   4.158   0.360
 5488TIP3    H116470   0.424   4.199   0.323
 5488TIP3    H216471   0.559   4.141   0.285
 5489TIP3   OH216472   2.306   0.345   2.487
 5489TIP3    H116473   2.255   0.338   2.407
 5489TIP3    H216474   2.338   0.435   2.488
 5490TIP3   OH216475   3.506   2.837   3.888
 5490TIP3    H116476   3.596   2.807   3.905
 5490TIP3    H216477   3.453   2.758   3.896
 5491TIP3   OH216478   2.739   4.554   1.809
 5491TIP3    H116479   2.757   4.557   1.902
 5491TIP3    H216480   2.764   4.640   1.776
 5492TIP3   OH216481   2.706   5.615   3.851
 5492TIP3    H116482   2.766   5.550   3.887
 5492TIP3    H216483   2.724   5.694   3.903
 5493TIP3   OH216484   4.244   4.516   1.536
 5493TIP3    H116485   4.246   4.547   1.626
 5493TIP3    H216486   4.334   4.489   1.518
 5494TIP3   OH216487   0.238   5.430   3.761
 5494TIP3    H116488   0.189   5.508   3.789
 5494TIP3    H216489   0.176   5.380   3.709
 5495TIP3   OH216490   1.621   5.742   2.098
 5495TIP3    H116491   1.567   5.698   2.163
 5495TIP3    H216492   1.591   5.708   2.014
 5496TIP3   OH216493   1.261   0.663   0.205
 5496TIP3    H116494   1.177   0.674   0.248
 5496TIP3    H216495   1.280   0.748   0.165
 5497TIP3   OH216496   5.146   3.768   0.087
 5497TIP3    H116497   5.239   3.749   0.080
 5497TIP3    H216498   5.104   3.682   0.098
 5498TIP3   OH216499   0.244   2.749   2.332
 5498TIP3    H116500   0.168   2.692   2.345
 5498TIP3    H216501   0.238   2.814   2.401
 5499TIP3   OH216502   5.158   3.768   0.724
 5499TIP3    H116503   5.166   3.860   0.748
 5499TIP3    H216504   5.114   3.727   0.799
 5500TIP3   OH216505   3.754   2.199   0.097
 5500TIP3    H116506   3.765   2.107   0.122
 5500TIP3    H216507   3.821   2.214   0.030
 5501TIP3   OH216508   4.705   4.051   1.462
 5501TIP3    H116509   4.797   4.043   1.439
 5501TIP3    H216510   4.682   3.967   1.501
 5502TIP3   OH216511   4.620   2.287   1.323
 5502TIP3    H116512   4.669   2.321   1.248
 5502TIP3    H216513   4.533   2.324   1.313
 5503TIP3   OH216514   1.881   3.333   4.374
 5503TIP3    H116515   1.945   3.335   4.444
 5503TIP3    H216516   1.804   3.376   4.410
 5504TIP3   OH216517   5.439   2.275   3.698
 5504TIP3    H116518   5.401   2.327   3.627
 5504TIP3    H216519   5.440   2.335   3.773
 5505TIP3   OH216520   0.792   4.352   3.919
 5505TIP3    H116521   0.791   4.263   3.883
 5505TIP3    H216522   0.863   4.350   3.984
 5506TIP3   OH216523   3.746   4.706   3.898
 5506TIP3    H116524   3.725   4.636   3.960
 5506TIP3    H216525   3.680   4.774   3.916
 5507TIP3   OH216526   4.374   4.496   2.134
 5507TIP3    H116527   4.299   4.443   2.159
 5507TIP3    H216528   4.356   4.583   2.170
 5508TIP3   OH216529   0.820   5.589   4.899
 5508TIP3    H116530   0.755   5.529   4.864
 5508TIP3    H216531   0.772   5.669   4.918
 5509TIP3   OH216532   4.012   3.530   3.653
 5509TIP3    H116533   4.056   3.477   3.719
 5509TIP3    H216534   4.042   3.619   3.669
 5510TIP3   OH216535   1.198   1.504   4.237
 5510TIP3    H116536   1.194   1.503   4.333
 5510TIP3    H216537   1.108   1.520   4.210
 5511TIP3   OH216538   0.117   0.449   3.649
 5511TIP3    H116539   0.165   0.530   3.666
 5511TIP3    H216540   0.039   0.456   3.703
 5512TIP3   OH216541   5.679   3.188   1.474
 5512TIP3    H116542   5.608   3.250   1.486
 5512TIP3    H216543   5.658   3.143   1.392
 5513TIP3   OH216544   2.232   2.107   3.443
 5513TIP3    H116545   2.313   2.131   3.398
 5513TIP3    H216546   2.251   2.124   3.535
 5514TIP3   OH216547   3.063   0.024   3.369
 5514TIP3    H116548   3.013  -0.018   3.439
 5514TIP3    H216549   3.079  -0.046   3.306
 5515TIP3   OH216550   1.259   3.415   2.028
 5515TIP3    H116551   1.251   3.492   1.970
 5515TIP3    H216552   1.193   3.354   1.995
 5516TIP3   OH216553   5.794   5.184   4.131
 5516TIP3    H116554   5.801   5.092   4.106
 5516TIP3    H216555   5.720   5.187   4.192
 5517TIP3   OH216556   1.343   5.751   3.036
 5517TIP3    H116557   1.359   5.665   2.997
 5517TIP3    H216558   1.397   5.811   2.984
 5518TIP3   OH216559   1.869   3.157   1.237
 5518TIP3    H116560   1.849   3.231   1.180
 5518TIP3    H216561   1.841   3.185   1.324
 5519TIP3   OH216562   4.833   3.124   4.388
 5519TIP3    H116563   4.757   3.150   4.336
 5519TIP3    H216564   4.796   3.098   4.472
 5520TIP3   OH216565   2.857   5.771   1.833
 5520TIP3    H116566   2.796   5.789   1.904
 5520TIP3    H216567   2.813   5.802   1.754
 5521TIP3   OH216568   4.543   5.194   1.035
 5521TIP3    H116569   4.613   5.145   0.993
 5521TIP3    H216570   4.499   5.240   0.964
 5522TIP3   OH216571   4.788   1.666   1.607
 5522TIP3    H116572   4.884   1.674   1.603
 5522TIP3    H216573   4.773   1.596   1.671
 5523TIP3   OH216574   4.221   0.873   2.355
 5523TIP3    H116575   4.138   0.902   2.316
 5523TIP3    H216576   4.245   0.795   2.305
 5524TIP3   OH216577   1.080   1.563   3.580
 5524TIP3    H116578   1.131   1.497   3.628
 5524TIP3    H216579   1.104   1.646   3.621
 5525TIP3   OH216580   1.485   5.941   3.261
 5525TIP3    H116581   1.414   5.962   3.200
 5525TIP3    H216582   1.516   5.855   3.233
 5526TIP3   OH216583   1.109   1.870   3.555
 5526TIP3    H116584   1.049   1.930   3.512
 5526TIP3    H216585   1.194   1.887   3.514
 5527TIP3   OH216586   0.271   4.519   2.565
 5527TIP3    H116587   0.343   4.456   2.570
 5527TIP3    H216588   0.232   4.518   2.652
 5528TIP3   OH216589   1.509   4.581   3.187
 5528TIP3    H116590   1.561   4.552   3.111
 5528TIP3    H216591   1.426   4.534   3.179
 5529TIP3   OH216592   4.801   4.288   0.704
 5529TIP3    H116593   4.799   4.380   0.679
 5529TIP3    H216594   4.891   4.261   0.688
 5530TIP3   OH216595   3.683   2.629   1.278
 5530TIP3    H116596   3.752   2.676   1.232
 5530TIP3    H216597   3.717   2.618   1.367
 5531TIP3   OH216598   3.242   2.967   4.759
 5531TIP3    H116599   3.274   2.882   4.786
 5531TIP3    H216600   3.248   3.022   4.837
 5532TIP3   OH216601   5.413   0.275   2.449
 5532TIP3    H116602   5.466   0.258   2.370
 5532TIP3    H216603   5.413   0.191   2.495
 5533TIP3   OH216604   1.364   4.252   0.586
 5533TIP3    H116605   1.290   4.312   0.575
 5533TIP3    H216606   1.399   4.241   0.498
 5534TIP3   OH216607   2.795   5.097   1.186
 5534TIP3    H116608   2.858   5.147   1.134
 5534TIP3    H216609   2.727   5.071   1.123
 5535TIP3   OH216610   1.169   2.088   2.155
 5535TIP3    H116611   1.200   2.001   2.131
 5535TIP3    H216612   1.234   2.120   2.218
 5536TIP3   OH216613   3.638   2.818   3.025
 5536TIP3    H116614   3.644   2.724   3.008
 5536TIP3    H216615   3.622   2.857   2.939
 5537TIP3   OH216616   4.289   2.092   4.052
 5537TIP3    H116617   4.277   2.186   4.062
 5537TIP3    H216618   4.277   2.076   3.958
 5538TIP3   OH216619   2.300   1.866   2.702
 5538TIP3    H116620   2.251   1.855   2.621
 5538TIP3    H216621   2.266   1.946   2.741
 5539TIP3   OH216622   0.149   2.207   2.558
 5539TIP3    H116623   0.141   2.173   2.647
 5539TIP3    H216624   0.206   2.144   2.513
 5540TIP3   OH216625   1.529   4.484   1.609
 5540TIP3    H116626   1.575   4.535   1.542
 5540TIP3    H216627   1.520   4.544   1.683
 5541TIP3   OH216628   1.727   5.524   4.058
 5541TIP3    H116629   1.755   5.434   4.077
 5541TIP3    H216630   1.658   5.541   4.122
 5542TIP3   OH216631   1.134   5.706   4.262
 5542TIP3    H116632   1.080   5.716   4.183
 5542TIP3    H216633   1.201   5.642   4.236
 5543TIP3   OH216634   2.814   0.905   3.341
 5543TIP3    H116635   2.752   0.933   3.274
 5543TIP3    H216636   2.877   0.977   3.346
 5544TIP3   OH216637   1.982   4.136   4.170
 5544TIP3    H116638   1.901   4.181   4.145
 5544TIP3    H216639   2.033   4.203   4.217
 5545TIP3   OH216640   4.015   4.872   1.013
 5545TIP3    H116641   4.108   4.849   1.014
 5545TIP3    H216642   4.006   4.935   0.942
 5546TIP3   OH216643   4.125   3.639   2.446
 5546TIP3    H116644   4.168   3.714   2.487
 5546TIP3    H216645   4.085   3.590   2.518
 5547TIP3   OH216646   1.892   5.632   0.445
 5547TIP3    H116647   1.812   5.669   0.482
 5547TIP3    H216648   1.892   5.540   0.474
 5548TIP3   OH216649   0.361   0.041   0.792
 5548TIP3    H116650   0.357  -0.044   0.750
 5548TIP3    H216651   0.455   0.060   0.798
 5549TIP3   OH216652   4.483   1.948   0.345
 5549TIP3    H116653   4.499   1.941   0.439
 5549TIP3    H216654   4.570   1.937   0.305
 5550TIP3   OH216655   3.599   2.353   1.759
 5550TIP3    H116656   3.583   2.261   1.737
 5550TIP3    H216657   3.564   2.402   1.684
 5551TIP3   OH216658   5.338   1.915   3.124
 5551TIP3    H116659   5.373   1.916   3.035
 5551TIP3    H216660   5.390   1.980   3.171
 5552TIP3   OH216661   5.688   2.963   4.247
 5552TIP3    H116662   5.640   3.040   4.216
 5552TIP3    H216663   5.780   2.987   4.236
 5553TIP3   OH216664   2.365   1.637   2.146
 5553TIP3    H116665   2.424   1.613   2.074
 5553TIP3    H216666   2.423   1.667   2.216
 5554TIP3   OH216667   5.878   4.774   2.535
 5554TIP3    H116668   5.954   4.725   2.504
 5554TIP3    H216669   5.811   4.707   2.550
 5555TIP3   OH216670   3.206   0.090   0.276
 5555TIP3    H116671   3.205   0.185   0.279
 5555TIP3    H216672   3.194   0.068   0.183
 5556TIP3   OH216673   3.382   3.330   0.163
 5556TIP3    H116674   3.354   3.311   0.074
 5556TIP3    H216675   3.478   3.324   0.160
 5557TIP3   OH216676   5.763   3.923   3.381
 5557TIP3    H116677   5.813   3.893   3.305
 5557TIP3    H216678   5.724   4.006   3.353
 5558TIP3   OH216679   3.420   4.629   2.124
 5558TIP3    H116680   3.467   4.671   2.052
 5558TIP3    H216681   3.419   4.536   2.103
 5559TIP3   OH216682   1.073   0.084   3.177
 5559TIP3    H116683   1.000   0.131   3.138
 5559TIP3    H216684   1.107   0.029   3.107
 5560TIP3   OH216685   6.013   1.923   1.035
 5560TIP3    H116686   6.074   1.868   0.986
 5560TIP3    H216687   6.003   1.879   1.119
 5561TIP3   OH216688   3.694   5.578   4.129
 5561TIP3    H116689   3.783   5.578   4.092
 5561TIP3    H216690   3.654   5.499   4.094
 5562TIP3   OH216691   3.434   2.207   0.062
 5562TIP3    H116692   3.438   2.160   0.146
 5562TIP3    H216693   3.513   2.261   0.062
 5563TIP3   OH216694   5.751   1.662   0.307
 5563TIP3    H116695   5.744   1.567   0.295
 5563TIP3    H216696   5.743   1.675   0.402
 5564TIP3   OH216697   4.595   4.943   3.772
 5564TIP3    H116698   4.593   4.986   3.858
 5564TIP3    H216699   4.631   5.008   3.713
 5565TIP3   OH216700   6.326   0.281   4.236
 5565TIP3    H116701   6.347   0.226   4.310
 5565TIP3    H216702   6.230   0.283   4.233
 5566TIP3   OH216703   4.267   1.829   3.092
 5566TIP3    H116704   4.338   1.875   3.136
 5566TIP3    H216705   4.227   1.894   3.035
 5567TIP3   OH216706   3.496   4.191   1.244
 5567TIP3    H116707   3.542   4.129   1.301
 5567TIP3    H216708   3.512   4.277   1.284
 5568TIP3   OH216709   3.809   1.622   2.213
 5568TIP3    H116710   3.880   1.685   2.203
 5568TIP3    H216711   3.730   1.676   2.218
 5569TIP3   OH216712   3.689   1.777   1.844
 5569TIP3    H116713   3.685   1.681   1.838
 5569TIP3    H216714   3.778   1.795   1.875
 5570TIP3   OH216715   2.989   4.694   0.753
 5570TIP3    H116716   3.045   4.653   0.819
 5570TIP3    H216717   3.023   4.782   0.743
 5571TIP3   OH216718   1.035   2.994   3.546
 5571TIP3    H116719   1.079   3.044   3.477
 5571TIP3    H216720   1.000   3.061   3.605
 5572TIP3   OH216721   5.674   0.257   0.221
 5572TIP3    H116722   5.734   0.212   0.161
 5572TIP3    H216723   5.636   0.327   0.168
 5573TIP3   OH216724   5.494   3.397   1.471
 5573TIP3    H116725   5.450   3.374   1.390
 5573TIP3    H216726   5.442   3.469   1.507
 5574TIP3   OH216727   1.716   3.399   0.840
 5574TIP3    H116728   1.623   3.383   0.854
 5574TIP3    H216729   1.731   3.371   0.749
 5575TIP3   OH216730   4.464   1.258   4.136
 5575TIP3    H116731   4.432   1.279   4.048
 5575TIP3    H216732   4.473   1.344   4.178
 5576TIP3   OH216733   4.094   1.128   3.921
 5576TIP3    H116734   4.130   1.163   4.002
 5576TIP3    H216735   4.146   1.050   3.903
 5577TIP3   OH216736   5.796   5.303   4.865
 5577TIP3    H116737   5.865   5.249   4.902
 5577TIP3    H216738   5.792   5.380   4.922
 5578TIP3   OH216739   6.245   5.625   0.446
 5578TIP3    H116740   6.152   5.604   0.441
 5578TIP3    H216741   6.268   5.609   0.537
 5579TIP3   OH216742   4.487   3.326   1.986
 5579TIP3    H116743   4.563   3.383   1.997
 5579TIP3    H216744   4.524   3.238   1.981
 5580TIP3   OH216745   2.777   0.974   1.634
 5580TIP3    H116746   2.779   1.051   1.692
 5580TIP3    H216747   2.837   0.912   1.674
 5581TIP3   OH216748   4.677   2.106   1.854
 5581TIP3    H116749   4.624   2.031   1.825
 5581TIP3    H216750   4.669   2.170   1.783
 5582TIP3   OH216751   1.810   4.499   2.652
 5582TIP3    H116752   1.803   4.426   2.590
 5582TIP3    H216753   1.901   4.496   2.682
 5583TIP3   OH216754   4.834   4.647   1.237
 5583TIP3    H116755   4.862   4.631   1.327
 5583TIP3    H216756   4.908   4.620   1.183
 5584TIP3   OH216757   2.317   3.993   0.636
 5584TIP3    H116758   2.370   3.959   0.708
 5584TIP3    H216759   2.342   3.939   0.561
 5585TIP3   OH216760   3.039   3.447   4.648
 5585TIP3    H116761   3.071   3.537   4.657
 5585TIP3    H216762   2.956   3.447   4.695
 5586TIP3   OH216763   0.838   1.798   1.476
 5586TIP3    H116764   0.803   1.859   1.412
 5586TIP3    H216765   0.776   1.726   1.478
 5587TIP3   OH216766   4.530   3.621   1.040
 5587TIP3    H116767   4.574   3.692   1.089
 5587TIP3    H216768   4.465   3.587   1.101
 5588TIP3   OH216769   5.862   1.418   2.268
 5588TIP3    H116770   5.944   1.436   2.314
 5588TIP3    H216771   5.855   1.322   2.268
 5589TIP3   OH216772   2.170   0.806   1.609
 5589TIP3    H116773   2.104   0.779   1.673
 5589TIP3    H216774   2.121   0.818   1.528
 5590TIP3   OH216775   1.335   3.549   2.317
 5590TIP3    H116776   1.339   3.546   2.221
 5590TIP3    H216777   1.349   3.459   2.345
 5591TIP3   OH216778   6.111   2.551   0.659
 5591TIP3    H116779   6.148   2.521   0.576
 5591TIP3    H216780   6.018   2.561   0.641
 5592TIP3   OH216781   1.699   5.817   2.399
 5592TIP3    H116782   1.729   5.827   2.490
 5592TIP3    H216783   1.683   5.906   2.369
 5593TIP3   OH216784   0.734   1.802   4.589
 5593TIP3    H116785   0.676   1.848   4.648
 5593TIP3    H216786   0.810   1.860   4.579
 5594TIP3   OH216787   0.333   3.944   2.966
 5594TIP3    H116788   0.389   4.007   2.920
 5594TIP3    H216789   0.371   3.939   3.053
 5595TIP3   OH216790   1.554   3.374   2.877
 5595TIP3    H116791   1.614   3.319   2.926
 5595TIP3    H216792   1.519   3.435   2.942
 5596TIP3   OH216793   4.668   2.474   0.671
 5596TIP3    H116794   4.613   2.416   0.618
 5596TIP3    H216795   4.636   2.562   0.651
 5597TIP3   OH216796   0.182   1.173   2.547
 5597TIP3    H116797   0.222   1.086   2.546
 5597TIP3    H216798   0.245   1.228   2.593
 5598TIP3   OH216799   0.928   1.172   0.471
 5598TIP3    H116800   0.929   1.201   0.562
 5598TIP3    H216801   0.836   1.181   0.444
 5599TIP3   OH216802   0.061   2.303   3.960
 5599TIP3    H116803   0.042   2.237   4.027
 5599TIP3    H216804   0.106   2.254   3.891
 5600TIP3   OH216805   3.163   4.473   2.279
 5600TIP3    H116806   3.080   4.444   2.241
 5600TIP3    H216807   3.220   4.488   2.203
 5601TIP3   OH216808   5.970   3.938   2.571
 5601TIP3    H116809   5.907   3.909   2.636
 5601TIP3    H216810   6.000   4.024   2.603
 5602TIP3   OH216811   4.766   3.990   0.027
 5602TIP3    H116812   4.674   3.970   0.045
 5602TIP3    H216813   4.778   3.962  -0.064
 5603TIP3   OH216814   1.741   4.728   3.817
 5603TIP3    H116815   1.678   4.777   3.870
 5603TIP3    H216816   1.711   4.638   3.822
 5604TIP3   OH216817   1.723   3.002   2.864
 5604TIP3    H116818   1.781   3.061   2.815
 5604TIP3    H216819   1.762   2.915   2.854
 5605TIP3   OH216820   0.916   0.279   1.822
 5605TIP3    H116821   0.878   0.223   1.755
 5605TIP3    H216822   0.949   0.355   1.774
 5606TIP3   OH216823   2.172   2.805   1.833
 5606TIP3    H116824   2.141   2.816   1.743
 5606TIP3    H216825   2.094   2.777   1.882
 5607TIP3   OH216826   2.971   0.189   0.924
 5607TIP3    H116827   2.965   0.093   0.923
 5607TIP3    H216828   3.056   0.208   0.885
 5608TIP3   OH216829   5.747   4.604   3.377
 5608TIP3    H116830   5.701   4.635   3.456
 5608TIP3    H216831   5.789   4.682   3.342
 5609TIP3   OH216832   2.040   3.745   4.311
 5609TIP3    H116833   2.110   3.747   4.245
 5609TIP3    H216834   1.969   3.696   4.270
 5610TIP3   OH216835   0.769   2.467   1.489
 5610TIP3    H116836   0.716   2.461   1.568
 5610TIP3    H216837   0.807   2.555   1.492
 5611TIP3   OH216838   2.975   2.682   3.102
 5611TIP3    H116839   2.963   2.762   3.050
 5611TIP3    H216840   2.971   2.611   3.037
 5612TIP3   OH216841   2.663   1.479   3.174
 5612TIP3    H116842   2.697   1.450   3.089
 5612TIP3    H216843   2.711   1.559   3.193
 5613TIP3   OH216844   6.242   3.174   1.824
 5613TIP3    H116845   6.164   3.122   1.845
 5613TIP3    H216846   6.275   3.203   1.909
 5614TIP3   OH216847   1.003   0.833   3.756
 5614TIP3    H116848   0.990   0.848   3.850
 5614TIP3    H216849   1.061   0.756   3.752
 5615TIP3   OH216850   1.693   0.652   1.913
 5615TIP3    H116851   1.703   0.592   1.839
 5615TIP3    H216852   1.627   0.611   1.969
 5616TIP3   OH216853   6.222   2.764   2.804
 5616TIP3    H116854   6.285   2.809   2.749
 5616TIP3    H216855   6.143   2.819   2.800
 5617TIP3   OH216856   3.138   2.201   0.069
 5617TIP3    H116857   3.233   2.193   0.070
 5617TIP3    H216858   3.108   2.148   0.143
 5618TIP3   OH216859   5.386   0.831   1.045
 5618TIP3    H116860   5.397   0.821   1.139
 5618TIP3    H216861   5.350   0.919   1.034
 5619TIP3   OH216862   1.823   4.772   4.694
 5619TIP3    H116863   1.809   4.710   4.765
 5619TIP3    H216864   1.784   4.730   4.617
 5620TIP3   OH216865   5.276   5.231   2.671
 5620TIP3    H116866   5.317   5.230   2.585
 5620TIP3    H216867   5.249   5.322   2.684
 5621TIP3   OH216868   5.388   3.993   2.902
 5621TIP3    H116869   5.382   4.076   2.854
 5621TIP3    H216870   5.474   3.995   2.943
 5622TIP3   OH216871   2.316   0.023   2.244
 5622TIP3    H116872   2.305  -0.006   2.153
 5622TIP3    H216873   2.281   0.112   2.245
 5623TIP3   OH216874   1.870   0.678   1.564
 5623TIP3    H116875   1.852   0.745   1.629
 5623TIP3    H216876   1.849   0.719   1.480
 5624TIP3   OH216877   2.603   3.263   3.522
 5624TIP3    H116878   2.651   3.345   3.535
 5624TIP3    H216879   2.626   3.210   3.598
 5625TIP3   OH216880   2.593   3.744   4.498
 5625TIP3    H116881   2.521   3.726   4.558
 5625TIP3    H216882   2.623   3.658   4.469
 5626TIP3   OH216883   3.436   5.561   0.953
 5626TIP3    H116884   3.529   5.545   0.938
 5626TIP3    H216885   3.423   5.539   1.046
 5627TIP3   OH216886   2.839   2.136   0.199
 5627TIP3    H116887   2.761   2.178   0.236
 5627TIP3    H216888   2.884   2.098   0.275
 5628TIP3   OH216889   5.168   3.933   0.305
 5628TIP3    H116890   5.119   3.902   0.381
 5628TIP3    H216891   5.154   3.865   0.238
 5629TIP3   OH216892   4.008   3.932   2.075
 5629TIP3    H116893   4.017   4.024   2.051
 5629TIP3    H216894   4.087   3.913   2.126
 5630TIP3   OH216895   5.870   1.611   4.706
 5630TIP3    H116896   5.824   1.647   4.631
 5630TIP3    H216897   5.954   1.657   4.708
 5631TIP3   OH216898   3.000   4.961   0.883
 5631TIP3    H116899   2.951   4.884   0.912
 5631TIP3    H216900   3.072   4.969   0.945
 5632TIP3   OH216901   1.016   5.080   2.267
 5632TIP3    H116902   0.992   4.989   2.251
 5632TIP3    H216903   1.099   5.076   2.313
 5633TIP3   OH216904   6.330   2.125   4.177
 5633TIP3    H116905   6.265   2.179   4.222
 5633TIP3    H216906   6.279   2.053   4.139
 5634TIP3   OH216907   0.965   2.990   3.074
 5634TIP3    H116908   1.030   2.984   3.145
 5634TIP3    H216909   0.940   2.900   3.057
 5635TIP3   OH216910   4.047   0.857   1.635
 5635TIP3    H116911   3.997   0.939   1.628
 5635TIP3    H216912   4.138   0.885   1.627
 5636TIP3   OH216913   3.769   0.706   1.932
 5636TIP3    H116914   3.855   0.745   1.916
 5636TIP3    H216915   3.780   0.614   1.908
 5637TIP3   OH216916   0.586   1.049   3.241
 5637TIP3    H116917   0.631   1.110   3.298
 5637TIP3    H216918   0.627   0.964   3.259
 5638TIP3   OH216919   4.567   1.248   3.467
 5638TIP3    H116920   4.556   1.172   3.410
 5638TIP3    H216921   4.652   1.284   3.443
 5639TIP3   OH216922   5.941   4.392   2.362
 5639TIP3    H116923   6.035   4.399   2.348
 5639TIP3    H216924   5.910   4.337   2.290
 5640TIP3   OH216925   0.966   1.203   3.266
 5640TIP3    H116926   1.015   1.283   3.243
 5640TIP3    H216927   0.946   1.213   3.359
 5641TIP3   OH216928   6.339   4.945   2.817
 5641TIP3    H116929   6.300   5.012   2.760
 5641TIP3    H216930   6.367   4.993   2.895
 5642TIP3   OH216931   5.732   1.485   1.279
 5642TIP3    H116932   5.666   1.418   1.292
 5642TIP3    H216933   5.689   1.567   1.305
 5643TIP3   OH216934   4.654   2.578   4.867
 5643TIP3    H116935   4.587   2.647   4.869
 5643TIP3    H216936   4.661   2.549   4.958
 5644TIP3   OH216937   6.268   3.058   4.767
 5644TIP3    H116938   6.318   2.983   4.801
 5644TIP3    H216939   6.210   3.021   4.702
 5645TIP3   OH216940   0.756   5.734   4.578
 5645TIP3    H116941   0.700   5.664   4.611
 5645TIP3    H216942   0.836   5.690   4.550
 5646TIP3   OH216943   5.200   5.639   1.502
 5646TIP3    H116944   5.293   5.629   1.522
 5646TIP3    H216945   5.199   5.677   1.414
 5647TIP3   OH216946   4.076   1.770   0.815
 5647TIP3    H116947   4.147   1.730   0.765
 5647TIP3    H216948   4.112   1.781   0.903
 5648TIP3   OH216949   3.653   3.927   4.263
 5648TIP3    H116950   3.590   3.991   4.230
 5648TIP3    H216951   3.598   3.860   4.304
 5649TIP3   OH216952   1.565   0.215   2.678
 5649TIP3    H116953   1.482   0.252   2.650
 5649TIP3    H216954   1.622   0.223   2.602
 5650TIP3   OH216955   5.340   6.026   4.808
 5650TIP3    H116956   5.302   5.978   4.881
 5650TIP3    H216957   5.318   5.973   4.731
 5651TIP3   OH216958   0.229   1.755   4.743
 5651TIP3    H116959   0.185   1.724   4.664
 5651TIP3    H216960   0.201   1.845   4.753
 5652TIP3   OH216961   3.937   1.338   1.027
 5652TIP3    H116962   3.986   1.347   1.109
 5652TIP3    H216963   4.003   1.317   0.962
 5653TIP3   OH216964   2.035   0.254   4.735
 5653TIP3    H116965   1.957   0.262   4.680
 5653TIP3    H216966   2.009   0.292   4.819
 5654TIP3   OH216967   0.053   3.740   2.273
 5654TIP3    H116968   0.089   3.750   2.361
 5654TIP3    H216969  -0.038   3.716   2.287
 5655TIP3   OH216970   3.172   3.411   0.302
 5655TIP3    H116971   3.119   3.356   0.360
 5655TIP3    H216972   3.255   3.365   0.294
 5656TIP3   OH216973   5.454   4.700   0.616
 5656TIP3    H116974   5.460   4.695   0.521
 5656TIP3    H216975   5.496   4.620   0.647
 5657TIP3   OH216976   6.241   0.714   0.585
 5657TIP3    H116977   6.263   0.806   0.569
 5657TIP3    H216978   6.155   0.716   0.626
 5658TIP3   OH216979   5.501   1.920   4.242
 5658TIP3    H116980   5.477   1.899   4.152
 5658TIP3    H216981   5.594   1.941   4.237
 5659TIP3   OH216982   4.663   1.558   5.116
 5659TIP3    H116983   4.648   1.507   5.037
 5659TIP3    H216984   4.578   1.596   5.137
 5660TIP3   OH216985   0.556   2.853   4.368
 5660TIP3    H116986   0.540   2.931   4.421
 5660TIP3    H216987   0.644   2.866   4.332
 5661TIP3   OH216988   3.164   0.525   2.677
 5661TIP3    H116989   3.226   0.475   2.625
 5661TIP3    H216990   3.183   0.617   2.655
 5662TIP3   OH216991   2.083   3.853   2.777
 5662TIP3    H116992   2.121   3.924   2.726
 5662TIP3    H216993   2.008   3.893   2.822
 5663TIP3   OH216994   0.228   1.500   0.236
 5663TIP3    H116995   0.259   1.574   0.288
 5663TIP3    H216996   0.141   1.526   0.206
 5664TIP3   OH216997   1.277   2.304   4.472
 5664TIP3    H116998   1.246   2.337   4.387
 5664TIP3    H216999   1.328   2.226   4.450
 5665TIP3   OH217000   1.748   3.846   4.805
 5665TIP3    H117001   1.787   3.901   4.873
 5665TIP3    H217002   1.823   3.812   4.756
 5666TIP3   OH217003   2.365   2.839   2.971
 5666TIP3    H117004   2.403   2.752   2.983
 5666TIP3    H217005   2.373   2.881   3.056
 5667TIP3   OH217006   4.379   0.068   1.853
 5667TIP3    H117007   4.385   0.078   1.948
 5667TIP3    H217008   4.450   0.008   1.831
 5668TIP3   OH217009   3.200   5.630   4.049
 5668TIP3    H117010   3.246   5.568   3.994
 5668TIP3    H217011   3.108   5.603   4.045
 5669TIP3   OH217012   6.013   3.656   1.788
 5669TIP3    H117013   6.098   3.630   1.753
 5669TIP3    H217014   6.017   3.632   1.881
 5670TIP3   OH217015   3.918   5.126   1.575
 5670TIP3    H117016   3.955   5.215   1.573
 5670TIP3    H217017   3.920   5.102   1.668
 5671TIP3   OH217018   4.976   5.667   4.397
 5671TIP3    H117019   4.923   5.746   4.391
 5671TIP3    H217020   5.002   5.648   4.307
 5672TIP3   OH217021   0.181   4.588   4.589
 5672TIP3    H117022   0.131   4.533   4.528
 5672TIP3    H217023   0.118   4.610   4.658
 5673TIP3   OH217024   0.703   1.448   1.973
 5673TIP3    H117025   0.783   1.496   1.996
 5673TIP3    H217026   0.728   1.395   1.897
 5674TIP3   OH217027   1.492   1.636   0.809
 5674TIP3    H117028   1.450   1.692   0.874
 5674TIP3    H217029   1.481   1.683   0.727
 5675TIP3   OH217030   0.240   0.195   4.810
 5675TIP3    H117031   0.277   0.227   4.893
 5675TIP3    H217032   0.312   0.149   4.768
 5676TIP3   OH217033   3.926   2.638   1.989
 5676TIP3    H117034   3.883   2.643   1.904
 5676TIP3    H217035   3.924   2.545   2.011
 5677TIP3   OH217036   5.916  -0.040   3.077
 5677TIP3    H117037   5.905   0.054   3.061
 5677TIP3    H217038   5.892  -0.082   2.994
 5678TIP3   OH217039   5.681   5.883   3.088
 5678TIP3    H117040   5.606   5.857   3.033
 5678TIP3    H217041   5.753   5.829   3.056
 5679TIP3   OH217042   4.564   4.301   0.201
 5679TIP3    H117043   4.526   4.242   0.265
 5679TIP3    H217044   4.585   4.380   0.250
 5680TIP3   OH217045   3.464   3.224   1.584
 5680TIP3    H117046   3.451   3.225   1.489
 5680TIP3    H217047   3.547   3.177   1.596
 5681TIP3   OH217048   2.295   4.603   3.175
 5681TIP3    H117049   2.330   4.550   3.102
 5681TIP3    H217050   2.372   4.624   3.228
 5682TIP3   OH217051   1.002   2.049   2.394
 5682TIP3    H117052   1.034   2.055   2.304
 5682TIP3    H217053   1.078   2.072   2.448
 5683TIP3   OH217054   1.068   3.915   3.600
 5683TIP3    H117055   1.124   3.967   3.658
 5683TIP3    H217056   1.130   3.861   3.550
 5684TIP3   OH217057   1.046   3.936   5.157
 5684TIP3    H117058   1.045   4.020   5.111
 5684TIP3    H217059   1.000   3.953   5.239
 5685TIP3   OH217060   5.198   3.429   3.650
 5685TIP3    H117061   5.191   3.460   3.740
 5685TIP3    H217062   5.145   3.349   3.648
 5686TIP3   OH217063   1.874   1.977   3.249
 5686TIP3    H117064   1.891   1.991   3.156
 5686TIP3    H217065   1.961   1.967   3.288
 5687TIP3   OH217066   5.980   2.843   4.242
 5687TIP3    H117067   5.959   2.799   4.159
 5687TIP3    H217068   6.003   2.932   4.216
 5688TIP3   OH217069   4.112   4.789   2.028
 5688TIP3    H117070   4.183   4.818   2.085
 5688TIP3    H217071   4.120   4.693   2.027
 5689TIP3   OH217072   5.944   1.307   1.202
 5689TIP3    H117073   6.002   1.342   1.133
 5689TIP3    H217074   5.858   1.345   1.183
 5690TIP3   OH217075   1.122   2.718   1.729
 5690TIP3    H117076   1.056   2.648   1.727
 5690TIP3    H217077   1.090   2.782   1.666
 5691TIP3   OH217078   5.498   1.840   4.591
 5691TIP3    H117079   5.499   1.935   4.587
 5691TIP3    H217080   5.544   1.819   4.672
 5692TIP3   OH217081   1.740   2.440   5.048
 5692TIP3    H117082   1.736   2.514   5.108
 5692TIP3    H217083   1.833   2.430   5.029
 5693TIP3   OH217084   5.847   2.831   0.547
 5693TIP3    H117085   5.914   2.802   0.485
 5693TIP3    H217086   5.824   2.920   0.517
 5694TIP3   OH217087   3.245   4.576   5.000
 5694TIP3    H117088   3.186   4.605   4.930
 5694TIP3    H217089   3.328   4.559   4.956
 5695TIP3   OH217090   6.155   0.329   0.163
 5695TIP3    H117091   6.137   0.308   0.255
 5695TIP3    H217092   6.151   0.425   0.159
 5696TIP3   OH217093   1.936   2.218   4.095
 5696TIP3    H117094   1.916   2.178   4.010
 5696TIP3    H217095   1.853   2.255   4.124
 5697TIP3   OH217096   5.700   0.689   2.163
 5697TIP3    H117097   5.643   0.699   2.239
 5697TIP3    H217098   5.649   0.637   2.101
 5698TIP3   OH217099   0.496   5.928   4.418
 5698TIP3    H117100   0.563   5.994   4.432
 5698TIP3    H217101   0.489   5.883   4.503
 5699TIP3   OH217102   2.754   1.392   5.008
 5699TIP3    H117103   2.663   1.419   5.017
 5699TIP3    H217104   2.804   1.474   5.017
 5700TIP3   OH217105   3.602   4.735   4.953
 5700TIP3    H117106   3.565   4.661   4.905
 5700TIP3    H217107   3.693   4.711   4.968
 5701TIP3   OH217108   2.980   1.936   3.662
 5701TIP3    H117109   2.895   1.968   3.692
 5701TIP3    H217110   3.025   2.014   3.630
 5702TIP3   OH217111   4.158   0.018   4.478
 5702TIP3    H117112   4.194   0.069   4.550
 5702TIP3    H217113   4.086   0.071   4.445
 5703TIP3   OH217114   5.073   4.948   1.888
 5703TIP3    H117115   5.003   4.937   1.824
 5703TIP3    H217116   5.151   4.964   1.834
 5704TIP3   OH217117   6.048   2.790   0.374
 5704TIP3    H117118   6.101   2.742   0.311
 5704TIP3    H217119   6.098   2.870   0.390
 5705TIP3   OH217120   6.142   5.249   3.771
 5705TIP3    H117121   6.132   5.277   3.862
 5705TIP3    H217122   6.196   5.170   3.777
 5706TIP3   OH217123   1.746   5.863   4.132
 5706TIP3    H117124   1.784   5.780   4.160
 5706TIP3    H217125   1.691   5.840   4.057
 5707TIP3   OH217126   2.268   2.959   4.865
 5707TIP3    H117127   2.209   2.884   4.876
 5707TIP3    H217128   2.297   2.953   4.774
 5708TIP3   OH217129   2.599   0.425   3.974
 5708TIP3    H117130   2.599   0.397   4.066
 5708TIP3    H217131   2.513   0.465   3.961
 5709TIP3   OH217132   0.531   3.163   1.148
 5709TIP3    H117133   0.530   3.068   1.165
 5709TIP3    H217134   0.485   3.201   1.223
 5710TIP3   OH217135   0.544   4.310   4.103
 5710TIP3    H117136   0.573   4.380   4.161
 5710TIP3    H217137   0.488   4.255   4.158
 5711TIP3   OH217138   2.638   0.414   4.464
 5711TIP3    H117139   2.677   0.328   4.476
 5711TIP3    H217140   2.680   0.470   4.529
 5712TIP3   OH217141   2.432   2.020   4.598
 5712TIP3    H117142   2.382   2.102   4.597
 5712TIP3    H217143   2.446   1.999   4.506
 5713TIP3   OH217144   2.010   5.243   3.722
 5713TIP3    H117145   1.957   5.310   3.765
 5713TIP3    H217146   2.041   5.285   3.642
 5714TIP3   OH217147   2.391   5.839   5.018
 5714TIP3    H117148   2.344   5.774   5.070
 5714TIP3    H217149   2.331   5.914   5.013
 5715TIP3   OH217150   2.273   2.884   5.169
 5715TIP3    H117151   2.191   2.838   5.152
 5715TIP3    H217152   2.246   2.969   5.203
 5716TIP3   OH217153   1.554   3.610   2.482
 5716TIP3    H117154   1.489   3.656   2.429
 5716TIP3    H217155   1.588   3.541   2.425
 5717TIP3   OH217156   2.559   4.608   1.564
 5717TIP3    H117157   2.625   4.575   1.624
 5717TIP3    H217158   2.607   4.663   1.502
 5718TIP3   OH217159   0.705   2.501   0.859
 5718TIP3    H117160   0.629   2.467   0.907
 5718TIP3    H217161   0.752   2.422   0.831
 5719TIP3   OH217162   6.261   4.325   3.177
 5719TIP3    H117163   6.284   4.342   3.268
 5719TIP3    H217164   6.340   4.289   3.138
 5720TIP3   OH217165   4.545   5.318   2.370
 5720TIP3    H117166   4.501   5.330   2.454
 5720TIP3    H217167   4.634   5.290   2.394
 5721TIP3   OH217168   1.999   0.295   1.065
 5721TIP3    H117169   1.950   0.278   1.145
 5721TIP3    H217170   1.952   0.248   0.997
 5722TIP3   OH217171   3.229   1.977   4.034
 5722TIP3    H117172   3.202   1.917   4.104
 5722TIP3    H217173   3.152   2.032   4.020
 5723TIP3   OH217174   5.859   2.096   4.472
 5723TIP3    H117175   5.809   2.164   4.426
 5723TIP3    H217176   5.864   2.128   4.563
 5724TIP3   OH217177   4.254   5.777   4.450
 5724TIP3    H117178   4.193   5.726   4.398
 5724TIP3    H217179   4.209   5.791   4.534
 5725TIP3   OH217180   1.003   5.871   3.103
 5725TIP3    H117181   0.989   5.956   3.062
 5725TIP3    H217182   1.087   5.841   3.067
 5726TIP3   OH217183   5.090   4.624   4.480
 5726TIP3    H117184   5.153   4.675   4.531
 5726TIP3    H217185   5.038   4.578   4.545
 5727TIP3   OH217186   5.066   2.395   1.963
 5727TIP3    H117187   5.041   2.486   1.946
 5727TIP3    H217188   5.009   2.367   2.034
 5728TIP3   OH217189   4.486   0.252   1.129
 5728TIP3    H117190   4.553   0.234   1.064
 5728TIP3    H217191   4.457   0.342   1.109
 5729TIP3   OH217192   4.390   3.202   4.610
 5729TIP3    H117193   4.367   3.235   4.523
 5729TIP3    H217194   4.305   3.185   4.652
 5730TIP3   OH217195   0.481   0.318   1.594
 5730TIP3    H117196   0.491   0.260   1.669
 5730TIP3    H217197   0.455   0.402   1.632
 5731TIP3   OH217198   5.493   2.447   1.922
 5731TIP3    H117199   5.441   2.498   1.860
 5731TIP3    H217200   5.438   2.372   1.944
 5732TIP3   OH217201   1.953   5.191   1.125
 5732TIP3    H117202   1.919   5.274   1.092
 5732TIP3    H217203   1.922   5.126   1.062
 5733TIP3   OH217204   0.781   1.411   3.792
 5733TIP3    H117205   0.737   1.418   3.707
 5733TIP3    H217206   0.844   1.484   3.791
 5734TIP3   OH217207   5.622   5.875   4.219
 5734TIP3    H117208   5.591   5.962   4.241
 5734TIP3    H217209   5.689   5.889   4.152
 5735TIP3   OH217210   3.723   3.079   1.649
 5735TIP3    H117211   3.794   3.019   1.629
 5735TIP3    H217212   3.710   3.071   1.743
 5736TIP3   OH217213   5.091   2.927   2.422
 5736TIP3    H117214   5.014   2.927   2.364
 5736TIP3    H217215   5.072   2.997   2.485
 5737TIP3   OH217216   4.810   4.182   4.161
 5737TIP3    H117217   4.851   4.158   4.079
 5737TIP3    H217218   4.727   4.132   4.162
 5738TIP3   OH217219   2.692   3.326   3.254
 5738TIP3    H117220   2.760   3.272   3.214
 5738TIP3    H217221   2.677   3.286   3.340
 5739TIP3   OH217222   4.108   4.108   3.818
 5739TIP3    H117223   4.151   4.043   3.874
 5739TIP3    H217224   4.108   4.068   3.731
 5740TIP3   OH217225   3.804   1.452   1.655
 5740TIP3    H117226   3.757   1.403   1.588
 5740TIP3    H217227   3.747   1.447   1.732
 5741TIP3   OH217228   3.940   2.655   3.009
 5741TIP3    H117229   3.950   2.684   3.099
 5741TIP3    H217230   3.846   2.643   2.997
 5742TIP3   OH217231   1.996   2.299   4.974
 5742TIP3    H117232   2.006   2.305   4.879
 5742TIP3    H217233   1.925   2.237   4.987
 5743TIP3   OH217234   6.118   0.399   3.568
 5743TIP3    H117235   6.167   0.366   3.492
 5743TIP3    H217236   6.068   0.473   3.533
 5744TIP3   OH217237   4.070   5.707   0.463
 5744TIP3    H117238   3.980   5.700   0.493
 5744TIP3    H217239   4.113   5.760   0.530
 5745TIP3   OH217240   4.889   3.093   1.262
 5745TIP3    H117241   4.823   3.111   1.195
 5745TIP3    H217242   4.893   2.997   1.266
 5746TIP3   OH217243   4.971   1.798   1.000
 5746TIP3    H117244   4.928   1.846   0.929
 5746TIP3    H217245   4.900   1.773   1.059
 5747TIP3   OH217246   4.139   3.793   1.484
 5747TIP3    H117247   4.213   3.801   1.423
 5747TIP3    H217248   4.145   3.703   1.516
 5748TIP3   OH217249   5.110   3.252   1.303
 5748TIP3    H117250   5.089   3.303   1.381
 5748TIP3    H217251   5.057   3.173   1.310
 5749TIP3   OH217252   1.253   5.587   3.297
 5749TIP3    H117253   1.304   5.575   3.376
 5749TIP3    H217254   1.306   5.646   3.243
 5750TIP3   OH217255   4.400   0.977   4.513
 5750TIP3    H117256   4.336   1.042   4.484
 5750TIP3    H217257   4.348   0.907   4.552
 5751TIP3   OH217258   0.050   3.157   3.459
 5751TIP3    H117259   0.001   3.092   3.408
 5751TIP3    H217260   0.094   3.211   3.393
 5752TIP3   OH217261   3.726   3.428   4.652
 5752TIP3    H117262   3.685   3.344   4.632
 5752TIP3    H217263   3.717   3.478   4.572
 5753TIP3   OH217264   1.410   4.231   4.257
 5753TIP3    H117265   1.450   4.291   4.319
 5753TIP3    H217266   1.331   4.276   4.227
 5754TIP3   OH217267   5.564   5.689   0.203
 5754TIP3    H117268   5.512   5.610   0.212
 5754TIP3    H217269   5.525   5.751   0.265
 5755TIP3   OH217270   3.674   5.047   0.708
 5755TIP3    H117271   3.711   5.100   0.638
 5755TIP3    H217272   3.614   4.987   0.663
 5756TIP3   OH217273   4.808   4.805   1.942
 5756TIP3    H117274   4.804   4.825   1.848
 5756TIP3    H217275   4.879   4.742   1.951
 5757TIP3   OH217276   0.438   2.451   1.975
 5757TIP3    H117277   0.365   2.450   1.913
 5757TIP3    H217278   0.474   2.539   1.970
 5758TIP3   OH217279   1.935   2.875   0.064
 5758TIP3    H117280   1.860   2.827   0.030
 5758TIP3    H217281   2.012   2.830   0.027
 5759TIP3   OH217282   6.205   2.662   0.197
 5759TIP3    H117283   6.220   2.620   0.112
 5759TIP3    H217284   6.278   2.633   0.251
 5760TIP3   OH217285   6.260   2.991   3.291
 5760TIP3    H117286   6.245   2.897   3.286
 5760TIP3    H217287   6.177   3.031   3.264
 5761TIP3   OH217288   3.359   4.603   1.799
 5761TIP3    H117289   3.275   4.636   1.767
 5761TIP3    H217290   3.341   4.512   1.822
 5762TIP3   OH217291   6.214   1.771   2.822
 5762TIP3    H117292   6.189   1.859   2.848
 5762TIP3    H217293   6.258   1.735   2.900
 5763TIP3   OH217294   5.151   0.326   4.786
 5763TIP3    H117295   5.091   0.276   4.841
 5763TIP3    H217296   5.174   0.403   4.839
 5764TIP3   OH217297   3.845   4.935   1.240
 5764TIP3    H117298   3.800   5.017   1.220
 5764TIP3    H217299   3.905   4.923   1.166
 5765TIP3   OH217300   1.712   2.426   1.190
 5765TIP3    H117301   1.757   2.387   1.116
 5765TIP3    H217302   1.620   2.402   1.179
 5766TIP3   OH217303   0.246   0.582   4.474
 5766TIP3    H117304   0.245   0.678   4.479
 5766TIP3    H217305   0.330   0.557   4.512
 5767TIP3   OH217306   3.102   1.377   4.891
 5767TIP3    H117307   3.131   1.443   4.954
 5767TIP3    H217308   3.130   1.412   4.806
 5768TIP3   OH217309   1.471   4.845   2.227
 5768TIP3    H117310   1.408   4.846   2.155
 5768TIP3    H217311   1.547   4.891   2.193
 5769TIP3   OH217312   4.475   5.687   2.752
 5769TIP3    H117313   4.555   5.698   2.803
 5769TIP3    H217314   4.419   5.760   2.780
 5770TIP3   OH217315   5.468   0.102   3.130
 5770TIP3    H117316   5.463   0.197   3.140
 5770TIP3    H217317   5.544   0.088   3.073
 5771TIP3   OH217318   4.001   1.746   4.100
 5771TIP3    H117319   3.987   1.673   4.040
 5771TIP3    H217320   4.094   1.768   4.091
 5772TIP3   OH217321   2.860   3.780   4.636
 5772TIP3    H117322   2.837   3.784   4.728
 5772TIP3    H217323   2.776   3.772   4.590
 5773TIP3   OH217324   5.140   1.782   3.653
 5773TIP3    H117325   5.051   1.750   3.643
 5773TIP3    H217326   5.139   1.833   3.734
 5774TIP3   OH217327   3.154   4.159   2.882
 5774TIP3    H117328   3.078   4.101   2.886
 5774TIP3    H217329   3.165   4.178   2.789
 5775TIP3   OH217330   6.100   4.010   3.278
 5775TIP3    H117331   6.021   4.060   3.256
 5775TIP3    H217332   6.107   4.019   3.373
 5776TIP3   OH217333   3.266   1.970   2.721
 5776TIP3    H117334   3.267   2.027   2.797
 5776TIP3    H217335   3.233   1.886   2.753
 5777TIP3   OH217336   0.721   3.279   3.264
 5777TIP3    H117337   0.654   3.212   3.278
 5777TIP3    H217338   0.741   3.312   3.351
 5778TIP3   OH217339   2.017   2.331   4.687
 5778TIP3    H117340   2.009   2.238   4.668
 5778TIP3    H217341   1.971   2.374   4.614
 5779TIP3   OH217342   3.386   4.052   0.548
 5779TIP3    H117343   3.428   3.982   0.597
 5779TIP3    H217344   3.402   4.131   0.599
 5780TIP3   OH217345   2.050   5.709   4.596
 5780TIP3    H117346   2.078   5.785   4.647
 5780TIP3    H217347   2.125   5.690   4.539
 5781TIP3   OH217348   3.951   2.199   2.887
 5781TIP3    H117349   4.001   2.279   2.901
 5781TIP3    H217350   3.944   2.191   2.792
 5782TIP3   OH217351   2.123   3.132   2.464
 5782TIP3    H117352   2.207   3.163   2.497
 5782TIP3    H217353   2.138   3.116   2.371
 5783TIP3   OH217354   2.279   0.342  -0.008
 5783TIP3    H117355   2.358   0.313   0.036
 5783TIP3    H217356   2.247   0.415   0.046
 5784TIP3   OH217357   1.121   2.822   0.800
 5784TIP3    H117358   1.046   2.873   0.831
 5784TIP3    H217359   1.172   2.884   0.748
 5785TIP3   OH217360   1.957   5.180   1.589
 5785TIP3    H117361   1.984   5.272   1.599
 5785TIP3    H217362   2.019   5.144   1.526
 5786TIP3   OH217363   5.030   1.239   0.772
 5786TIP3    H117364   5.020   1.174   0.842
 5786TIP3    H217365   4.940   1.259   0.745
 5787TIP3   OH217366   1.986   1.223   2.861
 5787TIP3    H117367   2.022   1.160   2.922
 5787TIP3    H217368   1.973   1.302   2.913
 5788TIP3   OH217369   1.740   3.340   0.579
 5788TIP3    H117370   1.745   3.252   0.541
 5788TIP3    H217371   1.702   3.393   0.510
 5789TIP3   OH217372   2.003   5.859   3.624
 5789TIP3    H117373   1.959   5.934   3.585
 5789TIP3    H217374   2.079   5.844   3.569
 5790TIP3   OH217375   6.079   4.422   1.523
 5790TIP3    H117376   6.047   4.509   1.499
 5790TIP3    H217377   6.003   4.365   1.513
 5791TIP3   OH217378   2.737   4.239   2.506
 5791TIP3    H117379   2.761   4.147   2.492
 5791TIP3    H217380   2.738   4.249   2.601
 5792TIP3   OH217381   5.756   2.286   2.588
 5792TIP3    H117382   5.788   2.238   2.511
 5792TIP3    H217383   5.782   2.376   2.572
 5793TIP3   OH217384   0.927   2.726   1.431
 5793TIP3    H117385   0.993   2.665   1.464
 5793TIP3    H217386   0.975   2.782   1.370
 5794TIP3   OH217387   4.492   2.355   4.772
 5794TIP3    H117388   4.547   2.434   4.774
 5794TIP3    H217389   4.500   2.324   4.682
 5795TIP3   OH217390   5.476   3.046   1.297
 5795TIP3    H117391   5.556   3.006   1.261
 5795TIP3    H217392   5.407   2.982   1.278
 5796TIP3   OH217393   2.508   1.241   3.654
 5796TIP3    H117394   2.553   1.157   3.646
 5796TIP3    H217395   2.429   1.221   3.703
 5797TIP3   OH217396   5.863   2.119   3.155
 5797TIP3    H117397   5.805   2.067   3.099
 5797TIP3    H217398   5.852   2.081   3.243
 5798TIP3   OH217399   0.697   4.952   1.142
 5798TIP3    H117400   0.667   4.872   1.100
 5798TIP3    H217401   0.782   4.970   1.102
 5799TIP3   OH217402   4.362   4.870   1.348
 5799TIP3    H117403   4.287   4.912   1.391
 5799TIP3    H217404   4.356   4.898   1.257
 5800TIP3   OH217405   5.329   3.721   2.837
 5800TIP3    H117406   5.416   3.685   2.822
 5800TIP3    H217407   5.345   3.815   2.851
 5801TIP3   OH217408   4.000   0.945   2.209
 5801TIP3    H117409   3.905   0.933   2.210
 5801TIP3    H217410   4.030   0.886   2.140
 5802TIP3   OH217411   3.804   0.415   2.811
 5802TIP3    H117412   3.710   0.417   2.798
 5802TIP3    H217413   3.827   0.504   2.836
 5803TIP3   OH217414   5.490   1.064   4.517
 5803TIP3    H117415   5.580   1.034   4.530
 5803TIP3    H217416   5.452   1.000   4.457
 5804TIP3   OH217417   3.229   0.336   0.011
 5804TIP3    H117418   3.200   0.356   0.100
 5804TIP3    H217419   3.249   0.421  -0.028
 5805TIP3   OH217420   0.214   1.266   1.832
 5805TIP3    H117421   0.285   1.318   1.870
 5805TIP3    H217422   0.249   1.236   1.748
 5806TIP3   OH217423   6.103   3.778   2.378
 5806TIP3    H117424   6.082   3.841   2.447
 5806TIP3    H217425   6.169   3.822   2.325
 5807TIP3   OH217426   4.539   3.664   1.785
 5807TIP3    H117427   4.450   3.640   1.811
 5807TIP3    H217428   4.592   3.648   1.863
 5808TIP3   OH217429   5.018   2.861   4.097
 5808TIP3    H117430   5.024   2.788   4.158
 5808TIP3    H217431   4.940   2.909   4.125
 5809TIP3   OH217432   2.051   5.552   4.300
 5809TIP3    H117433   2.066   5.624   4.239
 5809TIP3    H217434   2.139   5.525   4.328
 5810TIP3   OH217435   6.123   5.604   2.601
 5810TIP3    H117436   6.089   5.675   2.546
 5810TIP3    H217437   6.091   5.524   2.559
 5811TIP3   OH217438   1.307   0.853   3.738
 5811TIP3    H117439   1.340   0.768   3.710
 5811TIP3    H217440   1.230   0.868   3.685
 5812TIP3   OH217441   2.253   2.820   0.357
 5812TIP3    H117442   2.319   2.845   0.422
 5812TIP3    H217443   2.285   2.856   0.275
 5813TIP3   OH217444   4.177   2.609   5.094
 5813TIP3    H117445   4.214   2.534   5.047
 5813TIP3    H217446   4.133   2.570   5.170
 5814TIP3   OH217447   2.853   2.622   4.021
 5814TIP3    H117448   2.928   2.677   4.043
 5814TIP3    H217449   2.810   2.606   4.105
 5815TIP3   OH217450   2.490   0.299   3.463
 5815TIP3    H117451   2.524   0.358   3.530
 5815TIP3    H217452   2.438   0.235   3.511
 5816TIP3   OH217453   5.705   2.836   1.962
 5816TIP3    H117454   5.730   2.919   2.004
 5816TIP3    H217455   5.614   2.849   1.935
 5817TIP3   OH217456   5.767   2.525   4.696
 5817TIP3    H117457   5.806   2.553   4.613
 5817TIP3    H217458   5.673   2.529   4.681
 5818TIP3   OH217459   5.549   0.841   3.590
 5818TIP3    H117460   5.498   0.903   3.539
 5818TIP3    H217461   5.611   0.803   3.527
 5819TIP3   OH217462   1.483   1.410   4.764
 5819TIP3    H117463   1.447   1.378   4.682
 5819TIP3    H217464   1.409   1.454   4.807
 5820TIP3   OH217465   4.217   0.057   1.501
 5820TIP3    H117466   4.257   0.057   1.414
 5820TIP3    H217467   4.247  -0.024   1.542
 5821TIP3   OH217468   4.769   3.805   3.867
 5821TIP3    H117469   4.691   3.792   3.920
 5821TIP3    H217470   4.770   3.731   3.807
 5822TIP3   OH217471   4.876   0.977   2.156
 5822TIP3    H117472   4.793   1.001   2.197
 5822TIP3    H217473   4.903   1.055   2.108
 5823TIP3   OH217474   4.981   2.139   2.806
 5823TIP3    H117475   4.929   2.168   2.881
 5823TIP3    H217476   5.065   2.113   2.844
 5824TIP3   OH217477   0.027   0.135   0.575
 5824TIP3    H117478  -0.028   0.198   0.621
 5824TIP3    H217479   0.101   0.187   0.542
 5825TIP3   OH217480   4.805   2.444   3.618
 5825TIP3    H117481   4.785   2.535   3.639
 5825TIP3    H217482   4.867   2.417   3.686
 5826TIP3   OH217483   6.243   5.704   0.709
 5826TIP3    H117484   6.197   5.714   0.793
 5826TIP3    H217485   6.332   5.733   0.727
 5827TIP3   OH217486   2.418   5.494   2.386
 5827TIP3    H117487   2.326   5.517   2.397
 5827TIP3    H217488   2.431   5.418   2.444
 5828TIP3   OH217489   4.356   1.679   0.261
 5828TIP3    H117490   4.403   1.746   0.310
 5828TIP3    H217491   4.411   1.601   0.268
 5829TIP3   OH217492   2.955   3.198   1.087
 5829TIP3    H117493   2.898   3.271   1.115
 5829TIP3    H217494   2.972   3.215   0.995
 5830TIP3   OH217495   0.750   1.404   0.117
 5830TIP3    H117496   0.746   1.436   0.027
 5830TIP3    H217497   0.660   1.412   0.150
 5831TIP3   OH217498   6.134   2.044   4.582
 5831TIP3    H117499   6.141   1.955   4.615
 5831TIP3    H217500   6.067   2.038   4.513
 5832TIP3   OH217501   1.177   3.060   1.536
 5832TIP3    H117502   1.118   3.116   1.486
 5832TIP3    H217503   1.126   3.035   1.613
 5833TIP3   OH217504   1.535   5.940   0.260
 5833TIP3    H117505   1.547   5.909   0.170
 5833TIP3    H217506   1.622   5.968   0.287
 5834TIP3   OH217507   0.930   4.849   1.050
 5834TIP3    H117508   1.015   4.813   1.075
 5834TIP3    H217509   0.923   4.830   0.956
 5835TIP3   OH217510   6.096   4.408   0.347
 5835TIP3    H117511   6.170   4.389   0.405
 5835TIP3    H217512   6.040   4.331   0.353
 5836TIP3   OH217513   1.373   4.151   3.363
 5836TIP3    H117514   1.420   4.145   3.446
 5836TIP3    H217515   1.384   4.064   3.324
 5837TIP3   OH217516   2.965   5.151   4.047
 5837TIP3    H117517   2.990   5.098   4.123
 5837TIP3    H217518   2.930   5.087   3.985
 5838TIP3   OH217519   0.034   1.158   4.608
 5838TIP3    H117520  -0.039   1.193   4.556
 5838TIP3    H217521  -0.008   1.105   4.675
 5839TIP3   OH217522   0.286   2.172   1.056
 5839TIP3    H117523   0.365   2.205   1.013
 5839TIP3    H217524   0.313   2.152   1.145
 5840TIP3   OH217525   2.075   4.345   4.809
 5840TIP3    H117526   2.066   4.344   4.714
 5840TIP3    H217527   2.168   4.326   4.824
 5841TIP3   OH217528   3.953   3.180   4.358
 5841TIP3    H117529   3.878   3.216   4.311
 5841TIP3    H217530   3.915   3.138   4.435
 5842TIP3   OH217531   2.341   4.312   1.746
 5842TIP3    H117532   2.303   4.382   1.693
 5842TIP3    H217533   2.405   4.271   1.689
 5843TIP3   OH217534   3.071   2.551   4.946
 5843TIP3    H117535   3.039   2.619   5.006
 5843TIP3    H217536   3.084   2.474   5.002
 5844TIP3   OH217537   1.779   5.556   0.203
 5844TIP3    H117538   1.769   5.640   0.157
 5844TIP3    H217539   1.821   5.580   0.286
 5845TIP3   OH217540   5.004   0.639   2.773
 5845TIP3    H117541   5.079   0.657   2.717
 5845TIP3    H217542   4.974   0.552   2.746
 5846TIP3   OH217543   2.325   2.639   3.261
 5846TIP3    H117544   2.413   2.623   3.227
 5846TIP3    H217545   2.296   2.553   3.293
 5847TIP3   OH217546   0.890   3.770   0.191
 5847TIP3    H117547   0.933   3.688   0.215
 5847TIP3    H217548   0.798   3.756   0.212
 5848TIP3   OH217549   1.896   0.476   4.489
 5848TIP3    H117550   1.988   0.463   4.510
 5848TIP3    H217551   1.881   0.570   4.505
 5849TIP3   OH217552   2.549   3.753   4.089
 5849TIP3    H117553   2.547   3.770   3.994
 5849TIP3    H217554   2.547   3.658   4.096
 5850TIP3   OH217555   5.164   5.521   3.096
 5850TIP3    H117556   5.117   5.450   3.053
 5850TIP3    H217557   5.127   5.524   3.185
 5851TIP3   OH217558   2.192   2.372   3.336
 5851TIP3    H117559   2.116   2.375   3.395
 5851TIP3    H217560   2.263   2.338   3.391
 5852TIP3   OH217561   0.437   0.198   2.317
 5852TIP3    H117562   0.467   0.111   2.290
 5852TIP3    H217563   0.402   0.238   2.238
 5853TIP3   OH217564   1.517   2.174   1.509
 5853TIP3    H117565   1.462   2.171   1.587
 5853TIP3    H217566   1.535   2.268   1.497
 5854TIP3   OH217567   4.983   2.672   2.685
 5854TIP3    H117568   4.929   2.625   2.622
 5854TIP3    H217569   5.051   2.714   2.632
 5855TIP3   OH217570   2.579   2.251   1.305
 5855TIP3    H117571   2.624   2.307   1.369
 5855TIP3    H217572   2.503   2.302   1.277
 5856TIP3   OH217573   3.987   0.223   2.678
 5856TIP3    H117574   3.936   0.276   2.740
 5856TIP3    H217575   4.025   0.153   2.731
 5857TIP3   OH217576   3.708   5.100   1.931
 5857TIP3    H117577   3.615   5.092   1.909
 5857TIP3    H217578   3.731   5.014   1.969
 5858TIP3   OH217579   0.667   5.907   2.807
 5858TIP3    H117580   0.728   5.881   2.876
 5858TIP3    H217581   0.587   5.858   2.826
 5859TIP3   OH217582   5.294   1.473   2.799
 5859TIP3    H117583   5.316   1.451   2.708
 5859TIP3    H217584   5.273   1.567   2.796
 5860TIP3   OH217585   1.356   5.327   0.621
 5860TIP3    H117586   1.448   5.348   0.604
 5860TIP3    H217587   1.309   5.409   0.604
 5861TIP3   OH217588   3.939   3.357   3.977
 5861TIP3    H117589   3.999   3.383   3.907
 5861TIP3    H217590   3.965   3.267   3.998
 5862TIP3   OH217591   5.485   5.105   2.848
 5862TIP3    H117592   5.408   5.125   2.794
 5862TIP3    H217593   5.528   5.189   2.861
 5863TIP3   OH217594   3.248   2.688   1.488
 5863TIP3    H117595   3.333   2.692   1.445
 5863TIP3    H217596   3.188   2.733   1.428
 5864TIP3   OH217597   3.426   2.421   4.379
 5864TIP3    H117598   3.482   2.346   4.359
 5864TIP3    H217599   3.347   2.382   4.417
 5865TIP3   OH217600   0.506   3.760   4.603
 5865TIP3    H117601   0.541   3.826   4.662
 5865TIP3    H217602   0.550   3.776   4.520
 5866TIP3   OH217603   0.746   3.235   2.091
 5866TIP3    H117604   0.720   3.324   2.115
 5866TIP3    H217605   0.668   3.182   2.106
 5867TIP3   OH217606   4.152   3.756   2.983
 5867TIP3    H117607   4.213   3.781   3.052
 5867TIP3    H217608   4.104   3.681   3.019
 5868TIP3   OH217609   0.399   0.696   3.362
 5868TIP3    H117610   0.447   0.613   3.354
 5868TIP3    H217611   0.437   0.738   3.439
 5869TIP3   OH217612   5.405   2.129   1.151
 5869TIP3    H117613   5.449   2.169   1.225
 5869TIP3    H217614   5.329   2.084   1.188
 5870TIP3   OH217615   5.529   5.939   1.564
 5870TIP3    H117616   5.511   5.872   1.630
 5870TIP3    H217617   5.605   5.906   1.516
 5871TIP3   OH217618   1.341   1.897   3.392
 5871TIP3    H117619   1.415   1.952   3.419
 5871TIP3    H217620   1.347   1.893   3.297
 5872TIP3   OH217621   4.538   2.212   3.911
 5872TIP3    H117622   4.478   2.256   3.971
 5872TIP3    H217623   4.495   2.218   3.826
 5873TIP3   OH217624   4.365   5.446   4.887
 5873TIP3    H117625   4.314   5.371   4.857
 5873TIP3    H217626   4.384   5.426   4.979
 5874TIP3   OH217627   5.869   0.373   3.236
 5874TIP3    H117628   5.896   0.310   3.303
 5874TIP3    H217629   5.943   0.434   3.230
 5875TIP3   OH217630   0.773   2.996   4.120
 5875TIP3    H117631   0.819   3.068   4.162
 5875TIP3    H217632   0.791   2.920   4.175
 5876TIP3   OH217633   5.698   5.755   3.345
 5876TIP3    H117634   5.629   5.715   3.398
 5876TIP3    H217635   5.652   5.804   3.278
 5877TIP3   OH217636   5.082   1.240   2.090
 5877TIP3    H117637   5.036   1.317   2.122
 5877TIP3    H217638   5.147   1.220   2.157
 5878TIP3   OH217639   0.566   2.282   3.474
 5878TIP3    H117640   0.496   2.332   3.518
 5878TIP3    H217641   0.647   2.319   3.509
 5879TIP3   OH217642   0.781   1.072   5.043
 5879TIP3    H117643   0.855   1.059   5.102
 5879TIP3    H217644   0.706   1.086   5.100
 5880TIP3   OH217645   3.913   3.159   0.719
 5880TIP3    H117646   3.904   3.195   0.808
 5880TIP3    H217647   4.000   3.187   0.690
 5881TIP3   OH217648   1.132   5.395   0.307
 5881TIP3    H117649   1.082   5.452   0.366
 5881TIP3    H217650   1.156   5.320   0.361
 5882TIP3   OH217651   3.808   1.568   0.913
 5882TIP3    H117652   3.853   1.499   0.961
 5882TIP3    H217653   3.878   1.623   0.878
 5883TIP3   OH217654   2.997   4.612   0.030
 5883TIP3    H117655   2.960   4.680  -0.026
 5883TIP3    H217656   2.927   4.593   0.093
 5884TIP3   OH217657   0.362   2.817   0.959
 5884TIP3    H117658   0.438   2.760   0.952
 5884TIP3    H217659   0.289   2.762   0.930
 5885TIP3   OH217660   0.367   2.201   5.019
 5885TIP3    H117661   0.362   2.210   4.923
 5885TIP3    H217662   0.460   2.214   5.039
 5886TIP3   OH217663   5.820   4.829   0.673
 5886TIP3    H117664   5.787   4.776   0.745
 5886TIP3    H217665   5.741   4.855   0.624
 5887TIP3   OH217666   5.277   4.608   1.937
 5887TIP3    H117667   5.248   4.563   1.858
 5887TIP3    H217668   5.369   4.584   1.946
 5888TIP3   OH217669   2.761   1.704   4.930
 5888TIP3    H117670   2.727   1.787   4.895
 5888TIP3    H217671   2.682   1.651   4.945
 5889TIP3   OH217672   0.367   5.178   0.981
 5889TIP3    H117673   0.332   5.092   0.960
 5889TIP3    H217674   0.299   5.239   0.953
 5890TIP3   OH217675   4.981   2.667   3.875
 5890TIP3    H117676   5.008   2.729   3.943
 5890TIP3    H217677   5.022   2.700   3.795
 5891TIP3   OH217678   0.758   1.392   4.412
 5891TIP3    H117679   0.688   1.370   4.474
 5891TIP3    H217680   0.747   1.486   4.396
 5892TIP3   OH217681   2.272   5.351   5.029
 5892TIP3    H117682   2.242   5.432   4.988
 5892TIP3    H217683   2.358   5.371   5.065
 5893TIP3   OH217684   4.677   1.731   0.482
 5893TIP3    H117685   4.673   1.823   0.457
 5893TIP3    H217686   4.739   1.692   0.421
 5894TIP3   OH217687   2.621   0.372   0.244
 5894TIP3    H117688   2.542   0.410   0.282
 5894TIP3    H217689   2.590   0.312   0.176
 5895TIP3   OH217690   3.172   1.280   1.246
 5895TIP3    H117691   3.101   1.324   1.200
 5895TIP3    H217692   3.249   1.295   1.192
 5896TIP3   OH217693   2.716   5.873   3.974
 5896TIP3    H117694   2.635   5.843   4.016
 5896TIP3    H217695   2.686   5.934   3.906
 5897TIP3   OH217696   1.173   3.629   1.885
 5897TIP3    H117697   1.257   3.668   1.861
 5897TIP3    H217698   1.109   3.671   1.828
 5898TIP3   OH217699   1.378   4.129   2.341
 5898TIP3    H117700   1.448   4.119   2.277
 5898TIP3    H217701   1.310   4.067   2.312
 5899TIP3   OH217702   1.333   3.348   4.984
 5899TIP3    H117703   1.399   3.283   4.962
 5899TIP3    H217704   1.294   3.372   4.899
 5900TIP3   OH217705   3.854   4.637   4.674
 5900TIP3    H117706   3.844   4.650   4.768
 5900TIP3    H217707   3.939   4.676   4.653
 5901TIP3   OH217708   0.571   0.634   0.098
 5901TIP3    H117709   0.587   0.607   0.189
 5901TIP3    H217710   0.632   0.706   0.084
 5902TIP3   OH217711   1.894   2.628   2.053
 5902TIP3    H117712   1.854   2.548   2.086
 5902TIP3    H217713   1.873   2.629   1.959
 5903TIP3   OH217714   5.321   2.503   2.233
 5903TIP3    H117715   5.233   2.475   2.258
 5903TIP3    H217716   5.375   2.424   2.241
 5904TIP3   OH217717   4.594   1.832   1.736
 5904TIP3    H117718   4.508   1.810   1.701
 5904TIP3    H217719   4.653   1.769   1.694
 5905TIP3   OH217720   5.703   3.404   4.835
 5905TIP3    H117721   5.714   3.402   4.931
 5905TIP3    H217722   5.625   3.458   4.822
 5906TIP3   OH217723   3.066   5.041   2.554
 5906TIP3    H117724   3.051   4.980   2.482
 5906TIP3    H217725   3.157   5.067   2.545
 5907TIP3   OH217726   0.266   4.643   1.230
 5907TIP3    H117727   0.293   4.557   1.264
 5907TIP3    H217728   0.178   4.656   1.266
 5908TIP3   OH217729   0.508   1.154   4.835
 5908TIP3    H117730   0.501   1.066   4.798
 5908TIP3    H217731   0.602   1.168   4.845
 5909TIP3   OH217732   0.766   3.342   1.576
 5909TIP3    H117733   0.685   3.341   1.627
 5909TIP3    H217734   0.764   3.425   1.530
 5910TIP3   OH217735   4.599   3.335   0.938
 5910TIP3    H117736   4.533   3.403   0.924
 5910TIP3    H217737   4.649   3.333   0.856
 5911TIP3   OH217738   2.721   2.552   4.242
 5911TIP3    H117739   2.747   2.509   4.324
 5911TIP3    H217740   2.628   2.531   4.234
 5912TIP3   OH217741   1.418   2.891   4.952
 5912TIP3    H117742   1.340   2.843   4.924
 5912TIP3    H217743   1.404   2.980   4.920
 5913TIP3   OH217744   2.304   5.853   0.271
 5913TIP3    H117745   2.288   5.935   0.317
 5913TIP3    H217746   2.399   5.842   0.272
 5914TIP3   OH217747   6.335   0.294   2.945
 5914TIP3    H117748   6.384   0.282   2.864
 5914TIP3    H217749   6.271   0.362   2.924
 5915TIP3   OH217750   5.302   2.306   0.929
 5915TIP3    H117751   5.342   2.320   1.015
 5915TIP3    H217752   5.288   2.211   0.924
 5916TIP3   OH217753   0.593   1.066   0.807
 5916TIP3    H117754   0.667   1.009   0.785
 5916TIP3    H217755   0.630   1.133   0.864
 5917TIP3   OH217756   0.582   5.567   2.097
 5917TIP3    H117757   0.500   5.588   2.141
 5917TIP3    H217758   0.558   5.556   2.005
 5918TIP3   OH217759   2.873   2.887   4.201
 5918TIP3    H117760   2.823   2.909   4.122
 5918TIP3    H217761   2.812   2.836   4.254
 5919TIP3   OH217762   4.566   1.512   0.605
 5919TIP3    H117763   4.602   1.585   0.555
 5919TIP3    H217764   4.557   1.441   0.541
 5920TIP3   OH217765   1.612   5.677   3.733
 5920TIP3    H117766   1.676   5.606   3.736
 5920TIP3    H217767   1.660   5.754   3.764
 5921TIP3   OH217768   4.678   0.188   4.196
 5921TIP3    H117769   4.663   0.266   4.144
 5921TIP3    H217770   4.764   0.156   4.167
 5922TIP3   OH217771   2.554   5.700   0.215
 5922TIP3    H117772   2.556   5.778   0.160
 5922TIP3    H217773   2.613   5.720   0.287
 5923TIP3   OH217774   0.869   0.974   0.777
 5923TIP3    H117775   0.927   0.936   0.843
 5923TIP3    H217776   0.887   0.924   0.697
 5924TIP3   OH217777   0.478   0.385   4.183
 5924TIP3    H117778   0.390   0.422   4.178
 5924TIP3    H217779   0.477   0.334   4.265
 5925TIP3   OH217780   2.572   5.021   1.058
 5925TIP3    H117781   2.622   5.053   0.983
 5925TIP3    H217782   2.523   4.946   1.023
 5926TIP3   OH217783   3.955   1.107   1.554
 5926TIP3    H117784   3.995   1.109   1.467
 5926TIP3    H217785   3.994   1.181   1.600
 5927TIP3   OH217786   2.618   3.973   0.421
 5927TIP3    H117787   2.711   3.980   0.441
 5927TIP3    H217788   2.614   3.973   0.325
 5928TIP3   OH217789   5.517   1.973   3.361
 5928TIP3    H117790   5.429   1.936   3.361
 5928TIP3    H217791   5.539   1.982   3.453
 5929TIP3   OH217792   2.459   3.223   0.506
 5929TIP3    H117793   2.471   3.143   0.455
 5929TIP3    H217794   2.412   3.283   0.448
 5930TIP3   OH217795   5.202   4.718   1.304
 5930TIP3    H117796   5.244   4.800   1.276
 5930TIP3    H217797   5.147   4.744   1.378
 5931TIP3   OH217798   2.302   1.401   5.172
 5931TIP3    H117799   2.373   1.358   5.219
 5931TIP3    H217800   2.259   1.331   5.124
 5932TIP3   OH217801   5.722   3.516   3.973
 5932TIP3    H117802   5.638   3.560   3.983
 5932TIP3    H217803   5.773   3.575   3.916
 5933TIP3   OH217804   2.156   0.764   0.827
 5933TIP3    H117805   2.153   0.672   0.804
 5933TIP3    H217806   2.233   0.799   0.782
 5934TIP3   OH217807   2.722   0.875   3.051
 5934TIP3    H117808   2.755   0.904   2.966
 5934TIP3    H217809   2.697   0.956   3.096
 5935TIP3   OH217810   5.396   3.833   4.685
 5935TIP3    H117811   5.424   3.923   4.701
 5935TIP3    H217812   5.428   3.813   4.597
 5936TIP3   OH217813   5.926   5.732   4.053
 5936TIP3    H117814   5.887   5.797   3.994
 5936TIP3    H217815   5.985   5.681   3.997
 5937TIP3   OH217816   2.834   3.847   1.003
 5937TIP3    H117817   2.806   3.793   0.929
 5937TIP3    H217818   2.907   3.798   1.042
 5938TIP3   OH217819   4.718   0.413   2.544
 5938TIP3    H117820   4.679   0.488   2.589
 5938TIP3    H217821   4.683   0.416   2.456
 5939TIP3   OH217822   4.438   5.984   3.016
 5939TIP3    H117823   4.523   5.964   3.054
 5939TIP3    H217824   4.390   5.901   3.018
 5940TIP3   OH217825   2.914   1.670   5.171
 5940TIP3    H117826   3.001   1.639   5.149
 5940TIP3    H217827   2.876   1.699   5.087
 5941TIP3   OH217828   6.332   5.154   0.780
 5941TIP3    H117829   6.348   5.235   0.732
 5941TIP3    H217830   6.345   5.084   0.716
 5942TIP3   OH217831   3.997   2.227   4.271
 5942TIP3    H117832   3.997   2.210   4.177
 5942TIP3    H217833   3.928   2.170   4.306
 5943TIP3   OH217834   5.382   3.281   1.242
 5943TIP3    H117835   5.424   3.196   1.249
 5943TIP3    H217836   5.290   3.264   1.266
 5944TIP3   OH217837   3.479   2.809   1.318
 5944TIP3    H117838   3.553   2.748   1.316
 5944TIP3    H217839   3.465   2.830   1.226
 5945TIP3   OH217840   1.602   5.610   4.342
 5945TIP3    H117841   1.668   5.674   4.369
 5945TIP3    H217842   1.640   5.525   4.365
 5946TIP3   OH217843   1.214   2.612   3.386
 5946TIP3    H117844   1.124   2.600   3.355
 5946TIP3    H217845   1.212   2.585   3.477
 5947TIP3   OH217846   5.213   2.136   2.983
 5947TIP3    H117847   5.169   2.152   3.067
 5947TIP3    H217848   5.302   2.167   2.995
 5948TIP3   OH217849   2.650   3.028   2.969
 5948TIP3    H117850   2.681   3.055   2.883
 5948TIP3    H217851   2.592   3.098   2.997
 5949TIP3   OH217852   1.449   3.121   4.831
 5949TIP3    H117853   1.412   3.157   4.750
 5949TIP3    H217854   1.544   3.124   4.817
 5950TIP3   OH217855   5.880   5.321   0.381
 5950TIP3    H117856   5.873   5.367   0.465
 5950TIP3    H217857   5.892   5.391   0.317
 5951TIP3   OH217858   0.565   4.166   3.262
 5951TIP3    H117859   0.478   4.127   3.261
 5951TIP3    H217860   0.590   4.167   3.355
 5952TIP3   OH217861   3.123   2.113   0.660
 5952TIP3    H117862   3.132   2.041   0.599
 5952TIP3    H217863   3.197   2.104   0.720
 5953TIP3   OH217864   3.984   0.087   3.531
 5953TIP3    H117865   3.958   0.087   3.439
 5953TIP3    H217866   3.997   0.179   3.552
 5954TIP3   OH217867   1.931   1.082   0.615
 5954TIP3    H117868   1.860   1.146   0.622
 5954TIP3    H217869   1.939   1.065   0.521
 5955TIP3   OH217870   0.306   0.231   3.881
 5955TIP3    H117871   0.216   0.247   3.910
 5955TIP3    H217872   0.349   0.316   3.888
 5956TIP3   OH217873   1.031   5.744   3.474
 5956TIP3    H117874   1.078   5.684   3.416
 5956TIP3    H217875   0.969   5.687   3.521
 5957TIP3   OH217876   2.836   2.396   4.436
 5957TIP3    H117877   2.913   2.351   4.400
 5957TIP3    H217878   2.829   2.364   4.525
 5958TIP3   OH217879   4.314   2.815   0.993
 5958TIP3    H117880   4.278   2.859   0.916
 5958TIP3    H217881   4.363   2.883   1.039
 5959TIP3   OH217882   4.006   3.293   1.803
 5959TIP3    H117883   4.099   3.280   1.784
 5959TIP3    H217884   3.967   3.319   1.719
 5960TIP3   OH217885   0.730   3.553   3.922
 5960TIP3    H117886   0.771   3.540   3.836
 5960TIP3    H217887   0.641   3.517   3.912
 5961TIP3   OH217888   3.685   2.517   0.571
 5961TIP3    H117889   3.645   2.485   0.490
 5961TIP3    H217890   3.666   2.611   0.572
 5962TIP3   OH217891   3.791   0.412   2.006
 5962TIP3    H117892   3.798   0.397   1.912
 5962TIP3    H217893   3.751   0.332   2.040
 5963TIP3   OH217894   2.800   0.052   2.393
 5963TIP3    H117895   2.729   0.029   2.333
 5963TIP3    H217896   2.816   0.145   2.378
 5964TIP3   OH217897   4.313   3.581   1.218
 5964TIP3    H117898   4.220   3.560   1.225
 5964TIP3    H217899   4.349   3.563   1.305
 5965TIP3   OH217900   2.348   3.136   3.441
 5965TIP3    H117901   2.420   3.198   3.453
 5965TIP3    H217902   2.384   3.052   3.473
 5966TIP3   OH217903   2.720   2.528   1.055
 5966TIP3    H117904   2.751   2.557   0.969
 5966TIP3    H217905   2.658   2.458   1.035
 5967TIP3   OH217906   1.320   2.184   0.551
 5967TIP3    H117907   1.408   2.206   0.580
 5967TIP3    H217908   1.303   2.243   0.478
 5968TIP3   OH217909   5.324   1.584   3.596
 5968TIP3    H117910   5.259   1.654   3.599
 5968TIP3    H217911   5.343   1.572   3.503
 5969TIP3   OH217912   4.910   5.772   0.213
 5969TIP3    H117913   4.884   5.754   0.303
 5969TIP3    H217914   4.880   5.696   0.163
 5970TIP3   OH217915   4.944   1.067   0.956
 5970TIP3    H117916   4.852   1.079   0.934
 5970TIP3    H217917   4.944   0.997   1.023
 5971TIP3   OH217918   2.904   0.458   0.554
 5971TIP3    H117919   2.902   0.541   0.505
 5971TIP3    H217920   2.998   0.438   0.562
 5972TIP3   OH217921   3.032   0.909   2.075
 5972TIP3    H117922   3.045   0.815   2.088
 5972TIP3    H217923   3.121   0.945   2.071
 5973TIP3   OH217924   1.794   2.121   1.106
 5973TIP3    H117925   1.758   2.137   1.019
 5973TIP3    H217926   1.820   2.029   1.105
 5974TIP3   OH217927   2.510   0.271   1.288
 5974TIP3    H117928   2.422   0.238   1.306
 5974TIP3    H217929   2.569   0.205   1.324
 5975TIP3   OH217930   5.063   3.551   5.140
 5975TIP3    H117931   5.119   3.515   5.071
 5975TIP3    H217932   5.008   3.616   5.095
 5976TIP3   OH217933   1.524   5.492   1.074
 5976TIP3    H117934   1.519   5.452   1.161
 5976TIP3    H217935   1.543   5.585   1.091
 5977TIP3   OH217936   5.127   1.634   4.905
 5977TIP3    H117937   5.204   1.635   4.848
 5977TIP3    H217938   5.091   1.546   4.896
 5978TIP3   OH217939   5.867   3.876   0.355
 5978TIP3    H117940   5.911   3.909   0.434
 5978TIP3    H217941   5.938   3.862   0.293
 5979TIP3   OH217942   3.764   3.850   3.084
 5979TIP3    H117943   3.756   3.858   3.179
 5979TIP3    H217944   3.707   3.919   3.049
 5980TIP3   OH217945   5.219   4.723   2.441
 5980TIP3    H117946   5.234   4.707   2.348
 5980TIP3    H217947   5.306   4.718   2.480
 5981TIP3   OH217948   4.231   5.186   1.223
 5981TIP3    H117949   4.300   5.244   1.254
 5981TIP3    H217950   4.202   5.139   1.301
 5982TIP3   OH217951   0.985   5.550   4.463
 5982TIP3    H117952   1.055   5.600   4.420
 5982TIP3    H217953   0.914   5.550   4.399
 5983TIP3   OH217954   3.859   1.960   0.219
 5983TIP3    H117955   3.879   1.915   0.301
 5983TIP3    H217956   3.943   1.964   0.174
 5984TIP3   OH217957   0.308   4.287   1.858
 5984TIP3    H117958   0.358   4.364   1.831
 5984TIP3    H217959   0.255   4.318   1.932
 5985TIP3   OH217960   6.358   5.266   1.546
 5985TIP3    H117961   6.423   5.221   1.601
 5985TIP3    H217962   6.317   5.196   1.496
 5986TIP3   OH217963   2.682   1.409   4.445
 5986TIP3    H117964   2.777   1.402   4.429
 5986TIP3    H217965   2.644   1.412   4.357
 5987TIP3   OH217966   0.334   1.548   2.793
 5987TIP3    H117967   0.306   1.559   2.884
 5987TIP3    H217968   0.429   1.537   2.799
 5988TIP3   OH217969   3.807   1.287   4.333
 5988TIP3    H117970   3.820   1.319   4.422
 5988TIP3    H217971   3.846   1.199   4.334
 5989TIP3   OH217972   4.444   4.693   4.503
 5989TIP3    H117973   4.448   4.638   4.425
 5989TIP3    H217974   4.525   4.675   4.550
 5990TIP3   OH217975   0.846   5.544   3.567
 5990TIP3    H117976   0.787   5.558   3.493
 5990TIP3    H217977   0.846   5.450   3.581
 5991TIP3   OH217978   3.499   5.249   4.227
 5991TIP3    H117979   3.405   5.261   4.233
 5991TIP3    H217980   3.512   5.189   4.154
 5992TIP3   OH217981   1.613   2.977   3.639
 5992TIP3    H117982   1.703   3.003   3.658
 5992TIP3    H217983   1.621   2.893   3.594
 5993TIP3   OH217984   0.661   3.262   4.722
 5993TIP3    H117985   0.596   3.309   4.773
 5993TIP3    H217986   0.610   3.210   4.660
 5994TIP3   OH217987   1.101   4.708   2.175
 5994TIP3    H117988   1.166   4.658   2.224
 5994TIP3    H217989   1.152   4.757   2.111
 5995TIP3   OH217990   3.052   3.772   2.650
 5995TIP3    H117991   3.090   3.819   2.576
 5995TIP3    H217992   3.125   3.762   2.712
 5996TIP3   OH217993   4.159   4.915   2.812
 5996TIP3    H117994   4.176   4.993   2.760
 5996TIP3    H217995   4.067   4.924   2.838
 5997TIP3   OH217996   5.073   0.280   3.059
 5997TIP3    H117997   5.087   0.352   3.120
 5997TIP3    H217998   5.034   0.211   3.113
 5998TIP3   OH217999   5.649   4.370   0.226
 5998TIP3    H118000   5.577   4.369   0.163
 5998TIP3    H218001   5.607   4.349   0.310
 5999TIP3   OH218002   1.056   4.851   3.996
 5999TIP3    H118003   1.090   4.934   3.962
 5999TIP3    H218004   1.114   4.784   3.959
 6000TIP3   OH218005   6.295   4.315   0.652
 6000TIP3    H118006   6.341   4.393   0.622
 6000TIP3    H218007   6.321   4.246   0.592
 6001TIP3   OH218008   4.333   0.638   2.952
 6001TIP3    H118009   4.263   0.698   2.922
 6001TIP3    H218010   4.286   0.570   3.000
 6002TIP3   OH218011   0.378   0.911   1.412
 6002TIP3    H118012   0.283   0.924   1.414
 6002TIP3    H218013   0.402   0.899   1.503
 6003TIP3   OH218014   4.908   4.200   3.189
 6003TIP3    H118015   4.848   4.139   3.231
 6003TIP3    H218016   4.874   4.212   3.101
 6004TIP3   OH218017   2.448   4.089   0.139
 6004TIP3    H118018   2.492   4.034   0.074
 6004TIP3    H218019   2.355   4.082   0.117
 6005TIP3   OH218020   6.106   5.395   4.768
 6005TIP3    H118021   6.047   5.459   4.807
 6005TIP3    H218022   6.068   5.375   4.683
 6006TIP3   OH218023   2.664   1.626   2.078
 6006TIP3    H118024   2.724   1.700   2.069
 6006TIP3    H218025   2.648   1.619   2.173
 6007TIP3   OH218026   4.024   0.139   2.183
 6007TIP3    H118027   4.018   0.166   2.091
 6007TIP3    H218028   4.106   0.176   2.214
 6008TIP3   OH218029   5.554   1.290   1.331
 6008TIP3    H118030   5.476   1.253   1.289
 6008TIP3    H218031   5.561   1.243   1.414
 6009TIP3   OH218032   3.177   1.507   2.106
 6009TIP3    H118033   3.122   1.550   2.041
 6009TIP3    H218034   3.214   1.432   2.060
 6010TIP3   OH218035   2.382   2.637   1.790
 6010TIP3    H118036   2.310   2.685   1.830
 6010TIP3    H218037   2.436   2.704   1.749
 6011TIP3   OH218038   6.249   1.743   5.140
 6011TIP3    H118039   6.336   1.783   5.136
 6011TIP3    H218040   6.264   1.652   5.114
 6012TIP3   OH218041   1.340   5.066   3.562
 6012TIP3    H118042   1.254   5.024   3.566
 6012TIP3    H218043   1.380   5.029   3.483
 6013TIP3   OH218044   1.903   3.192   3.880
 6013TIP3    H118045   1.913   3.219   3.971
 6013TIP3    H218046   1.869   3.270   3.836
 6014TIP3   OH218047   2.910   5.998   1.395
 6014TIP3    H118048   2.997   6.033   1.416
 6014TIP3    H218049   2.928   5.919   1.344
 6015TIP3   OH218050   6.186   1.189   0.534
 6015TIP3    H118051   6.140   1.256   0.484
 6015TIP3    H218052   6.167   1.209   0.626
 6016TIP3   OH218053   4.025   3.058   3.453
 6016TIP3    H118054   4.047   2.984   3.510
 6016TIP3    H218055   4.103   3.115   3.456
 6017TIP3   OH218056   1.193   3.718   3.410
 6017TIP3    H118057   1.203   3.660   3.335
 6017TIP3    H218058   1.152   3.664   3.477
 6018TIP3   OH218059   2.371   0.217   0.622
 6018TIP3    H118060   2.447   0.179   0.578
 6018TIP3    H218061   2.391   0.310   0.629
 6019TIP3   OH218062   5.489   5.586   0.691
 6019TIP3    H118063   5.440   5.539   0.759
 6019TIP3    H218064   5.442   5.566   0.610
 6020TIP3   OH218065   0.461   4.069   1.937
 6020TIP3    H118066   0.407   4.137   1.896
 6020TIP3    H218067   0.430   3.987   1.899
 6021TIP3   OH218068   1.777   3.409   2.050
 6021TIP3    H118069   1.721   3.448   1.983
 6021TIP3    H218070   1.866   3.419   2.016
 6022TIP3   OH218071   5.966   3.159   1.431
 6022TIP3    H118072   5.871   3.172   1.431
 6022TIP3    H218073   5.999   3.221   1.496
 6023TIP3   OH218074   5.715   4.138   0.079
 6023TIP3    H118075   5.794   4.088   0.099
 6023TIP3    H218076   5.715   4.209   0.144
 6024TIP3   OH218077   2.053   0.440   0.496
 6024TIP3    H118078   1.961   0.430   0.522
 6024TIP3    H218079   2.058   0.527   0.458
 6025TIP3   OH218080   1.462   2.078   4.370
 6025TIP3    H118081   1.484   2.119   4.286
 6025TIP3    H218082   1.546   2.068   4.414
 6026TIP3   OH218083   5.390   1.869   2.232
 6026TIP3    H118084   5.416   1.793   2.285
 6026TIP3    H218085   5.424   1.850   2.145
 6027TIP3   OH218086   1.761   4.481   4.143
 6027TIP3    H118087   1.750   4.503   4.050
 6027TIP3    H218088   1.848   4.513   4.166
 6028TIP3   OH218089   1.294   3.130   2.847
 6028TIP3    H118090   1.271   3.040   2.824
 6028TIP3    H218091   1.360   3.121   2.916
 6029TIP3   OH218092   3.538   0.219   0.283
 6029TIP3    H118093   3.567   0.127   0.285
 6029TIP3    H218094   3.620   0.269   0.288
 6030TIP3   OH218095   5.250   5.165   3.906
 6030TIP3    H118096   5.221   5.077   3.928
 6030TIP3    H218097   5.333   5.153   3.860
 6031TIP3   OH218098   4.589   4.837   2.960
 6031TIP3    H118099   4.527   4.873   3.024
 6031TIP3    H218100   4.546   4.758   2.927
 6032TIP3   OH218101   1.284   5.802   3.621
 6032TIP3    H118102   1.207   5.786   3.565
 6032TIP3    H218103   1.328   5.717   3.626
 6033TIP3   OH218104   0.566   5.024   4.321
 6033TIP3    H118105   0.503   4.953   4.328
 6033TIP3    H218106   0.512   5.103   4.319
 6034TIP3   OH218107   1.793   1.684   3.328
 6034TIP3    H118108   1.788   1.779   3.323
 6034TIP3    H218109   1.846   1.667   3.406
 6035TIP3   OH218110   0.963   0.612   0.327
 6035TIP3    H118111   0.969   0.665   0.248
 6035TIP3    H218112   0.871   0.589   0.333
 6036TIP3   OH218113   1.980   2.119   3.702
 6036TIP3    H118114   2.075   2.117   3.701
 6036TIP3    H218115   1.956   2.175   3.629
 6037TIP3   OH218116   0.655   0.517   2.305
 6037TIP3    H118117   0.615   0.531   2.219
 6037TIP3    H218118   0.582   0.488   2.361
 6038TIP3   OH218119   4.836   1.019   1.826
 6038TIP3    H118120   4.864   1.107   1.851
 6038TIP3    H218121   4.793   1.031   1.741
 6039TIP3   OH218122   2.441   5.208   2.876
 6039TIP3    H118123   2.453   5.125   2.923
 6039TIP3    H218124   2.347   5.213   2.860
 6040TIP3   OH218125   4.614   0.221   2.818
 6040TIP3    H118126   4.568   0.305   2.822
 6040TIP3    H218127   4.702   0.239   2.851
 6041TIP3   OH218128   1.346   4.254   4.691
 6041TIP3    H118129   1.303   4.170   4.675
 6041TIP3    H218130   1.337   4.268   4.785
 6042TIP3   OH218131   4.461   0.866   5.185
 6042TIP3    H118132   4.435   0.885   5.095
 6042TIP3    H218133   4.480   0.773   5.185
 6043TIP3   OH218134   3.204   2.982   1.050
 6043TIP3    H118135   3.279   2.928   1.074
 6043TIP3    H218136   3.168   3.012   1.134
 6044TIP3   OH218137   5.437   5.517   2.992
 6044TIP3    H118138   5.348   5.520   3.027
 6044TIP3    H218139   5.454   5.606   2.961
 6045TIP3   OH218140   4.383   2.027   0.684
 6045TIP3    H118141   4.376   2.015   0.779
 6045TIP3    H218142   4.293   2.020   0.652
 6046TIP3   OH218143   0.755   4.389   4.362
 6046TIP3    H118144   0.671   4.380   4.407
 6046TIP3    H218145   0.747   4.472   4.314
 6047TIP3   OH218146   4.947   1.452   2.209
 6047TIP3    H118147   4.933   1.536   2.164
 6047TIP3    H218148   4.988   1.477   2.292
 6048TIP3   OH218149   4.890   4.626   3.155
 6048TIP3    H118150   4.840   4.609   3.235
 6048TIP3    H218151   4.841   4.583   3.086
 6049TIP3   OH218152   0.666   4.317   3.042
 6049TIP3    H118153   0.680   4.264   3.121
 6049TIP3    H218154   0.652   4.253   2.972
 6050TIP3   OH218155   3.204   4.809   4.784
 6050TIP3    H118156   3.275   4.870   4.804
 6050TIP3    H218157   3.211   4.793   4.690
 6051TIP3   OH218158   2.930   2.881   2.930
 6051TIP3    H118159   2.857   2.865   2.870
 6051TIP3    H218160   2.964   2.966   2.904
 6052TIP3   OH218161   1.732   5.457   2.141
 6052TIP3    H118162   1.714   5.422   2.054
 6052TIP3    H218163   1.649   5.496   2.169
 6053TIP3   OH218164   1.619   1.695   2.235
 6053TIP3    H118165   1.594   1.616   2.284
 6053TIP3    H218166   1.637   1.663   2.146
 6054TIP3   OH218167   1.669   5.097   1.085
 6054TIP3    H118168   1.747   5.097   1.030
 6054TIP3    H218169   1.700   5.128   1.170
 6055TIP3   OH218170   3.041   1.345   3.291
 6055TIP3    H118171   3.128   1.349   3.330
 6055TIP3    H218172   3.034   1.256   3.257
 6056TIP3   OH218173   0.602   0.693   0.968
 6056TIP3    H118174   0.634   0.743   1.043
 6056TIP3    H218175   0.579   0.760   0.903
 6057TIP3   OH218176   0.268   5.553   0.055
 6057TIP3    H118177   0.181   5.566   0.092
 6057TIP3    H218178   0.253   5.494  -0.019
 6058TIP3   OH218179   5.729   2.116   0.349
 6058TIP3    H118180   5.794   2.057   0.385
 6058TIP3    H218181   5.646   2.070   0.359
 6059TIP3   OH218182   1.375   2.030   4.036
 6059TIP3    H118183   1.363   1.978   4.116
 6059TIP3    H218184   1.309   1.996   3.976
 6060TIP3   OH218185   1.726   5.678   4.799
 6060TIP3    H118186   1.761   5.745   4.741
 6060TIP3    H218187   1.669   5.625   4.743
 6061TIP3   OH218188   4.152   4.744   2.594
 6061TIP3    H118189   4.141   4.785   2.680
 6061TIP3    H218190   4.223   4.793   2.553
 6062TIP3   OH218191   5.300   0.240   0.235
 6062TIP3    H118192   5.313   0.198   0.150
 6062TIP3    H218193   5.222   0.294   0.224
 6063TIP3   OH218194   6.053   2.629   0.913
 6063TIP3    H118195   6.057   2.711   0.865
 6063TIP3    H218196   6.073   2.562   0.847
 6064TIP3   OH218197   5.712   5.376   4.393
 6064TIP3    H118198   5.624   5.378   4.355
 6064TIP3    H218199   5.768   5.416   4.326
 6065TIP3   OH218200   3.112   1.402   0.298
 6065TIP3    H118201   3.024   1.428   0.273
 6065TIP3    H218202   3.101   1.348   0.376
 6066TIP3   OH218203   2.103   1.890   3.370
 6066TIP3    H118204   2.124   1.829   3.441
 6066TIP3    H218205   2.133   1.975   3.402
 6067TIP3   OH218206   2.862   2.654   1.395
 6067TIP3    H118207   2.858   2.750   1.392
 6067TIP3    H218208   2.940   2.632   1.345
 6068TIP3   OH218209   4.082   4.515   3.422
 6068TIP3    H118210   4.177   4.505   3.419
 6068TIP3    H218211   4.049   4.454   3.355
 6069TIP3   OH218212   3.988   3.698   4.204
 6069TIP3    H118213   3.899   3.672   4.227
 6069TIP3    H218214   3.990   3.792   4.220
 6070TIP3   OH218215   3.851   4.681   0.889
 6070TIP3    H118216   3.869   4.725   0.806
 6070TIP3    H218217   3.898   4.734   0.954
 6071TIP3   OH218218   0.754   1.811   2.373
 6071TIP3    H118219   0.726   1.812   2.464
 6071TIP3    H218220   0.729   1.725   2.340
 6072TIP3   OH218221   2.044   3.850   1.571
 6072TIP3    H118222   2.123   3.903   1.561
 6072TIP3    H218223   1.993   3.895   1.638
 6073TIP3   OH218224   6.156   0.695   2.846
 6073TIP3    H118225   6.104   0.766   2.808
 6073TIP3    H218226   6.246   0.727   2.843
 6074TIP3   OH218227   4.676   4.044   4.855
 6074TIP3    H118228   4.740   4.103   4.815
 6074TIP3    H218229   4.641   3.994   4.781
 6075TIP3   OH218230   3.022   2.539   4.588
 6075TIP3    H118231   2.959   2.521   4.518
 6075TIP3    H218232   2.988   2.618   4.630
 6076TIP3   OH218233   4.981   0.712   3.033
 6076TIP3    H118234   4.962   0.625   3.068
 6076TIP3    H218235   4.996   0.698   2.940
 6077TIP3   OH218236   2.841   2.998   1.244
 6077TIP3    H118237   2.788   2.961   1.173
 6077TIP3    H218238   2.890   3.069   1.202
 6078TIP3   OH218239   1.403   4.812   1.402
 6078TIP3    H118240   1.423   4.872   1.474
 6078TIP3    H218241   1.482   4.813   1.348
 6079TIP3   OH218242   3.529   3.996   2.703
 6079TIP3    H118243   3.537   3.900   2.704
 6079TIP3    H218244   3.569   4.024   2.785
 6080TIP3   OH218245   5.203   3.015   0.700
 6080TIP3    H118246   5.194   3.078   0.772
 6080TIP3    H218247   5.276   2.959   0.727
 6081TIP3   OH218248   5.841   3.500   1.634
 6081TIP3    H118249   5.915   3.552   1.666
 6081TIP3    H218250   5.855   3.413   1.671
 6082TIP3   OH218251   6.259   4.567   0.172
 6082TIP3    H118252   6.295   4.632   0.233
 6082TIP3    H218253   6.186   4.527   0.220
 6083TIP3   OH218254   0.444   1.417   3.889
 6083TIP3    H118255   0.514   1.425   3.825
 6083TIP3    H218256   0.488   1.419   3.974
 6084TIP3   OH218257   5.951   0.182   0.688
 6084TIP3    H118258   5.884   0.123   0.724
 6084TIP3    H218259   6.034   0.142   0.715
 6085TIP3   OH218260   0.643   3.942   4.726
 6085TIP3    H118261   0.731   3.934   4.689
 6085TIP3    H218262   0.657   3.962   4.819
 6086TIP3   OH218263   2.836   4.261   4.085
 6086TIP3    H118264   2.901   4.308   4.137
 6086TIP3    H218265   2.765   4.242   4.147
 6087TIP3   OH218266   0.539   3.216   2.541
 6087TIP3    H118267   0.510   3.277   2.474
 6087TIP3    H218268   0.561   3.271   2.616
 6088TIP3   OH218269   3.381   4.560   3.861
 6088TIP3    H118270   3.433   4.503   3.804
 6088TIP3    H218271   3.334   4.500   3.919
 6089TIP3   OH218272   4.465   4.097   3.705
 6089TIP3    H118273   4.494   4.124   3.618
 6089TIP3    H218274   4.494   4.167   3.763
 6090TIP3   OH218275   0.497   1.427   0.153
 6090TIP3    H118276   0.446   1.360   0.109
 6090TIP3    H218277   0.462   1.429   0.243
 6091TIP3   OH218278   6.262   1.498   0.396
 6091TIP3    H118279   6.281   1.550   0.318
 6091TIP3    H218280   6.269   1.560   0.468
 6092TIP3   OH218281   5.033   5.693   3.473
 6092TIP3    H118282   5.087   5.748   3.417
 6092TIP3    H218283   5.078   5.608   3.474
 6093TIP3   OH218284   2.646   5.072   2.239
 6093TIP3    H118285   2.599   5.117   2.169
 6093TIP3    H218286   2.723   5.127   2.257
 6094TIP3   OH218287   3.873   0.153   0.401
 6094TIP3    H118288   3.796   0.161   0.458
 6094TIP3    H218289   3.909   0.067   0.420
 6095TIP3   OH218290   2.934   2.388   2.988
 6095TIP3    H118291   2.936   2.321   3.056
 6095TIP3    H218292   2.913   2.340   2.908
 6096TIP3   OH218293   5.581   2.949   0.076
 6096TIP3    H118294   5.664   2.908   0.101
 6096TIP3    H218295   5.580   2.944  -0.019
 6097TIP3   OH218296   4.857   0.323   2.895
 6097TIP3    H118297   4.908   0.327   2.815
 6097TIP3    H218298   4.912   0.272   2.955
 6098TIP3   OH218299   2.149   1.447   1.842
 6098TIP3    H118300   2.116   1.513   1.903
 6098TIP3    H218301   2.240   1.472   1.826
 6099TIP3   OH218302   2.239   2.194   3.711
 6099TIP3    H118303   2.334   2.209   3.711
 6099TIP3    H218304   2.206   2.254   3.778
 6100TIP3   OH218305   4.256   0.554   2.288
 6100TIP3    H118306   4.217   0.595   2.210
 6100TIP3    H218307   4.204   0.475   2.301
 6101TIP3   OH218308   2.363   4.107   3.561
 6101TIP3    H118309   2.297   4.065   3.505
 6101TIP3    H218310   2.313   4.139   3.636
 6102TIP3   OH218311   2.018   5.433   2.013
 6102TIP3    H118312   2.037   5.519   1.975
 6102TIP3    H218313   1.944   5.448   2.071
 6103TIP3   OH218314   2.114   3.506   3.114
 6103TIP3    H118315   2.154   3.428   3.076
 6103TIP3    H218316   2.047   3.532   3.050
 6104TIP3   OH218317   0.046   0.907   4.160
 6104TIP3    H118318  -0.019   0.882   4.226
 6104TIP3    H218319   0.125   0.926   4.211
 6105TIP3   OH218320   1.581   1.194   3.606
 6105TIP3    H118321   1.598   1.124   3.544
 6105TIP3    H218322   1.638   1.266   3.578
 6106TIP3   OH218323   4.912   3.185   3.132
 6106TIP3    H118324   5.007   3.174   3.134
 6106TIP3    H218325   4.878   3.099   3.156
 6107TIP3   OH218326   4.399   1.949   3.384
 6107TIP3    H118327   4.425   1.872   3.435
 6107TIP3    H218328   4.308   1.966   3.410
 6108TIP3   OH218329   2.495   3.331   3.842
 6108TIP3    H118330   2.572   3.274   3.832
 6108TIP3    H218331   2.422   3.270   3.856
 6109TIP3   OH218332   2.016   1.867   1.869
 6109TIP3    H118333   1.996   1.959   1.857
 6109TIP3    H218334   1.998   1.849   1.961
 6110TIP3   OH218335   3.848   0.071   3.296
 6110TIP3    H118336   3.856   0.142   3.232
 6110TIP3    H218337   3.759   0.037   3.283
 6111TIP3   OH218338   2.150   1.575   2.803
 6111TIP3    H118339   2.155   1.568   2.708
 6111TIP3    H218340   2.082   1.640   2.819
 6112TIP3   OH218341   2.883   4.214   0.526
 6112TIP3    H118342   2.971   4.176   0.526
 6112TIP3    H218343   2.857   4.213   0.434
 6113TIP3   OH218344   4.389   0.516   1.050
 6113TIP3    H118345   4.392   0.602   1.093
 6113TIP3    H218346   4.367   0.536   0.959
 6114TIP3   OH218347   0.030   5.171   0.022
 6114TIP3    H118348  -0.044   5.187  -0.037
 6114TIP3    H218349   0.021   5.238   0.090
 6115TIP3   OH218350   3.113   1.358   2.360
 6115TIP3    H118351   3.129   1.263   2.362
 6115TIP3    H218352   3.050   1.372   2.430
 6116TIP3   OH218353   5.112   2.770   3.324
 6116TIP3    H118354   5.022   2.742   3.340
 6116TIP3    H218355   5.143   2.802   3.408
 6117TIP3   OH218356   0.863   1.890   4.069
 6117TIP3    H118357   0.905   1.975   4.056
 6117TIP3    H218358   0.770   1.907   4.057
 6118TIP3   OH218359   3.616   3.701   0.769
 6118TIP3    H118360   3.678   3.711   0.842
 6118TIP3    H218361   3.610   3.789   0.731
 6119TIP3   OH218362   3.430   5.814   0.493
 6119TIP3    H118363   3.343   5.844   0.518
 6119TIP3    H218364   3.451   5.863   0.414
 6120TIP3   OH218365   5.063   1.729   1.531
 6120TIP3    H118366   5.060   1.812   1.579
 6120TIP3    H218367   5.157   1.713   1.517
 6121TIP3   OH218368   3.059   1.835   1.441
 6121TIP3    H118369   3.019   1.917   1.413
 6121TIP3    H218370   3.149   1.858   1.464
 6122TIP3   OH218371   3.864   3.115   5.039
 6122TIP3    H118372   3.953   3.151   5.035
 6122TIP3    H218373   3.812   3.183   5.082
 6123TIP3   OH218374   0.922   0.879   0.505
 6123TIP3    H118375   0.976   0.857   0.429
 6123TIP3    H218376   0.901   0.972   0.494
 6124TIP3   OH218377   0.318   1.486   4.563
 6124TIP3    H118378   0.233   1.522   4.540
 6124TIP3    H218379   0.331   1.508   4.655
 6125TIP3   OH218380   3.214   0.811   2.391
 6125TIP3    H118381   3.259   0.808   2.306
 6125TIP3    H218382   3.139   0.753   2.381
 6126TIP3   OH218383   5.647   0.372   4.376
 6126TIP3    H118384   5.582   0.434   4.409
 6126TIP3    H218385   5.637   0.295   4.432
 6127TIP3   OH218386   4.045   0.294   3.296
 6127TIP3    H118387   3.950   0.295   3.289
 6127TIP3    H218388   4.063   0.294   3.390
 6128TIP3   OH218389   2.311   4.264   3.190
 6128TIP3    H118390   2.376   4.303   3.132
 6128TIP3    H218391   2.232   4.318   3.179
 6129TIP3   OH218392   1.100   2.647   4.015
 6129TIP3    H118393   1.136   2.558   4.009
 6129TIP3    H218394   1.095   2.664   4.109
 6130TIP3   OH218395   1.292   4.630   0.864
 6130TIP3    H118396   1.343   4.611   0.943
 6130TIP3    H218397   1.335   4.707   0.826
 6131TIP3   OH218398   1.834   2.799   2.376
 6131TIP3    H118399   1.913   2.813   2.428
 6131TIP3    H218400   1.822   2.881   2.328
 6132TIP3   OH218401   1.102   1.697   3.284
 6132TIP3    H118402   1.161   1.746   3.226
 6132TIP3    H218403   1.107   1.743   3.367
 6133TIP3   OH218404   2.406   3.705   2.578
 6133TIP3    H118405   2.338   3.673   2.637
 6133TIP3    H218406   2.382   3.668   2.493
 6134TIP3   OH218407   1.789   4.848   0.027
 6134TIP3    H118408   1.804   4.935   0.063
 6134TIP3    H218409   1.873   4.823  -0.011
 6135TIP3   OH218410   0.428   1.618   2.534
 6135TIP3    H118411   0.383   1.584   2.611
 6135TIP3    H218412   0.514   1.644   2.565
 6136TIP3   OH218413   4.873   3.293   3.564
 6136TIP3    H118414   4.908   3.345   3.492
 6136TIP3    H218415   4.779   3.286   3.545
 6137TIP3   OH218416   5.223   3.878   5.069
 6137TIP3    H118417   5.147   3.924   5.105
 6137TIP3    H218418   5.187   3.823   4.999
 6138TIP3   OH218419   3.018   5.915   2.538
 6138TIP3    H118420   2.937   5.868   2.560
 6138TIP3    H218421   3.045   5.877   2.455
 6139TIP3   OH218422   6.102   0.421   1.287
 6139TIP3    H118423   6.013   0.453   1.302
 6139TIP3    H218424   6.107   0.410   1.192
 6140TIP3   OH218425   1.068   0.579   3.899
 6140TIP3    H118426   1.009   0.555   3.970
 6140TIP3    H218427   1.141   0.624   3.941
 6141TIP3   OH218428   0.387   5.880   5.037
 6141TIP3    H118429   0.295   5.855   5.032
 6141TIP3    H218430   0.391   5.947   5.105
 6142TIP3   OH218431   3.911   2.331   0.524
 6142TIP3    H118432   3.828   2.378   0.529
 6142TIP3    H218433   3.941   2.345   0.435
 6143TIP3   OH218434   0.098   5.681   4.617
 6143TIP3    H118435   0.051   5.666   4.535
 6143TIP3    H218436   0.029   5.698   4.681
 6144TIP3   OH218437   1.297   4.822   5.023
 6144TIP3    H118438   1.266   4.827   5.114
 6144TIP3    H218439   1.360   4.750   5.023
 6145TIP3   OH218440   1.454   3.506   5.174
 6145TIP3    H118441   1.385   3.572   5.182
 6145TIP3    H218442   1.430   3.456   5.096
 6146TIP3   OH218443   4.766   5.065   0.916
 6146TIP3    H118444   4.766   5.026   0.829
 6146TIP3    H218445   4.850   5.111   0.922
 6147TIP3   OH218446   4.184   2.784   3.900
 6147TIP3    H118447   4.209   2.857   3.957
 6147TIP3    H218448   4.265   2.734   3.889
 6148TIP3   OH218449   0.274   3.968   4.984
 6148TIP3    H118450   0.250   3.949   5.074
 6148TIP3    H218451   0.345   4.033   4.991
 6149TIP3   OH218452   1.543   4.144   0.750
 6149TIP3    H118453   1.466   4.201   0.744
 6149TIP3    H218454   1.598   4.171   0.676
 6150TIP3   OH218455   1.819   4.492   4.824
 6150TIP3    H118456   1.746   4.429   4.827
 6150TIP3    H218457   1.881   4.453   4.762
 6151TIP3   OH218458   1.815   4.225   2.793
 6151TIP3    H118459   1.725   4.195   2.805
 6151TIP3    H218460   1.825   4.231   2.698
 6152TIP3   OH218461   4.419   3.669   2.702
 6152TIP3    H118462   4.374   3.593   2.738
 6152TIP3    H218463   4.349   3.730   2.680
 6153TIP3   OH218464   4.072   1.653   4.827
 6153TIP3    H118465   4.124   1.692   4.757
 6153TIP3    H218466   4.104   1.695   4.907
 6154TIP3   OH218467   3.992   2.369   2.036
 6154TIP3    H118468   4.001   2.345   2.128
 6154TIP3    H218469   4.025   2.293   1.988
 6155TIP3   OH218470   3.459   4.946   1.409
 6155TIP3    H118471   3.520   4.980   1.475
 6155TIP3    H218472   3.484   4.855   1.397
 6156TIP3   OH218473   1.089   3.012   2.173
 6156TIP3    H118474   1.166   3.029   2.228
 6156TIP3    H218475   1.088   3.085   2.110
 6157TIP3   OH218476   0.040   2.499   5.161
 6157TIP3    H118477   0.069   2.503   5.252
 6157TIP3    H218478  -0.031   2.562   5.155
 6158TIP3   OH218479   5.723   3.538   1.403
 6158TIP3    H118480   5.644   3.492   1.430
 6158TIP3    H218481   5.783   3.529   1.477
 6159TIP3   OH218482   4.126   1.207   4.200
 6159TIP3    H118483   4.064   1.157   4.253
 6159TIP3    H218484   4.097   1.298   4.209
 6160TIP3   OH218485   5.549   4.149   2.551
 6160TIP3    H118486   5.629   4.151   2.498
 6160TIP3    H218487   5.504   4.231   2.529
 6161TIP3   OH218488   5.885   0.585   1.810
 6161TIP3    H118489   5.973   0.610   1.836
 6161TIP3    H218490   5.851   0.535   1.885
 6162TIP3   OH218491   4.575   0.454   4.128
 6162TIP3    H118492   4.597   0.545   4.148
 6162TIP3    H218493   4.563   0.412   4.213
 6163TIP3   OH218494   3.525   2.067   1.215
 6163TIP3    H118495   3.579   2.052   1.137
 6163TIP3    H218496   3.447   2.113   1.182
 6164TIP3   OH218497   5.585   5.841   2.199
 6164TIP3    H118498   5.531   5.920   2.193
 6164TIP3    H218499   5.655   5.864   2.260
 6165TIP3   OH218500   5.712   1.392   4.555
 6165TIP3    H118501   5.716   1.487   4.548
 6165TIP3    H218502   5.618   1.373   4.562
 6166TIP3   OH218503   4.097   4.858   0.635
 6166TIP3    H118504   4.168   4.854   0.698
 6166TIP3    H218505   4.104   4.945   0.597
 6167TIP3   OH218506   0.224   0.110   1.127
 6167TIP3    H118507   0.204   0.142   1.039
 6167TIP3    H218508   0.300   0.052   1.115
 6168TIP3   OH218509   5.792   5.960   3.966
 6168TIP3    H118510   5.838   5.992   3.888
 6168TIP3    H218511   5.704   5.939   3.936
 6169TIP3   OH218512   3.060   3.356   3.413
 6169TIP3    H118513   2.994   3.316   3.357
 6169TIP3    H218514   3.108   3.415   3.355
 6170TIP3   OH218515   1.939   2.341   3.445
 6170TIP3    H118516   1.858   2.391   3.457
 6170TIP3    H218517   1.927   2.295   3.362
 6171TIP3   OH218518   2.144   3.611   1.129
 6171TIP3    H118519   2.216   3.663   1.164
 6171TIP3    H218520   2.076   3.615   1.195
 6172TIP3   OH218521   3.950   1.403   4.819
 6172TIP3    H118522   3.904   1.401   4.903
 6172TIP3    H218523   4.001   1.484   4.822
 6173TIP3   OH218524   0.814   0.685   0.665
 6173TIP3    H118525   0.842   0.749   0.599
 6173TIP3    H218526   0.896   0.648   0.700
 6174TIP3   OH218527   1.455   2.111   0.142
 6174TIP3    H118528   1.485   2.028   0.180
 6174TIP3    H218529   1.533   2.167   0.142
 6175TIP3   OH218530   3.712   0.644   0.066
 6175TIP3    H118531   3.777   0.593   0.115
 6175TIP3    H218532   3.704   0.726   0.115
 6176TIP3   OH218533   4.398   2.809   2.257
 6176TIP3    H118534   4.368   2.718   2.265
 6176TIP3    H218535   4.371   2.835   2.169
 6177TIP3   OH218536   5.093   3.465   2.986
 6177TIP3    H118537   5.035   3.541   2.997
 6177TIP3    H218538   5.114   3.464   2.892
 6178TIP3   OH218539   5.412   1.584   3.330
 6178TIP3    H118540   5.463   1.539   3.262
 6178TIP3    H218541   5.327   1.600   3.289
 6179TIP3   OH218542   0.025   1.737   3.201
 6179TIP3    H118543   0.072   1.690   3.270
 6179TIP3    H218544  -0.004   1.668   3.141
 6180TIP3   OH218545   1.601   5.663   0.734
 6180TIP3    H118546   1.509   5.666   0.761
 6180TIP3    H218547   1.598   5.657   0.639
 6181TIP3   OH218548   2.355   2.044   4.881
 6181TIP3    H118549   2.343   1.997   4.799
 6181TIP3    H218550   2.404   2.123   4.856
 6182TIP3   OH218551   1.110   3.060   0.658
 6182TIP3    H118552   1.031   3.108   0.681
 6182TIP3    H218553   1.182   3.118   0.681
 6183TIP3   OH218554   3.932   0.993   0.329
 6183TIP3    H118555   3.893   1.072   0.291
 6183TIP3    H218556   3.875   0.971   0.403
 6184TIP3   OH218557   2.787   3.315   4.565
 6184TIP3    H118558   2.870   3.281   4.531
 6184TIP3    H218559   2.749   3.242   4.613
 6185TIP3   OH218560   3.265   1.298   4.592
 6185TIP3    H118561   3.359   1.304   4.576
 6185TIP3    H218562   3.229   1.262   4.511
 6186TIP3   OH218563   3.709   5.221   0.926
 6186TIP3    H118564   3.736   5.296   0.873
 6186TIP3    H218565   3.666   5.162   0.864
 6187TIP3   OH218566   1.802   3.662   2.647
 6187TIP3    H118567   1.713   3.654   2.614
 6187TIP3    H218568   1.851   3.593   2.602
 6188TIP3   OH218569   6.021   0.096   1.136
 6188TIP3    H118570   6.078   0.092   1.059
 6188TIP3    H218571   5.934   0.111   1.100
 6189TIP3   OH218572   0.025   4.067   3.773
 6189TIP3    H118573   0.104   4.112   3.803
 6189TIP3    H218574   0.008   4.001   3.841
 6190TIP3   OH218575   2.948   5.797   1.159
 6190TIP3    H118576   2.858   5.793   1.192
 6190TIP3    H218577   2.981   5.708   1.170
 6191TIP3   OH218578   0.933   1.526   1.231
 6191TIP3    H118579   0.988   1.603   1.242
 6191TIP3    H218580   0.849   1.560   1.203
 6192TIP3   OH218581   2.636   2.334   4.647
 6192TIP3    H118582   2.626   2.388   4.569
 6192TIP3    H218583   2.556   2.282   4.650
 6193TIP3   OH218584   6.264   0.297   3.352
 6193TIP3    H118585   6.350   0.290   3.392
 6193TIP3    H218586   6.270   0.374   3.295
 6194TIP3   OH218587   3.809   4.579   2.789
 6194TIP3    H118588   3.856   4.616   2.864
 6194TIP3    H218589   3.761   4.654   2.752
 6195TIP3   OH218590   0.247   0.366   0.189
 6195TIP3    H118591   0.243   0.327   0.277
 6195TIP3    H218592   0.202   0.450   0.198
 6196TIP3   OH218593   1.325   1.721   1.044
 6196TIP3    H118594   1.409   1.747   1.080
 6196TIP3    H218595   1.279   1.804   1.027
 6197TIP3   OH218596   4.407   4.134   4.561
 6197TIP3    H118597   4.434   4.200   4.498
 6197TIP3    H218598   4.323   4.165   4.595
 6198TIP3   OH218599   3.838   2.294   1.341
 6198TIP3    H118600   3.812   2.293   1.249
 6198TIP3    H218601   3.756   2.309   1.389
 6199TIP3   OH218602   3.519   0.737   2.394
 6199TIP3    H118603   3.515   0.669   2.327
 6199TIP3    H218604   3.429   0.770   2.400
 6200TIP3   OH218605   5.495   1.735   2.478
 6200TIP3    H118606   5.565   1.785   2.437
 6200TIP3    H218607   5.526   1.720   2.568
 6201TIP3   OH218608   0.050   0.431   0.770
 6201TIP3    H118609   0.123   0.489   0.748
 6201TIP3    H218610  -0.014   0.445   0.701
 6202TIP3   OH218611   6.337   1.669   3.950
 6202TIP3    H118612   6.243   1.653   3.944
 6202TIP3    H218613   6.359   1.650   4.041
 6203TIP3   OH218614   3.605   0.320   3.289
 6203TIP3    H118615   3.618   0.274   3.206
 6203TIP3    H218616   3.584   0.251   3.352
 6204TIP3   OH218617   3.468   1.074   0.918
 6204TIP3    H118618   3.394   1.075   0.858
 6204TIP3    H218619   3.545   1.086   0.861
 6205TIP3   OH218620   6.308   3.700   4.607
 6205TIP3    H118621   6.336   3.644   4.535
 6205TIP3    H218622   6.317   3.645   4.685
 6206TIP3   OH218623   1.763   4.017   0.148
 6206TIP3    H118624   1.751   3.982   0.236
 6206TIP3    H218625   1.681   4.062   0.129
 6207TIP3   OH218626   4.135   0.356   2.469
 6207TIP3    H118627   4.121   0.266   2.499
 6207TIP3    H218628   4.106   0.410   2.543
 6208TIP3   OH218629   5.385   5.675   4.295
 6208TIP3    H118630   5.305   5.726   4.286
 6208TIP3    H218631   5.455   5.737   4.273
 6209TIP3   OH218632   3.859   2.269   1.019
 6209TIP3    H118633   3.855   2.184   0.976
 6209TIP3    H218634   3.858   2.333   0.947
 6210TIP3   OH218635   2.712   5.131   3.744
 6210TIP3    H118636   2.641   5.069   3.724
 6210TIP3    H218637   2.715   5.189   3.668
 6211TIP3   OH218638   5.648   0.076   0.658
 6211TIP3    H118639   5.621  -0.009   0.694
 6211TIP3    H218640   5.612   0.077   0.569
 6212TIP3   OH218641   3.439   3.772   0.152
 6212TIP3    H118642   3.382   3.765   0.228
 6212TIP3    H218643   3.507   3.834   0.179
 6213TIP3   OH218644   5.894   5.520   4.226
 6213TIP3    H118645   5.861   5.569   4.301
 6213TIP3    H218646   5.907   5.586   4.158
 6214TIP3   OH218647   4.675   4.141   5.130
 6214TIP3    H118648   4.649   4.232   5.120
 6214TIP3    H218649   4.675   4.106   5.041
 6215TIP3   OH218650   5.910   4.375   3.397
 6215TIP3    H118651   5.871   4.462   3.395
 6215TIP3    H218652   5.863   4.330   3.468
 6216TIP3   OH218653   1.120   3.951   3.223
 6216TIP3    H118654   1.176   3.925   3.297
 6216TIP3    H218655   1.166   3.917   3.146
 6217TIP3   OH218656   5.531   5.932   0.002
 6217TIP3    H118657   5.563   5.895   0.084
 6217TIP3    H218658   5.502   5.856  -0.049
 6218TIP3   OH218659   5.782   1.034   2.665
 6218TIP3    H118660   5.737   0.975   2.604
 6218TIP3    H218661   5.854   1.070   2.613
 6219TIP3   OH218662   4.283   4.050   4.889
 6219TIP3    H118663   4.286   4.013   4.801
 6219TIP3    H218664   4.314   3.980   4.946
 6220TIP3   OH218665   4.299   5.655   1.205
 6220TIP3    H118666   4.245   5.719   1.158
 6220TIP3    H218667   4.386   5.663   1.167
 6221TIP3   OH218668   0.629   2.736   0.271
 6221TIP3    H118669   0.567   2.679   0.318
 6221TIP3    H218670   0.713   2.720   0.313
 6222TIP3   OH218671   3.259   5.684   0.279
 6222TIP3    H118672   3.250   5.762   0.224
 6222TIP3    H218673   3.172   5.642   0.276
 6223TIP3   OH218674   0.410   0.188   2.811
 6223TIP3    H118675   0.478   0.165   2.749
 6223TIP3    H218676   0.449   0.173   2.897
 6224TIP3   OH218677   5.847   1.477   3.959
 6224TIP3    H118678   5.839   1.468   4.054
 6224TIP3    H218679   5.760   1.507   3.931
 6225TIP3   OH218680   5.760   0.404   3.833
 6225TIP3    H118681   5.676   0.402   3.880
 6225TIP3    H218682   5.810   0.332   3.871
 6226TIP3   OH218683   2.661   2.931   3.986
 6226TIP3    H118684   2.619   2.921   4.072
 6226TIP3    H218685   2.591   2.919   3.923
 6227TIP3   OH218686   0.122   0.985   0.127
 6227TIP3    H118687   0.077   0.905   0.156
 6227TIP3    H218688   0.156   1.023   0.208
 6228TIP3   OH218689   5.198   3.080   3.428
 6228TIP3    H118690   5.262   3.128   3.481
 6228TIP3    H218691   5.116   3.088   3.477
 6229TIP3   OH218692   4.633   0.843   4.624
 6229TIP3    H118693   4.550   0.842   4.576
 6229TIP3    H218694   4.689   0.904   4.576
 6230TIP3   OH218695   5.365   2.488   4.221
 6230TIP3    H118696   5.281   2.533   4.212
 6230TIP3    H218697   5.430   2.558   4.228
 6231TIP3   OH218698   1.235   1.231   4.218
 6231TIP3    H118699   1.141   1.215   4.227
 6231TIP3    H218700   1.241   1.325   4.201
 6232TIP3   OH218701   0.927   5.984   2.033
 6232TIP3    H118702   0.875   6.064   2.025
 6232TIP3    H218703   0.863   5.917   2.057
 6233TIP3   OH218704   2.346   1.090   3.301
 6233TIP3    H118705   2.257   1.108   3.332
 6233TIP3    H218706   2.385   1.037   3.370
 6234TIP3   OH218707   5.766   4.503   4.149
 6234TIP3    H118708   5.853   4.545   4.148
 6234TIP3    H218709   5.705   4.576   4.144
 6235TIP3   OH218710   4.026   2.978   0.515
 6235TIP3    H118711   4.098   3.041   0.520
 6235TIP3    H218712   3.957   3.018   0.568
 6236TIP3   OH218713   3.179   2.416   2.702
 6236TIP3    H118714   3.088   2.388   2.700
 6236TIP3    H218715   3.175   2.511   2.693
 6237TIP3   OH218716   6.204   2.166   2.751
 6237TIP3    H118717   6.115   2.151   2.782
 6237TIP3    H218718   6.232   2.245   2.797
 6238TIP3   OH218719   6.036   4.188   4.556
 6238TIP3    H118720   6.001   4.148   4.636
 6238TIP3    H218721   5.961   4.232   4.516
 6239TIP3   OH218722   4.233   1.922   2.183
 6239TIP3    H118723   4.284   1.878   2.250
 6239TIP3    H218724   4.289   1.919   2.105
 6240TIP3   OH218725   5.347   4.694   0.971
 6240TIP3    H118726   5.329   4.787   0.979
 6240TIP3    H218727   5.442   4.686   0.981
 6241TIP3   OH218728   4.431   4.957   5.098
 6241TIP3    H118729   4.485   4.983   5.172
 6241TIP3    H218730   4.479   4.989   5.021
 6242TIP3   OH218731   3.409   2.653   2.783
 6242TIP3    H118732   3.315   2.655   2.764
 6242TIP3    H218733   3.446   2.599   2.713
 6243TIP3   OH218734   5.685   1.285   2.954
 6243TIP3    H118735   5.705   1.307   2.863
 6243TIP3    H218736   5.724   1.199   2.967
 6244TIP3   OH218737   4.585   3.769   3.245
 6244TIP3    H118738   4.587   3.733   3.333
 6244TIP3    H218739   4.639   3.848   3.250
 6245TIP3   OH218740   0.002   5.165   2.211
 6245TIP3    H118741  -0.016   5.236   2.273
 6245TIP3    H218742   0.036   5.094   2.265
 6246TIP3   OH218743   4.401   3.841   3.612
 6246TIP3    H118744   4.418   3.933   3.633
 6246TIP3    H218745   4.477   3.814   3.559
 6247TIP3   OH218746   2.184   5.767   2.267
 6247TIP3    H118747   2.096   5.744   2.297
 6247TIP3    H218748   2.213   5.836   2.326
 6248TIP3   OH218749   5.256   3.671   0.498
 6248TIP3    H118750   5.233   3.706   0.584
 6248TIP3    H218751   5.173   3.667   0.451
 6249TIP3   OH218752   0.579   3.388   2.752
 6249TIP3    H118753   0.519   3.429   2.814
 6249TIP3    H218754   0.654   3.360   2.805
 6250TIP3   OH218755   5.862   2.456   1.623
 6250TIP3    H118756   5.939   2.508   1.601
 6250TIP3    H218757   5.789   2.517   1.618
 6251TIP3   OH218758   0.362   4.654   4.410
 6251TIP3    H118759   0.400   4.717   4.471
 6251TIP3    H218760   0.288   4.616   4.457
 6252TIP3   OH218761   3.898   1.342   2.870
 6252TIP3    H118762   3.857   1.390   2.943
 6252TIP3    H218763   3.982   1.388   2.856
 6253TIP3   OH218764   0.587   5.511   4.012
 6253TIP3    H118765   0.643   5.535   3.939
 6253TIP3    H218766   0.508   5.475   3.972
 6254TIP3   OH218767   2.843   0.645   3.050
 6254TIP3    H118768   2.799   0.730   3.053
 6254TIP3    H218769   2.933   0.665   3.024
 6255TIP3   OH218770   3.925   4.084   1.276
 6255TIP3    H118771   3.914   4.178   1.263
 6255TIP3    H218772   3.879   4.066   1.357
 6256TIP3   OH218773   5.530   2.677   2.219
 6256TIP3    H118774   5.533   2.688   2.124
 6256TIP3    H218775   5.449   2.629   2.235
 6257TIP3   OH218776   1.919   0.802   4.998
 6257TIP3    H118777   2.001   0.753   5.006
 6257TIP3    H218778   1.861   0.743   4.950
 6258TIP3   OH218779   2.689   1.214   4.101
 6258TIP3    H118780   2.731   1.249   4.022
 6258TIP3    H218781   2.648   1.290   4.142
 6259TIP3   OH218782   4.503   3.697   3.925
 6259TIP3    H118783   4.451   3.669   3.850
 6259TIP3    H218784   4.522   3.617   3.973
 6260TIP3   OH218785   0.047   0.446   1.032
 6260TIP3    H118786  -0.044   0.470   1.017
 6260TIP3    H218787   0.078   0.414   0.947
 6261TIP3   OH218788   4.534   2.569   1.317
 6261TIP3    H118789   4.507   2.538   1.230
 6261TIP3    H218790   4.479   2.521   1.378
 6262TIP3   OH218791   3.635   1.495   1.307
 6262TIP3    H118792   3.617   1.582   1.272
 6262TIP3    H218793   3.597   1.497   1.395
 6263TIP3   OH218794   2.308   0.509   3.300
 6263TIP3    H118795   2.323   0.536   3.210
 6263TIP3    H218796   2.390   0.469   3.328
 6264TIP3   OH218797   5.561   0.536   4.668
 6264TIP3    H118798   5.601   0.578   4.743
 6264TIP3    H218799   5.587   0.444   4.675
 6265TIP3   OH218800   6.199   5.908   3.379
 6265TIP3    H118801   6.260   5.953   3.321
 6265TIP3    H218802   6.113   5.929   3.344
 6266TIP3   OH218803   3.653   3.128   1.087
 6266TIP3    H118804   3.627   3.152   0.998
 6266TIP3    H218805   3.745   3.151   1.093
 6267TIP3   OH218806   4.433   3.589   1.471
 6267TIP3    H118807   4.508   3.642   1.495
 6267TIP3    H218808   4.429   3.521   1.538
 6268TIP3   OH218809   3.310   0.131   3.484
 6268TIP3    H118810   3.291   0.171   3.569
 6268TIP3    H218811   3.237   0.071   3.469
 6269TIP3   OH218812   3.206   5.967   4.795
 6269TIP3    H118813   3.180   5.879   4.770
 6269TIP3    H218814   3.297   5.958   4.823
 6270TIP3   OH218815   4.520   0.507   0.474
 6270TIP3    H118816   4.504   0.458   0.393
 6270TIP3    H218817   4.614   0.521   0.475
 6271TIP3   OH218818   2.636   4.643   2.465
 6271TIP3    H118819   2.663   4.562   2.422
 6271TIP3    H218820   2.618   4.704   2.393
 6272TIP3   OH218821   4.683   4.790   3.335
 6272TIP3    H118822   4.712   4.704   3.366
 6272TIP3    H218823   4.593   4.775   3.305
 6273TIP3   OH218824   0.362   1.001   2.678
 6273TIP3    H118825   0.406   0.958   2.605
 6273TIP3    H218826   0.404   1.087   2.684
 6274TIP3   OH218827   5.999   5.877   4.984
 6274TIP3    H118828   6.014   5.928   4.904
 6274TIP3    H218829   6.062   5.913   5.047
 6275TIP3   OH218830   4.130   4.359   3.202
 6275TIP3    H118831   4.147   4.419   3.129
 6275TIP3    H218832   4.037   4.338   3.194
 6276TIP3   OH218833   1.712   0.966   4.717
 6276TIP3    H118834   1.677   1.035   4.662
 6276TIP3    H218835   1.807   0.978   4.714
 6277TIP3   OH218836   0.834   2.016   3.756
 6277TIP3    H118837   0.761   1.956   3.744
 6277TIP3    H218838   0.872   2.025   3.669
 6278TIP3   OH218839   4.866   4.232   1.224
 6278TIP3    H118840   4.789   4.264   1.271
 6278TIP3    H218841   4.940   4.255   1.280
 6279TIP3   OH218842   0.888   5.534   1.292
 6279TIP3    H118843   0.831   5.589   1.239
 6279TIP3    H218844   0.872   5.445   1.259
 6280TIP3   OH218845   4.220   5.235   4.819
 6280TIP3    H118846   4.150   5.202   4.876
 6280TIP3    H218847   4.293   5.174   4.832
 6281TIP3   OH218848   0.812   3.345   0.981
 6281TIP3    H118849   0.857   3.395   1.049
 6281TIP3    H218850   0.847   3.257   0.988
 6282TIP3   OH218851   1.436   5.802   3.907
 6282TIP3    H118852   1.481   5.752   3.839
 6282TIP3    H218853   1.439   5.892   3.876
 6283TIP3   OH218854   2.411   1.522   3.318
 6283TIP3    H118855   2.319   1.512   3.293
 6283TIP3    H218856   2.460   1.484   3.246
 6284TIP3   OH218857   5.526   5.904   3.926
 6284TIP3    H118858   5.441   5.913   3.967
 6284TIP3    H218859   5.511   5.842   3.854
 6285TIP3   OH218860   3.804   3.286   0.481
 6285TIP3    H118861   3.848   3.239   0.551
 6285TIP3    H218862   3.832   3.377   0.490
 6286TIP3   OH218863   4.895   4.731   0.201
 6286TIP3    H118864   4.825   4.665   0.198
 6286TIP3    H218865   4.953   4.707   0.129
 6287TIP3   OH218866   1.836   0.532   0.973
 6287TIP3    H118867   1.894   0.457   0.982
 6287TIP3    H218868   1.812   0.555   1.063
 6288TIP3   OH218869   2.684   2.931   0.508
 6288TIP3    H118870   2.758   2.989   0.493
 6288TIP3    H218871   2.707   2.884   0.589
 6289TIP3   OH218872   3.266   4.828   0.094
 6289TIP3    H118873   3.203   4.837   0.166
 6289TIP3    H218874   3.332   4.895   0.112
 6290TIP3   OH218875   2.178   3.845   2.407
 6290TIP3    H118876   2.251   3.880   2.356
 6290TIP3    H218877   2.204   3.859   2.498
 6291TIP3   OH218878   1.237   3.549   3.197
 6291TIP3    H118879   1.162   3.513   3.150
 6291TIP3    H218880   1.282   3.472   3.232
 6292TIP3   OH218881   5.425   4.248   5.125
 6292TIP3    H118882   5.331   4.263   5.117
 6292TIP3    H218883   5.436   4.155   5.107
 6293TIP3   OH218884   4.635   1.639   3.083
 6293TIP3    H118885   4.592   1.712   3.128
 6293TIP3    H218886   4.689   1.680   3.016
 6294TIP3   OH218887   4.960   4.384   3.958
 6294TIP3    H118888   4.995   4.438   3.887
 6294TIP3    H218889   5.033   4.376   4.020
 6295TIP3   OH218890   3.101   3.008   3.136
 6295TIP3    H118891   3.171   3.073   3.126
 6295TIP3    H218892   3.093   2.968   3.050
 6296TIP3   OH218893   1.243   4.523   0.602
 6296TIP3    H118894   1.165   4.470   0.587
 6296TIP3    H218895   1.219   4.581   0.674
 6297TIP3   OH218896   5.938   3.409   3.039
 6297TIP3    H118897   5.872   3.439   2.977
 6297TIP3    H218898   5.963   3.487   3.087
 6298TIP3   OH218899   1.780   3.028   2.216
 6298TIP3    H118900   1.811   3.117   2.200
 6298TIP3    H218901   1.698   3.022   2.167
 6299TIP3   OH218902   4.575   3.600   0.532
 6299TIP3    H118903   4.571   3.640   0.618
 6299TIP3    H218904   4.489   3.617   0.493
 6300TIP3   OH218905   0.583   1.652   1.515
 6300TIP3    H118906   0.563   1.733   1.561
 6300TIP3    H218907   0.501   1.629   1.471
 6301TIP3   OH218908   2.518   0.528   3.685
 6301TIP3    H118909   2.524   0.583   3.763
 6301TIP3    H218910   2.600   0.543   3.638
 6302TIP3   OH218911   4.882   5.432   5.016
 6302TIP3    H118912   4.879   5.463   5.107
 6302TIP3    H218913   4.810   5.478   4.973
 6303TIP3   OH218914   2.383   1.622   1.695
 6303TIP3    H118915   2.467   1.631   1.740
 6303TIP3    H218916   2.386   1.536   1.654
 6304TIP3   OH218917   0.391   5.309   2.279
 6304TIP3    H118918   0.320   5.316   2.342
 6304TIP3    H218919   0.352   5.332   2.194
 6305TIP3   OH218920   2.396   1.026   1.628
 6305TIP3    H118921   2.300   1.022   1.632
 6305TIP3    H218922   2.422   0.936   1.610
 6306TIP3   OH218923   2.650   3.076   4.317
 6306TIP3    H118924   2.708   3.000   4.308
 6306TIP3    H218925   2.634   3.082   4.411
 6307TIP3   OH218926   0.529   2.339   3.207
 6307TIP3    H118927   0.593   2.382   3.263
 6307TIP3    H218928   0.495   2.267   3.260
 6308TIP3   OH218929   6.163   3.400   0.223
 6308TIP3    H118930   6.127   3.375   0.308
 6308TIP3    H218931   6.119   3.482   0.202
 6309TIP3   OH218932   2.139   5.893   3.008
 6309TIP3    H118933   2.197   5.825   2.973
 6309TIP3    H218934   2.197   5.966   3.029
 6310TIP3   OH218935   2.287   2.300   1.861
 6310TIP3    H118936   2.197   2.311   1.892
 6310TIP3    H218937   2.341   2.316   1.938
 6311TIP3   OH218938   3.009   0.267   1.200
 6311TIP3    H118939   2.956   0.329   1.250
 6311TIP3    H218940   2.963   0.257   1.116
 6312TIP3   OH218941   3.592   2.024   0.963
 6312TIP3    H118942   3.668   2.058   0.915
 6312TIP3    H218943   3.575   1.939   0.922
 6313TIP3   OH218944   3.258   3.116   4.999
 6313TIP3    H118945   3.185   3.152   5.049
 6313TIP3    H218946   3.297   3.050   5.057
 6314TIP3   OH218947   6.357   4.654   4.792
 6314TIP3    H118948   6.330   4.682   4.879
 6314TIP3    H218949   6.277   4.658   4.740
 6315TIP3   OH218950   4.749   2.557   3.166
 6315TIP3    H118951   4.674   2.514   3.126
 6315TIP3    H218952   4.808   2.575   3.092
 6316TIP3   OH218953   5.939   2.543   0.338
 6316TIP3    H118954   6.007   2.483   0.369
 6316TIP3    H218955   5.978   2.630   0.345
 6317TIP3   OH218956   3.981   1.201   1.910
 6317TIP3    H118957   3.931   1.136   1.861
 6317TIP3    H218958   3.928   1.219   1.987
 6318TIP3   OH218959   3.800   0.665   2.928
 6318TIP3    H118960   3.736   0.736   2.916
 6318TIP3    H218961   3.767   0.616   3.003
 6319TIP3   OH218962   2.950   5.935   4.046
 6319TIP3    H118963   2.858   5.914   4.034
 6319TIP3    H218964   2.950   6.010   4.105
 6320TIP3   OH218965   4.914   0.913   0.525
 6320TIP3    H118966   4.955   0.849   0.583
 6320TIP3    H218967   4.977   0.924   0.454
 6321TIP3   OH218968   1.450   4.241   0.334
 6321TIP3    H118969   1.360   4.271   0.318
 6321TIP3    H218970   1.474   4.194   0.254
 6322TIP3   OH218971   1.839   4.787   0.962
 6322TIP3    H118972   1.926   4.791   1.002
 6322TIP3    H218973   1.780   4.814   1.032
 6323TIP3   OH218974   0.067   2.658   4.740
 6323TIP3    H118975   0.110   2.574   4.724
 6323TIP3    H218976  -0.008   2.636   4.795
 6324TIP3   OH218977   2.512   3.034   2.354
 6324TIP3    H118978   2.436   3.088   2.376
 6324TIP3    H218979   2.508   3.026   2.259
 6325TIP3   OH218980   2.714   4.655   0.298
 6325TIP3    H118981   2.787   4.705   0.334
 6325TIP3    H218982   2.636   4.697   0.334
 6326TIP3   OH218983   0.327   1.611   1.360
 6326TIP3    H118984   0.283   1.584   1.441
 6326TIP3    H218985   0.277   1.686   1.330
 6327TIP3   OH218986   3.017   0.785   0.711
 6327TIP3    H118987   3.019   0.779   0.616
 6327TIP3    H218988   3.109   0.797   0.736
 6328TIP3   OH218989   1.827   1.736   0.346
 6328TIP3    H118990   1.908   1.687   0.330
 6328TIP3    H218991   1.759   1.687   0.301
 6329TIP3   OH218992   0.535   2.424   4.600
 6329TIP3    H118993   0.459   2.425   4.541
 6329TIP3    H218994   0.601   2.477   4.555
 6330TIP3   OH218995   5.079   5.654   5.082
 6330TIP3    H118996   5.127   5.579   5.117
 6330TIP3    H218997   4.993   5.619   5.060
 6331TIP3   OH218998   2.369   2.174   4.092
 6331TIP3    H118999   2.326   2.252   4.057
 6331TIP3    H219000   2.298   2.120   4.126
 6332TIP3   OH219001   2.737   4.446   4.774
 6332TIP3    H119002   2.796   4.513   4.739
 6332TIP3    H219003   2.685   4.417   4.698
 6333TIP3   OH219004   4.220   3.600   4.057
 6333TIP3    H119005   4.255   3.575   4.143
 6333TIP3    H219006   4.131   3.631   4.076
 6334TIP3   OH219007   1.183   5.448   2.374
 6334TIP3    H119008   1.110   5.389   2.357
 6334TIP3    H219009   1.249   5.393   2.415
 6335TIP3   OH219010   3.831   4.578   4.935
 6335TIP3    H119011   3.907   4.597   4.990
 6335TIP3    H219012   3.838   4.484   4.917
 6336TIP3   OH219013   2.971   5.870   2.890
 6336TIP3    H119014   3.017   5.861   2.973
 6336TIP3    H219015   2.878   5.863   2.913
 6337TIP3   OH219016   0.821   1.355   2.405
 6337TIP3    H119017   0.794   1.266   2.382
 6337TIP3    H219018   0.912   1.360   2.374
 6338TIP3   OH219019   4.716   3.284   0.710
 6338TIP3    H119020   4.792   3.261   0.763
 6338TIP3    H219021   4.742   3.364   0.664
 6339TIP3   OH219022   6.272   4.170   1.326
 6339TIP3    H119023   6.221   4.092   1.348
 6339TIP3    H219024   6.207   4.232   1.293
 6340TIP3   OH219025   3.794   4.795   1.463
 6340TIP3    H119026   3.848   4.812   1.540
 6340TIP3    H219027   3.806   4.872   1.408
 6341TIP3   OH219028   1.974   5.126   2.128
 6341TIP3    H119029   1.894   5.115   2.076
 6341TIP3    H219030   1.944   5.120   2.219
 6342TIP3   OH219031   4.631   0.556   1.706
 6342TIP3    H119032   4.699   0.521   1.764
 6342TIP3    H219033   4.642   0.507   1.624
 6343TIP3   OH219034   1.782   2.214   3.849
 6343TIP3    H119035   1.844   2.171   3.790
 6343TIP3    H219036   1.702   2.161   3.843
 6344TIP3   OH219037   5.288   3.798   2.336
 6344TIP3    H119038   5.239   3.717   2.351
 6344TIP3    H219039   5.337   3.812   2.417
 6345TIP3   OH219040   2.561   1.829   4.758
 6345TIP3    H119041   2.541   1.745   4.715
 6345TIP3    H219042   2.525   1.895   4.700
 6346TIP3   OH219043   5.090   2.401   2.337
 6346TIP3    H119044   5.034   2.363   2.406
 6346TIP3    H219045   5.039   2.390   2.257
 6347TIP3   OH219046   4.777   1.288   1.237
 6347TIP3    H119047   4.831   1.340   1.177
 6347TIP3    H219048   4.830   1.211   1.257
 6348TIP3   OH219049   2.077   2.860   1.586
 6348TIP3    H119050   2.020   2.810   1.529
 6348TIP3    H219051   2.091   2.943   1.540
 6349TIP3   OH219052   3.637   3.335   0.832
 6349TIP3    H119053   3.678   3.375   0.756
 6349TIP3    H219054   3.643   3.403   0.900
 6350TIP3   OH219055   5.794   1.038   3.304
 6350TIP3    H119056   5.751   1.121   3.283
 6350TIP3    H219057   5.730   0.971   3.282
 6351TIP3   OH219058   6.265   3.826   0.692
 6351TIP3    H119059   6.333   3.758   0.694
 6351TIP3    H219060   6.310   3.906   0.719
 6352TIP3   OH219061   3.570   1.084   3.962
 6352TIP3    H119062   3.664   1.067   3.969
 6352TIP3    H219063   3.540   1.025   3.894
 6353TIP3   OH219064   3.716   3.125   4.189
 6353TIP3    H119065   3.624   3.107   4.208
 6353TIP3    H219066   3.762   3.046   4.215
 6354TIP3   OH219067   6.023   5.294   4.027
 6354TIP3    H119068   6.074   5.311   4.106
 6354TIP3    H219069   5.944   5.250   4.058
 6355TIP3   OH219070   5.163   0.870   3.170
 6355TIP3    H119071   5.227   0.800   3.182
 6355TIP3    H219072   5.086   0.826   3.135
 6356TIP3   OH219073   0.447   5.903   3.595
 6356TIP3    H119074   0.397   5.822   3.584
 6356TIP3    H219075   0.402   5.950   3.665
 6357TIP3   OH219076   4.692   4.327   1.009
 6357TIP3    H119077   4.760   4.300   1.071
 6357TIP3    H219078   4.722   4.295   0.924
 6358TIP3   OH219079   5.665   4.875   4.874
 6358TIP3    H119080   5.633   4.785   4.879
 6358TIP3    H219081   5.721   4.886   4.950
 6359TIP3   OH219082   5.494   0.521   5.027
 6359TIP3    H119083   5.495   0.495   5.119
 6359TIP3    H219084   5.479   0.615   5.029
 6360TIP3   OH219085   1.586   5.062   2.106
 6360TIP3    H119086   1.524   5.131   2.127
 6360TIP3    H219087   1.603   5.073   2.012
 6361TIP3   OH219088   1.358   1.303   1.472
 6361TIP3    H119089   1.358   1.237   1.403
 6361TIP3    H219090   1.317   1.380   1.431
 6362TIP3   OH219091   0.822   4.957   4.339
 6362TIP3    H119092   0.734   4.996   4.338
 6362TIP3    H219093   0.850   4.964   4.430
 6363TIP3   OH219094   2.469   5.032   4.512
 6363TIP3    H119095   2.506   5.121   4.514
 6363TIP3    H219096   2.544   4.974   4.522
 6364TIP3   OH219097   0.264   0.588   0.738
 6364TIP3    H119098   0.355   0.560   0.727
 6364TIP3    H219099   0.262   0.676   0.701
 6365TIP3   OH219100   3.346   3.905   4.412
 6365TIP3    H119101   3.256   3.874   4.422
 6365TIP3    H219102   3.383   3.849   4.344
 6366TIP3   OH219103   1.958   3.234   2.246
 6366TIP3    H119104   1.941   3.201   2.334
 6366TIP3    H219105   2.039   3.284   2.255
 6367TIP3   OH219106   6.163   3.892   3.989
 6367TIP3    H119107   6.160   3.796   3.995
 6367TIP3    H219108   6.255   3.914   4.001
 6368TIP3   OH219109   5.564   4.375   3.504
 6368TIP3    H119110   5.600   4.319   3.573
 6368TIP3    H219111   5.586   4.464   3.532
 6369TIP3   OH219112   4.932   0.613   4.215
 6369TIP3    H119113   4.863   0.652   4.162
 6369TIP3    H219114   4.891   0.536   4.254
 6370TIP3   OH219115   5.816   3.245   4.527
 6370TIP3    H119116   5.749   3.239   4.595
 6370TIP3    H219117   5.771   3.287   4.454
 6371TIP3   OH219118   4.527   4.489   0.469
 6371TIP3    H119119   4.514   4.488   0.564
 6371TIP3    H219120   4.460   4.550   0.436
 6372TIP3   OH219121   1.487   3.700   4.521
 6372TIP3    H119122   1.437   3.632   4.567
 6372TIP3    H219123   1.485   3.776   4.579
 6373TIP3   OH219124   3.174   0.365   1.525
 6373TIP3    H119125   3.215   0.281   1.509
 6373TIP3    H219126   3.094   0.344   1.575
 6374TIP3   OH219127   1.976   3.196   0.068
 6374TIP3    H119128   2.017   3.171  -0.015
 6374TIP3    H219129   2.005   3.129   0.130
 6375TIP3   OH219130   5.132   4.727   3.984
 6375TIP3    H119131   5.195   4.798   3.972
 6375TIP3    H219132   5.049   4.764   3.956
 6376TIP3   OH219133   2.600   1.557   4.723
 6376TIP3    H119134   2.583   1.466   4.745
 6376TIP3    H219135   2.637   1.554   4.634
 6377TIP3   OH219136   6.324   3.872   2.611
 6377TIP3    H119137   6.324   3.939   2.543
 6377TIP3    H219138   6.239   3.881   2.654
 6378TIP3   OH219139   3.944   5.008   3.572
 6378TIP3    H119140   3.941   5.099   3.601
 6378TIP3    H219141   3.946   4.957   3.653
 6379TIP3   OH219142   2.266   0.736   3.809
 6379TIP3    H119143   2.357   0.744   3.838
 6379TIP3    H219144   2.261   0.791   3.730
 6380TIP3   OH219145   3.641   0.638   2.610
 6380TIP3    H119146   3.612   0.705   2.549
 6380TIP3    H219147   3.735   0.630   2.594
 6381TIP3   OH219148   3.503   0.733   0.880
 6381TIP3    H119149   3.575   0.727   0.818
 6381TIP3    H219150   3.532   0.798   0.944
 6382TIP3   OH219151   3.014   5.213   4.475
 6382TIP3    H119152   2.949   5.158   4.433
 6382TIP3    H219153   2.966   5.259   4.544
 6383TIP3   OH219154   1.747   3.673   3.165
 6383TIP3    H119155   1.656   3.671   3.136
 6383TIP3    H219156   1.797   3.662   3.084
 6384TIP3   OH219157   1.418   0.159   0.169
 6384TIP3    H119158   1.330   0.187   0.194
 6384TIP3    H219159   1.405   0.101   0.094
 6385TIP3   OH219160   6.076   1.631   4.036
 6385TIP3    H119161   6.013   1.565   4.007
 6385TIP3    H219162   6.029   1.714   4.027
 6386TIP3   OH219163   3.576   3.622   3.391
 6386TIP3    H119164   3.610   3.711   3.387
 6386TIP3    H219165   3.636   3.575   3.449
 6387TIP3   OH219166   4.718   3.563   1.310
 6387TIP3    H119167   4.665   3.642   1.302
 6387TIP3    H219168   4.777   3.580   1.383
 6388TIP3   OH219169   2.784   5.410   1.200
 6388TIP3    H119170   2.847   5.349   1.163
 6388TIP3    H219171   2.815   5.426   1.289
 6389TIP3   OH219172   4.310   3.819   2.459
 6389TIP3    H119173   4.296   3.898   2.510
 6389TIP3    H219174   4.396   3.787   2.488
 6390TIP3   OH219175   4.674   2.899   4.954
 6390TIP3    H119176   4.759   2.901   4.910
 6390TIP3    H219177   4.610   2.906   4.883
 6391TIP3   OH219178   5.721   4.107   4.721
 6391TIP3    H119179   5.753   4.136   4.635
 6391TIP3    H219180   5.627   4.122   4.717
 6392TIP3   OH219181   5.695   1.715   3.013
 6392TIP3    H119182   5.685   1.809   2.997
 6392TIP3    H219183   5.774   1.691   2.965
 6393TIP3   OH219184   0.781   5.250   2.680
 6393TIP3    H119185   0.823   5.166   2.699
 6393TIP3    H219186   0.806   5.269   2.589
 6394TIP3   OH219187   2.695   3.231   4.997
 6394TIP3    H119188   2.640   3.177   4.941
 6394TIP3    H219189   2.635   3.265   5.064
 6395TIP3   OH219190   6.035   5.168   2.893
 6395TIP3    H119191   6.033   5.077   2.864
 6395TIP3    H219192   6.120   5.178   2.937
 6396TIP3   OH219193   0.839   0.640   2.114
 6396TIP3    H119194   0.859   0.554   2.077
 6396TIP3    H219195   0.806   0.621   2.202
 6397TIP3   OH219196   2.175   1.542   4.108
 6397TIP3    H119197   2.233   1.467   4.095
 6397TIP3    H219198   2.136   1.557   4.021
 6398TIP3   OH219199   2.987   3.714   4.003
 6398TIP3    H119200   2.935   3.768   4.063
 6398TIP3    H219201   2.929   3.641   3.981
 6399TIP3   OH219202   1.404   0.675   4.888
 6399TIP3    H119203   1.470   0.638   4.830
 6399TIP3    H219204   1.425   0.639   4.974
 6400TIP3   OH219205   3.203   2.644   1.088
 6400TIP3    H119206   3.232   2.728   1.125
 6400TIP3    H219207   3.265   2.580   1.122
 6401TIP3   OH219208   0.321   3.476   3.416
 6401TIP3    H119209   0.281   3.548   3.466
 6401TIP3    H219210   0.415   3.495   3.417
 6402TIP3   OH219211   0.250   1.756   0.035
 6402TIP3    H119212   0.202   1.793   0.109
 6402TIP3    H219213   0.329   1.718   0.074
 6403TIP3   OH219214   4.653   1.136   2.467
 6403TIP3    H119215   4.713   1.127   2.542
 6403TIP3    H219216   4.566   1.142   2.507
 6404TIP3   OH219217   5.467   2.315   1.630
 6404TIP3    H119218   5.474   2.384   1.695
 6404TIP3    H219219   5.536   2.252   1.654
 6405TIP3   OH219220   1.550   3.628   4.846
 6405TIP3    H119221   1.592   3.714   4.859
 6405TIP3    H219222   1.619   3.573   4.809
 6406TIP3   OH219223   3.731   2.583   2.632
 6406TIP3    H119224   3.768   2.660   2.676
 6406TIP3    H219225   3.796   2.515   2.643
 6407TIP3   OH219226   1.843   5.120   0.148
 6407TIP3    H119227   1.896   5.197   0.167
 6407TIP3    H219228   1.761   5.134   0.197
 6408TIP3   OH219229   2.508   3.837   0.802
 6408TIP3    H119230   2.429   3.783   0.804
 6408TIP3    H219231   2.579   3.776   0.782
 6409TIP3   OH219232   0.360   2.137   0.671
 6409TIP3    H119233   0.402   2.062   0.713
 6409TIP3    H219234   0.283   2.154   0.726
 6410TIP3   OH219235   6.304   1.992   0.530
 6410TIP3    H119236   6.252   2.029   0.601
 6410TIP3    H219237   6.251   1.920   0.496
 6411TIP3   OH219238   3.995   0.791   4.741
 6411TIP3    H119239   4.055   0.717   4.732
 6411TIP3    H219240   3.919   0.755   4.787
 6412TIP3   OH219241   0.424   2.804   2.773
 6412TIP3    H119242   0.444   2.748   2.848
 6412TIP3    H219243   0.349   2.763   2.731
 6413TIP3   OH219244   5.785   4.522   2.971
 6413TIP3    H119245   5.701   4.516   3.016
 6413TIP3    H219246   5.782   4.451   2.906
 6414TIP3   OH219247   0.182   4.411   2.092
 6414TIP3    H119248   0.154   4.373   2.175
 6414TIP3    H219249   0.220   4.496   2.117
 6415TIP3   OH219250   5.095   0.558   3.864
 6415TIP3    H119251   5.116   0.494   3.932
 6415TIP3    H219252   5.052   0.507   3.795
 6416TIP3   OH219253   2.163   1.576   0.571
 6416TIP3    H119254   2.237   1.515   0.566
 6416TIP3    H219255   2.203   1.662   0.579
 6417TIP3   OH219256   5.250   0.483   1.487
 6417TIP3    H119257   5.313   0.551   1.464
 6417TIP3    H219258   5.202   0.519   1.562
 6418TIP3   OH219259   3.237   3.433   0.684
 6418TIP3    H119260   3.258   3.526   0.699
 6418TIP3    H219261   3.227   3.396   0.772
 6419TIP3   OH219262   0.918   2.026   4.508
 6419TIP3    H119263   0.973   2.076   4.568
 6419TIP3    H219264   0.969   2.019   4.428
 6420TIP3   OH219265   2.806   2.236   1.151
 6420TIP3    H119266   2.722   2.237   1.198
 6420TIP3    H219267   2.872   2.226   1.220
 6421TIP3   OH219268   3.173   3.499   2.572
 6421TIP3    H119269   3.120   3.574   2.597
 6421TIP3    H219270   3.258   3.537   2.549
 6422TIP3   OH219271   4.574   3.571   4.535
 6422TIP3    H119272   4.512   3.639   4.564
 6422TIP3    H219273   4.620   3.544   4.614
 6423TIP3   OH219274   2.567   2.393   3.190
 6423TIP3    H119275   2.559   2.349   3.105
 6423TIP3    H219276   2.547   2.485   3.171
 6424TIP3   OH219277   0.309   4.556   0.661
 6424TIP3    H119278   0.301   4.651   0.675
 6424TIP3    H219279   0.304   4.519   0.749
 6425TIP3   OH219280   0.163   4.397   3.471
 6425TIP3    H119281   0.210   4.427   3.393
 6425TIP3    H219282   0.232   4.383   3.536
 6426TIP3   OH219283   4.104   3.211   4.619
 6426TIP3    H119284   4.019   3.170   4.603
 6426TIP3    H219285   4.083   3.292   4.665
 6427TIP3   OH219286   0.672   4.477   2.678
 6427TIP3    H119287   0.696   4.520   2.596
 6427TIP3    H219288   0.729   4.399   2.681
 6428TIP3   OH219289   2.574   0.559   1.349
 6428TIP3    H119290   2.612   0.598   1.270
 6428TIP3    H219291   2.565   0.466   1.328
 6429TIP3   OH219292   0.987   3.508   0.222
 6429TIP3    H119293   0.971   3.414   0.222
 6429TIP3    H219294   0.993   3.532   0.314
 6430TIP3   OH219295   3.008   5.382   3.739
 6430TIP3    H119296   3.096   5.404   3.770
 6430TIP3    H219297   2.954   5.382   3.818
 6431TIP3   OH219298   5.050   0.281   0.134
 6431TIP3    H119299   5.054   0.372   0.163
 6431TIP3    H219300   4.982   0.280   0.067
 6432TIP3   OH219301   4.202   1.833   1.068
 6432TIP3    H119302   4.246   1.814   1.151
 6432TIP3    H219303   4.210   1.928   1.058
 6433TIP3   OH219304   4.357   4.662   0.327
 6433TIP3    H119305   4.418   4.639   0.257
 6433TIP3    H219306   4.270   4.657   0.286
 6434TIP3   OH219307   3.908   3.633   2.246
 6434TIP3    H119308   3.942   3.580   2.174
 6434TIP3    H219309   3.984   3.652   2.301
 6435TIP3   OH219310   2.195   2.625   4.577
 6435TIP3    H119311   2.197   2.629   4.673
 6435TIP3    H219312   2.251   2.698   4.549
 6436TIP3   OH219313   0.155   4.708   3.451
 6436TIP3    H119314   0.117   4.621   3.436
 6436TIP3    H219315   0.102   4.767   3.397
 6437TIP3   OH219316   1.612   4.805   3.289
 6437TIP3    H119317   1.707   4.798   3.280
 6437TIP3    H219318   1.578   4.721   3.258
 6438TIP3   OH219319   3.691   5.127   3.081
 6438TIP3    H119320   3.696   5.032   3.078
 6438TIP3    H219321   3.762   5.153   3.140
 6439TIP3   OH219322   0.622   5.965   4.702
 6439TIP3    H119323   0.674   5.894   4.663
 6439TIP3    H219324   0.684   6.012   4.759
 6440TIP3   OH219325   1.087   3.960   0.240
 6440TIP3    H119326   1.017   3.900   0.214
 6440TIP3    H219327   1.078   4.035   0.182
 6441TIP3   OH219328   0.039   0.771   4.614
 6441TIP3    H119329   0.000   0.692   4.579
 6441TIP3    H219330  -0.018   0.796   4.687
 6442TIP3   OH219331   0.070   5.122   2.500
 6442TIP3    H119332   0.122   5.042   2.511
 6442TIP3    H219333  -0.016   5.098   2.535
 6443TIP3   OH219334   1.870   2.200   1.347
 6443TIP3    H119335   1.824   2.283   1.359
 6443TIP3    H219336   1.848   2.173   1.258
 6444TIP3   OH219337   0.774   0.346   3.314
 6444TIP3    H119338   0.728   0.407   3.371
 6444TIP3    H219339   0.734   0.261   3.331
 6445TIP3   OH219340   4.690   2.207   4.936
 6445TIP3    H119341   4.646   2.122   4.950
 6445TIP3    H219342   4.621   2.264   4.903
 6446TIP3   OH219343   2.867   2.744   3.752
 6446TIP3    H119344   2.868   2.717   3.843
 6446TIP3    H219345   2.774   2.757   3.732
 6447TIP3   OH219346   0.212   2.743   5.038
 6447TIP3    H119347   0.186   2.651   5.036
 6447TIP3    H219348   0.156   2.782   5.105
 6448TIP3   OH219349   3.250   1.944   3.484
 6448TIP3    H119350   3.263   1.950   3.579
 6448TIP3    H219351   3.289   2.024   3.449
 6449TIP3   OH219352   3.635   3.581   2.186
 6449TIP3    H119353   3.572   3.520   2.226
 6449TIP3    H219354   3.715   3.570   2.238
 6450TIP3   OH219355   4.962   3.238   0.826
 6450TIP3    H119356   5.003   3.247   0.912
 6450TIP3    H219357   5.016   3.292   0.768
 6451TIP3   OH219358   2.520   4.400   4.430
 6451TIP3    H119359   2.587   4.467   4.418
 6451TIP3    H219360   2.468   4.432   4.504
 6452TIP3   OH219361   1.460   2.400   5.150
 6452TIP3    H119362   1.503   2.458   5.087
 6452TIP3    H219363   1.408   2.340   5.097
 6453TIP3   OH219364   0.043   5.464   2.007
 6453TIP3    H119365   0.051   5.533   2.073
 6453TIP3    H219366  -0.043   5.477   1.969
 6454TIP3   OH219367   0.236   0.863   0.699
 6454TIP3    H119368   0.264   0.925   0.766
 6454TIP3    H219369   0.171   0.911   0.648
 6455TIP3   OH219370   0.121   2.586   1.450
 6455TIP3    H119371   0.039   2.537   1.439
 6455TIP3    H219372   0.189   2.518   1.449
 6456TIP3   OH219373   4.995   1.295   1.823
 6456TIP3    H119374   5.087   1.316   1.805
 6456TIP3    H219375   4.997   1.250   1.908
 6457TIP3   OH219376   0.539   2.218   2.963
 6457TIP3    H119377   0.632   2.197   2.951
 6457TIP3    H219378   0.535   2.256   3.051
 6458TIP3   OH219379   2.764   1.282   4.718
 6458TIP3    H119380   2.678   1.323   4.706
 6458TIP3    H219381   2.783   1.294   4.811
 6459TIP3   OH219382   3.528   4.220   1.670
 6459TIP3    H119383   3.612   4.259   1.693
 6459TIP3    H219384   3.533   4.131   1.706
 6460TIP3   OH219385   3.602   1.862   0.162
 6460TIP3    H119386   3.657   1.914   0.220
 6460TIP3    H219387   3.596   1.776   0.205
 6461TIP3   OH219388   1.906   3.287   1.764
 6461TIP3    H119389   1.976   3.303   1.827
 6461TIP3    H219390   1.863   3.208   1.795
 6462TIP3   OH219391   3.772   5.213   2.366
 6462TIP3    H119392   3.845   5.160   2.397
 6462TIP3    H219393   3.810   5.271   2.300
 6463TIP3   OH219394   4.425   4.199   1.057
 6463TIP3    H119395   4.511   4.230   1.029
 6463TIP3    H219396   4.435   4.183   1.150
 6464TIP3   OH219397   5.084   2.957   0.468
 6464TIP3    H119398   5.101   2.986   0.558
 6464TIP3    H219399   5.161   2.907   0.444
 6465TIP3   OH219400   5.680   2.661   2.954
 6465TIP3    H119401   5.768   2.653   2.991
 6465TIP3    H219402   5.641   2.574   2.968
 6466TIP3   OH219403   6.009   2.911   1.680
 6466TIP3    H119404   5.931   2.911   1.625
 6466TIP3    H219405   5.998   2.987   1.737
 6467TIP3   OH219406   2.096   5.822   4.847
 6467TIP3    H119407   2.080   5.832   4.941
 6467TIP3    H219408   2.117   5.910   4.816
 6468TIP3   OH219409   3.150   3.041   2.845
 6468TIP3    H119410   3.223   3.101   2.831
 6468TIP3    H219411   3.126   3.011   2.757
 6469TIP3   OH219412   4.419   0.077   0.450
 6469TIP3    H119413   4.497   0.041   0.492
 6469TIP3    H219414   4.359   0.096   0.522
 6470TIP3   OH219415   3.084   2.818   0.877
 6470TIP3    H119416   3.101   2.877   0.950
 6470TIP3    H219417   3.097   2.730   0.914
 6471TIP3   OH219418   2.065   0.387   2.923
 6471TIP3    H119419   2.116   0.441   2.862
 6471TIP3    H219420   2.102   0.299   2.915
 6472TIP3   OH219421   5.567   1.479   3.113
 6472TIP3    H119422   5.615   1.400   3.087
 6472TIP3    H219423   5.607   1.549   3.061
 6473TIP3   OH219424   4.769   0.261   3.198
 6473TIP3    H119425   4.825   0.227   3.129
 6473TIP3    H219426   4.798   0.352   3.210
 6474TIP3   OH219427   2.028   0.934   1.407
 6474TIP3    H119428   2.049   0.903   1.318
 6474TIP3    H219429   2.086   1.009   1.420
 6475TIP3   OH219430   2.440   0.157   4.157
 6475TIP3    H119431   2.479   0.245   4.164
 6475TIP3    H219432   2.345   0.173   4.162
 6476TIP3   OH219433   0.287   0.686   0.059
 6476TIP3    H119434   0.364   0.672   0.114
 6476TIP3    H219435   0.249   0.768   0.092
 6477TIP3   OH219436   5.270   4.434   0.532
 6477TIP3    H119437   5.213   4.507   0.510
 6477TIP3    H219438   5.295   4.450   0.623
 6478TIP3   OH219439   5.635   2.142   1.808
 6478TIP3    H119440   5.620   2.114   1.898
 6478TIP3    H219441   5.716   2.192   1.811
 6479TIP3   OH219442   4.293   3.172   1.463
 6479TIP3    H119443   4.374   3.172   1.412
 6479TIP3    H219444   4.225   3.195   1.400
 6480TIP3   OH219445   2.618   4.048   1.702
 6480TIP3    H119446   2.710   4.048   1.728
 6480TIP3    H219447   2.613   4.106   1.627
 6481TIP3   OH219448   2.708   4.408   2.299
 6481TIP3    H119449   2.622   4.379   2.268
 6481TIP3    H219450   2.723   4.356   2.378
 6482TIP3   OH219451   0.215   2.688   2.645
 6482TIP3    H119452   0.242   2.611   2.595
 6482TIP3    H219453   0.176   2.653   2.725
 6483TIP3   OH219454   4.592   1.331   2.688
 6483TIP3    H119455   4.533   1.329   2.612
 6483TIP3    H219456   4.557   1.401   2.743
 6484TIP3   OH219457   4.381   2.892   4.337
 6484TIP3    H119458   4.321   2.948   4.287
 6484TIP3    H219459   4.439   2.855   4.271
 6485TIP3   OH219460   0.904   2.249   4.865
 6485TIP3    H119461   0.895   2.339   4.832
 6485TIP3    H219462   0.996   2.227   4.848
 6486TIP3   OH219463   5.467   0.209   5.063
 6486TIP3    H119464   5.542   0.179   5.115
 6486TIP3    H219465   5.478   0.304   5.057
 6487TIP3   OH219466   2.432   5.882   1.075
 6487TIP3    H119467   2.361   5.857   1.133
 6487TIP3    H219468   2.446   5.805   1.020
 6488TIP3   OH219469   5.432   3.252   3.294
 6488TIP3    H119470   5.425   3.266   3.200
 6488TIP3    H219471   5.513   3.202   3.305
 6489TIP3   OH219472   3.205   1.527   3.463
 6489TIP3    H119473   3.230   1.571   3.545
 6489TIP3    H219474   3.232   1.436   3.475
 6490TIP3   OH219475   0.822   5.025   3.971
 6490TIP3    H119476   0.885   4.956   3.992
 6490TIP3    H219477   0.736   4.984   3.985
 6491TIP3   OH219478   3.582   2.839   4.422
 6491TIP3    H119479   3.628   2.773   4.370
 6491TIP3    H219480   3.493   2.841   4.385
 6492TIP3   OH219481   1.177   5.259   4.857
 6492TIP3    H119482   1.124   5.325   4.812
 6492TIP3    H219483   1.268   5.287   4.841
 6493TIP3   OH219484   4.746   1.297   0.693
 6493TIP3    H119485   4.688   1.367   0.725
 6493TIP3    H219486   4.716   1.279   0.604
 6494TIP3   OH219487   4.958   2.339   2.591
 6494TIP3    H119488   4.920   2.254   2.612
 6494TIP3    H219489   5.031   2.348   2.653
 6495TIP3   OH219490   4.569   2.728   0.578
 6495TIP3    H119491   4.482   2.696   0.604
 6495TIP3    H219492   4.555   2.769   0.493
 6496TIP3   OH219493   3.927   3.701   2.835
 6496TIP3    H119494   4.000   3.745   2.878
 6496TIP3    H219495   3.849   3.745   2.868
 6497TIP3   OH219496   3.518   4.297   3.403
 6497TIP3    H119497   3.452   4.336   3.459
 6497TIP3    H219498   3.599   4.299   3.455
 6498TIP3   OH219499   2.304   2.650   1.063
 6498TIP3    H119500   2.351   2.706   1.001
 6498TIP3    H219501   2.223   2.628   1.018
 6499TIP3   OH219502   4.767   4.018   2.375
 6499TIP3    H119503   4.829   4.068   2.323
 6499TIP3    H219504   4.687   4.017   2.322
 6500TIP3   OH219505   5.509   1.324   2.319
 6500TIP3    H119506   5.543   1.234   2.320
 6500TIP3    H219507   5.543   1.362   2.238
 6501TIP3   OH219508   0.675   1.220   0.407
 6501TIP3    H119509   0.610   1.151   0.392
 6501TIP3    H219510   0.622   1.298   0.423
 6502TIP3   OH219511   1.479   4.647   1.077
 6502TIP3    H119512   1.492   4.742   1.090
 6502TIP3    H219513   1.567   4.610   1.083
 6503TIP3   OH219514   1.252   0.418   0.084
 6503TIP3    H119515   1.337   0.425   0.040
 6503TIP3    H219516   1.235   0.506   0.116
 6504TIP3   OH219517   5.048   3.752   4.003
 6504TIP3    H119518   5.016   3.792   3.922
 6504TIP3    H219519   5.122   3.806   4.028
 6505TIP3   OH219520   2.819   1.294   3.859
 6505TIP3    H119521   2.909   1.325   3.860
 6505TIP3    H219522   2.811   1.244   3.778
 6506TIP3   OH219523   0.436   4.325   2.392
 6506TIP3    H119524   0.484   4.408   2.389
 6506TIP3    H219525   0.489   4.269   2.449
 6507TIP3   OH219526   5.004   0.704   2.176
 6507TIP3    H119527   5.009   0.715   2.271
 6507TIP3    H219528   4.933   0.762   2.149
 6508TIP3   OH219529   5.006   2.372   0.542
 6508TIP3    H119530   5.073   2.428   0.581
 6508TIP3    H219531   4.951   2.432   0.491
 6509TIP3   OH219532   0.369   1.048   2.155
 6509TIP3    H119533   0.408   1.119   2.206
 6509TIP3    H219534   0.441   1.015   2.101
 6510TIP3   OH219535   3.526   4.471   1.139
 6510TIP3    H119536   3.514   4.557   1.100
 6510TIP3    H219537   3.525   4.487   1.234
 6511TIP3   OH219538   3.283   0.798   0.708
 6511TIP3    H119539   3.304   0.744   0.632
 6511TIP3    H219540   3.355   0.784   0.769
 6512TIP3   OH219541   3.490   5.576   3.751
 6512TIP3    H119542   3.517   5.608   3.837
 6512TIP3    H219543   3.476   5.656   3.699
 6513TIP3   OH219544   5.653   2.384   3.049
 6513TIP3    H119545   5.636   2.417   3.138
 6513TIP3    H219546   5.733   2.332   3.058
 6514TIP3   OH219547   0.512   3.845   1.558
 6514TIP3    H119548   0.527   3.787   1.484
 6514TIP3    H219549   0.455   3.914   1.524
 6515TIP3   OH219550   1.206   4.267   1.088
 6515TIP3    H119551   1.273   4.220   1.139
 6515TIP3    H219552   1.249   4.348   1.060
 6516TIP3   OH219553   6.171   1.908   4.128
 6516TIP3    H119554   6.105   1.954   4.178
 6516TIP3    H219555   6.125   1.877   4.050
 6517TIP3   OH219556   3.967   5.433   1.574
 6517TIP3    H119557   4.055   5.455   1.604
 6517TIP3    H219558   3.909   5.475   1.638
 6518TIP3   OH219559   5.388   0.878   4.096
 6518TIP3    H119560   5.322   0.833   4.044
 6518TIP3    H219561   5.467   0.874   4.042
 6519TIP3   OH219562   0.192   3.325   0.945
 6519TIP3    H119563   0.099   3.346   0.937
 6519TIP3    H219564   0.194   3.232   0.966
 6520TIP3   OH219565   4.860   2.822   0.376
 6520TIP3    H119566   4.819   2.741   0.407
 6520TIP3    H219567   4.922   2.845   0.444
 6521TIP3   OH219568   1.655   4.860   1.228
 6521TIP3    H119569   1.667   4.946   1.189
 6521TIP3    H219570   1.740   4.840   1.268
 6522TIP3   OH219571   4.644   4.592   4.645
 6522TIP3    H119572   4.692   4.588   4.562
 6522TIP3    H219573   4.633   4.501   4.672
 6523TIP3   OH219574   3.071   2.998   2.202
 6523TIP3    H119575   3.081   3.092   2.189
 6523TIP3    H219576   3.145   2.973   2.257
 6524TIP3   OH219577   2.646   1.769   1.166
 6524TIP3    H119578   2.617   1.855   1.194
 6524TIP3    H219579   2.569   1.713   1.178
 6525TIP3   OH219580   4.412   4.391   2.468
 6525TIP3    H119581   4.441   4.466   2.416
 6525TIP3    H219582   4.491   4.342   2.487
 6526TIP3   OH219583   5.910   0.704   3.128
 6526TIP3    H119584   5.854   0.751   3.066
 6526TIP3    H219585   5.912   0.760   3.206
 6527TIP3   OH219586   1.552   1.352   0.804
 6527TIP3    H119587   1.510   1.436   0.788
 6527TIP3    H219588   1.532   1.331   0.895
 6528TIP3   OH219589   1.732   0.037   4.194
 6528TIP3    H119590   1.670   0.004   4.129
 6528TIP3    H219591   1.809   0.063   4.143
 6529TIP3   OH219592   5.196   1.993   1.270
 6529TIP3    H119593   5.110   2.032   1.287
 6529TIP3    H219594   5.200   1.917   1.328
 6530TIP3   OH219595   1.340   4.904   3.068
 6530TIP3    H119596   1.385   4.821   3.049
 6530TIP3    H219597   1.337   4.950   2.984
 6531TIP3   OH219598   0.413   3.405   4.783
 6531TIP3    H119599   0.369   3.321   4.769
 6531TIP3    H219600   0.418   3.414   4.878
 6532TIP3   OH219601   5.619   4.376   4.974
 6532TIP3    H119602   5.700   4.359   5.022
 6532TIP3    H219603   5.551   4.333   5.026
 6533TIP3   OH219604   4.401   4.526   0.747
 6533TIP3    H119605   4.489   4.557   0.770
 6533TIP3    H219606   4.343   4.571   0.808
 6534TIP3   OH219607   2.748   4.576   2.067
 6534TIP3    H119608   2.747   4.507   2.134
 6534TIP3    H219609   2.706   4.651   2.109
 6535TIP3   OH219610   3.139   5.719   4.383
 6535TIP3    H119611   3.086   5.789   4.420
 6535TIP3    H219612   3.169   5.753   4.299
 6536TIP3   OH219613   3.552   0.460   2.786
 6536TIP3    H119614   3.529   0.382   2.735
 6536TIP3    H219615   3.578   0.525   2.720
 6537TIP3   OH219616   0.226   2.860   4.003
 6537TIP3    H119617   0.317   2.839   4.024
 6537TIP3    H219618   0.204   2.803   3.930
 6538TIP3   OH219619   1.366   5.720   4.780
 6538TIP3    H119620   1.285   5.719   4.730
 6538TIP3    H219621   1.421   5.654   4.737
 6539TIP3   OH219622   4.076   0.222   2.956
 6539TIP3    H119623   4.108   0.136   2.984
 6539TIP3    H219624   4.002   0.239   3.014
 6540TIP3   OH219625   6.326   1.329   1.255
 6540TIP3    H119626   6.300   1.367   1.171
 6540TIP3    H219627   6.256   1.268   1.276
 6541TIP3   OH219628   3.169   4.975   3.018
 6541TIP3    H119629   3.154   5.058   2.973
 6541TIP3    H219630   3.225   4.997   3.092
 6542TIP3   OH219631   1.962   0.594   1.236
 6542TIP3    H119632   1.925   0.540   1.306
 6542TIP3    H219633   1.886   0.633   1.193
 6543TIP3   OH219634   1.212   3.715   5.153
 6543TIP3    H119635   1.173   3.800   5.133
 6543TIP3    H219636   1.212   3.668   5.070
 6544TIP3   OH219637   1.983   4.375   2.103
 6544TIP3    H119638   2.019   4.303   2.154
 6544TIP3    H219639   2.052   4.441   2.101
 6545TIP3   OH219640   5.748   4.261   3.986
 6545TIP3    H119641   5.766   4.336   4.043
 6545TIP3    H219642   5.829   4.210   3.988
 6546TIP3   OH219643   4.212   2.706   4.624
 6546TIP3    H119644   4.128   2.668   4.600
 6546TIP3    H219645   4.199   2.739   4.713
 6547TIP3   OH219646   1.429   4.604   2.610
 6547TIP3    H119647   1.471   4.610   2.524
 6547TIP3    H219648   1.336   4.593   2.590
 6548TIP3   OH219649   3.240   2.711   0.028
 6548TIP3    H119650   3.221   2.736  -0.063
 6548TIP3    H219651   3.210   2.620   0.035
 6549TIP3   OH219652   4.083   3.646   0.572
 6549TIP3    H119653   4.102   3.696   0.652
 6549TIP3    H219654   3.991   3.621   0.581
 6550TIP3   OH219655   2.995   3.839   3.135
 6550TIP3    H119656   2.976   3.880   3.051
 6550TIP3    H219657   2.955   3.897   3.200
 6551TIP3   OH219658   5.345   5.683  -0.015
 6551TIP3    H119659   5.256   5.685   0.019
 6551TIP3    H219660   5.400   5.700   0.061
 6552TIP3   OH219661   3.124   4.210   1.615
 6552TIP3    H119662   3.049   4.159   1.584
 6552TIP3    H219663   3.146   4.267   1.541
 6553TIP3   OH219664   3.168   4.721   2.028
 6553TIP3    H119665   3.239   4.669   2.064
 6553TIP3    H219666   3.103   4.657   2.000
 6554TIP3   OH219667   3.216   1.019   0.279
 6554TIP3    H119668   3.191   0.927   0.271
 6554TIP3    H219669   3.135   1.067   0.258
 6555TIP3   OH219670   1.557   5.694   1.501
 6555TIP3    H119671   1.550   5.774   1.553
 6555TIP3    H219672   1.508   5.712   1.421
 6556TIP3   OH219673   3.908   0.541   2.581
 6556TIP3    H119674   3.912   0.615   2.642
 6556TIP3    H219675   3.895   0.464   2.637
 6557TIP3   OH219676   0.220   3.156   2.711
 6557TIP3    H119677   0.180   3.242   2.704
 6557TIP3    H219678   0.288   3.167   2.778
 6558TIP3   OH219679   2.893   5.409   4.022
 6558TIP3    H119680   2.890   5.461   4.102
 6558TIP3    H219681   2.930   5.325   4.049
 6559TIP3   OH219682   3.965   1.807   0.426
 6559TIP3    H119683   3.940   1.766   0.509
 6559TIP3    H219684   3.951   1.738   0.361
 6560TIP3   OH219685   4.081   5.342   1.859
 6560TIP3    H119686   4.075   5.437   1.869
 6560TIP3    H219687   4.175   5.324   1.855
 6561TIP3   OH219688   6.280   1.563   4.800
 6561TIP3    H119689   6.250   1.473   4.792
 6561TIP3    H219690   6.333   1.564   4.879
 6562TIP3   OH219691   3.410   1.806   2.001
 6562TIP3    H119692   3.469   1.869   1.959
 6562TIP3    H219693   3.421   1.821   2.094
 6563TIP3   OH219694   1.756   5.111   4.450
 6563TIP3    H119695   1.747   5.117   4.545
 6563TIP3    H219696   1.848   5.132   4.433
 6564TIP3   OH219697   0.731   4.908   4.989
 6564TIP3    H119698   0.754   4.998   4.969
 6564TIP3    H219699   0.738   4.862   4.906
 6565TIP3   OH219700   4.439   1.719   2.144
 6565TIP3    H119701   4.500   1.662   2.098
 6565TIP3    H219702   4.395   1.768   2.074
 6566TIP3   OH219703   5.117   2.618   1.627
 6566TIP3    H119704   5.034   2.643   1.586
 6566TIP3    H219705   5.106   2.525   1.646
 6567TIP3   OH219706   4.988   3.248   5.020
 6567TIP3    H119707   4.949   3.249   4.933
 6567TIP3    H219708   5.070   3.297   5.010
 6568TIP3   OH219709   3.969   1.939   5.157
 6568TIP3    H119710   3.898   2.002   5.169
 6568TIP3    H219711   3.986   1.940   5.063
 6569TIP3   OH219712   0.120   4.262   4.957
 6569TIP3    H119713   0.035   4.294   4.926
 6569TIP3    H219714   0.140   4.318   5.033
 6570TIP3   OH219715   2.831   2.217   3.556
 6570TIP3    H119716   2.923   2.242   3.547
 6570TIP3    H219717   2.824   2.181   3.645
 6571TIP3   OH219718   1.781   0.266   4.635
 6571TIP3    H119719   1.809   0.338   4.578
 6571TIP3    H219720   1.745   0.201   4.574
 6572TIP3   OH219721   3.082   0.633   2.014
 6572TIP3    H119722   3.081   0.602   1.924
 6572TIP3    H219723   3.000   0.600   2.052
 6573TIP3   OH219724   5.692   2.097  -0.016
 6573TIP3    H119725   5.764   2.090   0.046
 6573TIP3    H219726   5.686   2.009  -0.055
 6574TIP3   OH219727   5.835   5.744   2.806
 6574TIP3    H119728   5.779   5.818   2.784
 6574TIP3    H219729   5.833   5.688   2.728
 6575TIP3   OH219730   1.630   2.598   2.265
 6575TIP3    H119731   1.537   2.573   2.263
 6575TIP3    H219732   1.645   2.642   2.182
 6576TIP3   OH219733   4.301   4.037   1.567
 6576TIP3    H119734   4.322   3.979   1.493
 6576TIP3    H219735   4.307   3.979   1.643
 6577TIP3   OH219736   2.826   4.100   1.076
 6577TIP3    H119737   2.837   4.009   1.048
 6577TIP3    H219738   2.846   4.151   0.997
 6578TIP3   OH219739   5.437   4.577   4.515
 6578TIP3    H119740   5.353   4.566   4.471
 6578TIP3    H219741   5.469   4.488   4.529
 6579TIP3   OH219742   3.054   3.286   0.535
 6579TIP3    H119743   3.105   3.344   0.593
 6579TIP3    H219744   2.964   3.318   0.543
 6580TIP3   OH219745   1.774   3.275   5.129
 6580TIP3    H119746   1.810   3.304   5.213
 6580TIP3    H219747   1.713   3.205   5.152
 6581TIP3   OH219748   6.103   5.136   2.104
 6581TIP3    H119749   6.196   5.148   2.125
 6581TIP3    H219750   6.062   5.217   2.133
 6582TIP3   OH219751   5.891   1.750   3.489
 6582TIP3    H119752   5.824   1.688   3.460
 6582TIP3    H219753   5.861   1.834   3.455
 6583TIP3   OH219754   3.581   3.160   3.651
 6583TIP3    H119755   3.635   3.129   3.578
 6583TIP3    H219756   3.638   3.153   3.728
 6584TIP3   OH219757   0.553   5.292   0.813
 6584TIP3    H119758   0.504   5.238   0.875
 6584TIP3    H219759   0.597   5.230   0.756
 6585TIP3   OH219760   0.013   0.002   3.678
 6585TIP3    H119761   0.098  -0.015   3.716
 6585TIP3    H219762   0.029   0.072   3.614
 6586TIP3   OH219763   0.901   5.252   3.180
 6586TIP3    H119764   0.980   5.301   3.160
 6586TIP3    H219765   0.922   5.202   3.258
 6587TIP3   OH219766   2.818   4.876   0.444
 6587TIP3    H119767   2.726   4.849   0.449
 6587TIP3    H219768   2.829   4.938   0.516
 6588TIP3   OH219769   1.208   1.608   2.120
 6588TIP3    H119770   1.121   1.645   2.136
 6588TIP3    H219771   1.266   1.684   2.120
 6589TIP3   OH219772   5.486   2.207   2.326
 6589TIP3    H119773   5.552   2.273   2.350
 6589TIP3    H219774   5.448   2.179   2.409
 6590TIP3   OH219775   1.242   1.553   0.270
 6590TIP3    H119776   1.293   1.527   0.194
 6590TIP3    H219777   1.159   1.584   0.234
 6591TIP3   OH219778   4.274   4.329   3.920
 6591TIP3    H119779   4.198   4.291   3.876
 6591TIP3    H219780   4.313   4.388   3.854
 6592TIP3   OH219781   1.178   3.457   4.495
 6592TIP3    H119782   1.270   3.481   4.499
 6592TIP3    H219783   1.158   3.455   4.402
 6593TIP3   OH219784   3.589   0.052   1.228
 6593TIP3    H119785   3.611  -0.041   1.226
 6593TIP3    H219786   3.643   0.088   1.299
 6594TIP3   OH219787   2.436   3.278   2.193
 6594TIP3    H119788   2.508   3.249   2.136
 6594TIP3    H219789   2.423   3.370   2.171
 6595TIP3   OH219790   1.402   0.144   4.588
 6595TIP3    H119791   1.497   0.149   4.600
 6595TIP3    H219792   1.378   0.057   4.620
 6596TIP3   OH219793   2.708   4.040   3.955
 6596TIP3    H119794   2.619   4.065   3.930
 6596TIP3    H219795   2.730   4.097   4.029
 6597TIP3   OH219796   0.638   4.431   3.353
 6597TIP3    H119797   0.590   4.377   3.291
 6597TIP3    H219798   0.671   4.505   3.302
 6598TIP3   OH219799   4.282   6.010   1.427
 6598TIP3    H119800   4.205   5.954   1.437
 6598TIP3    H219801   4.341   5.982   1.496
 6599TIP3   OH219802   3.197   0.809   2.657
 6599TIP3    H119803   3.252   0.882   2.686
 6599TIP3    H219804   3.200   0.814   2.561
 6600TIP3   OH219805   1.746   5.096   2.342
 6600TIP3    H119806   1.680   5.131   2.402
 6600TIP3    H219807   1.699   5.084   2.259
 6601TIP3   OH219808   4.278   2.351   4.299
 6601TIP3    H119809   4.206   2.306   4.343
 6601TIP3    H219810   4.253   2.443   4.300
 6602TIP3   OH219811   3.050   0.705   1.215
 6602TIP3    H119812   3.027   0.666   1.131
 6602TIP3    H219813   3.120   0.650   1.250
 6603TIP3   OH219814   4.576   5.702   1.543
 6603TIP3    H119815   4.565   5.778   1.600
 6603TIP3    H219816   4.496   5.651   1.555
 6604TIP3   OH219817   4.648   0.463   3.823
 6604TIP3    H119818   4.623   0.506   3.905
 6604TIP3    H219819   4.590   0.501   3.757
 6605TIP3   OH219820   2.348   3.120   4.031
 6605TIP3    H119821   2.259   3.153   4.040
 6605TIP3    H219822   2.338   3.030   3.999
 6606TIP3   OH219823   0.178   1.188   0.302
 6606TIP3    H119824   0.206   1.262   0.249
 6606TIP3    H219825   0.124   1.226   0.371
 6607TIP3   OH219826   0.259   4.868   3.220
 6607TIP3    H119827   0.220   4.910   3.143
 6607TIP3    H219828   0.286   4.941   3.275
 6608TIP3   OH219829   3.569   4.823   1.742
 6608TIP3    H119830   3.474   4.827   1.746
 6608TIP3    H219831   3.595   4.904   1.697
 6609TIP3   OH219832   5.215   1.334   0.071
 6609TIP3    H119833   5.140   1.295   0.028
 6609TIP3    H219834   5.236   1.411   0.017
 6610TIP3   OH219835   5.912   2.569   1.267
 6610TIP3    H119836   5.894   2.663   1.261
 6610TIP3    H219837   5.996   2.558   1.222
 6611TIP3   OH219838   2.805   3.382   1.635
 6611TIP3    H119839   2.863   3.423   1.698
 6611TIP3    H219840   2.847   3.298   1.614
 6612TIP3   OH219841   2.789   0.999   0.725
 6612TIP3    H119842   2.758   0.927   0.670
 6612TIP3    H219843   2.869   0.965   0.765
 6613TIP3   OH219844   0.838   3.010   1.918
 6613TIP3    H119845   0.809   3.096   1.949
 6613TIP3    H219846   0.825   2.952   1.993
 6614TIP3   OH219847   2.639   1.682   1.784
 6614TIP3    H119848   2.683   1.637   1.856
 6614TIP3    H219849   2.697   1.754   1.761
 6615TIP3   OH219850   4.085   3.753   5.169
 6615TIP3    H119851   4.020   3.804   5.120
 6615TIP3    H219852   4.035   3.714   5.241
 6616TIP3   OH219853   6.117   0.219   0.467
 6616TIP3    H119854   6.048   0.223   0.533
 6616TIP3    H219855   6.172   0.295   0.486
 6617TIP3   OH219856   2.311   0.102   1.358
 6617TIP3    H119857   2.232   0.155   1.352
 6617TIP3    H219858   2.285   0.025   1.409
 6618TIP3   OH219859   4.704   0.533   3.040
 6618TIP3    H119860   4.697   0.604   2.977
 6618TIP3    H219861   4.768   0.473   3.003
 6619TIP3   OH219862   3.178   4.627   1.455
 6619TIP3    H119863   3.165   4.661   1.544
 6619TIP3    H219864   3.270   4.645   1.436
 6620TIP3   OH219865   6.041   4.688   1.355
 6620TIP3    H119866   6.018   4.753   1.422
 6620TIP3    H219867   6.066   4.741   1.279
 6621TIP3   OH219868   5.822   3.529   2.810
 6621TIP3    H119869   5.813   3.460   2.743
 6621TIP3    H219870   5.852   3.605   2.762
 6622TIP3   OH219871   0.107   5.632   1.347
 6622TIP3    H119872   0.156   5.707   1.314
 6622TIP3    H219873   0.017   5.646   1.316
 6623TIP3   OH219874   1.686   0.530   2.456
 6623TIP3    H119875   1.645   0.573   2.381
 6623TIP3    H219876   1.613   0.511   2.516
 6624TIP3   OH219877   1.560   1.862   0.265
 6624TIP3    H119878   1.572   1.776   0.305
 6624TIP3    H219879   1.638   1.875   0.212
 6625TIP3   OH219880   2.313   2.095   1.635
 6625TIP3    H119881   2.304   2.003   1.659
 6625TIP3    H219882   2.276   2.100   1.547
 6626TIP3   OH219883   5.024   5.355   0.491
 6626TIP3    H119884   5.071   5.273   0.479
 6626TIP3    H219885   4.952   5.333   0.550
 6627TIP3   OH219886   4.045   2.493   4.350
 6627TIP3    H119887   3.999   2.520   4.429
 6627TIP3    H219888   4.004   2.409   4.327
 6628TIP3   OH219889   3.174   2.470   3.515
 6628TIP3    H119890   3.251   2.413   3.507
 6628TIP3    H219891   3.102   2.418   3.478
 6629TIP3   OH219892   2.163   0.361   4.141
 6629TIP3    H119893   2.161   0.334   4.233
 6629TIP3    H219894   2.071   0.363   4.115
 6630TIP3   OH219895   1.669   3.470   4.452
 6630TIP3    H119896   1.648   3.428   4.536
 6630TIP3    H219897   1.639   3.560   4.463
 6631TIP3   OH219898   0.378   4.066   1.458
 6631TIP3    H119899   0.337   4.035   1.377
 6631TIP3    H219900   0.304   4.085   1.516
 6632TIP3   OH219901   4.367  -0.031   2.443
 6632TIP3    H119902   4.369   0.061   2.418
 6632TIP3    H219903   4.318  -0.033   2.525
 6633TIP3   OH219904   0.557   5.357   1.134
 6633TIP3    H119905   0.637   5.382   1.090
 6633TIP3    H219906   0.525   5.281   1.084
 6634TIP3   OH219907   4.149   4.477   2.954
 6634TIP3    H119908   4.102   4.552   2.991
 6634TIP3    H219909   4.179   4.508   2.868
 6635TIP3   OH219910   2.055   1.622   3.871
 6635TIP3    H119911   1.967   1.590   3.851
 6635TIP3    H219912   2.050   1.716   3.853
 6636TIP3   OH219913   3.931   3.735   4.598
 6636TIP3    H119914   3.837   3.746   4.607
 6636TIP3    H219915   3.942   3.659   4.541
 6637TIP3   OH219916   2.484   3.978   3.099
 6637TIP3    H119917   2.501   3.976   3.193
 6637TIP3    H219918   2.467   3.887   3.075
 6638TIP3   OH219919   0.205   1.911   0.522
 6638TIP3    H119920   0.117   1.938   0.498
 6638TIP3    H219921   0.223   1.957   0.603
 6639TIP3   OH219922   1.480   1.685   0.060
 6639TIP3    H119923   1.449   1.615   0.002
 6639TIP3    H219924   1.452   1.765   0.017
 6640TIP3   OH219925   4.844   4.299   1.528
 6640TIP3    H119926   4.757   4.260   1.527
 6640TIP3    H219927   4.904   4.224   1.527
 6641TIP3   OH219928   5.741   3.236   1.734
 6641TIP3    H119929   5.651   3.244   1.766
 6641TIP3    H219930   5.732   3.204   1.644
 6642TIP3   OH219931   1.371   5.890   1.875
 6642TIP3    H119932   1.304   5.956   1.892
 6642TIP3    H219933   1.323   5.808   1.865
 6643TIP3   OH219934   1.380   0.775   1.185
 6643TIP3    H119935   1.301   0.829   1.195
 6643TIP3    H219936   1.442   0.832   1.140
 6644TIP3   OH219937   6.032   5.720   1.264
 6644TIP3    H119938   6.025   5.814   1.247
 6644TIP3    H219939   5.951   5.683   1.230
 6645TIP3   OH219940   6.108   3.254   4.526
 6645TIP3    H119941   6.015   3.270   4.514
 6645TIP3    H219942   6.133   3.310   4.600
   6.35356   5.99020   5.18767   0.00000   0.00000  -2.11786   0.00000  -2.11786  -2.99510
