Title
44463
    1GLY      N    1   6.387   4.566   3.734 -0.5076  0.3242 -0.0757
    1GLY    HT1    2   6.345   4.642   3.792 -2.3631  0.9507 -2.1446
    1GLY    HT2    3   6.395   4.608   3.639 -0.6682  0.2153 -0.1387
    1GLY    HT3    4   6.484   4.548   3.767 -0.8770 -1.4528  0.0966
    1GLY     CA    5   6.308   4.448   3.722 -0.1716  0.4195 -0.1247
    1GLY    HA1    6   6.298   4.419   3.826  1.9329  2.3206  0.6456
    1GLY    HA2    7   6.365   4.367   3.679  3.8101  3.1933 -0.3134
    1GLY      C    8   6.157   4.458   3.686 -0.4341  0.1662  0.5441
    1GLY      O    9   6.119   4.561   3.632 -0.6985 -0.0050  0.0976
    2PRO      N   10   6.078   4.352   3.696 -0.4870 -0.9421  0.4675
    2PRO     CD   11   6.129   4.218   3.717 -0.3293  0.7119  0.7363
    2PRO    HD1   12   6.151   4.204   3.825  1.5724 -2.5896 -0.0173
    2PRO    HD2   13   6.214   4.195   3.649 -3.6560 -1.5632 -2.8622
    2PRO     CA   14   5.942   4.350   3.663 -0.3715  0.3149  0.0157
    2PRO     HA   15   5.939   4.398   3.567  1.0050  1.8390  0.7172
    2PRO     CB   16   5.889   4.211   3.696  0.1321  0.2539 -0.2127
    2PRO    HB1   17   5.806   4.180   3.629 -0.2172  0.7053  0.0138
    2PRO    HB2   18   5.855   4.203   3.802  0.6946 -1.3679 -0.1430
    2PRO     CG   19   6.012   4.119   3.682  0.2761 -0.4009 -0.3033
    2PRO    HG1   20   6.003   4.032   3.749  0.8014  0.6388  1.1306
    2PRO    HG2   21   6.024   4.082   3.578  1.9727 -1.1758  0.1566
    2PRO      C   22   5.861   4.447   3.751 -0.1797 -0.6714  0.0346
    2PRO      O   23   5.912   4.482   3.856 -0.1487 -0.4892 -0.2302
    3GLY      N   24   5.742   4.490   3.699  0.2870 -0.2635  0.7600
    3GLY     HN   25   5.711   4.451   3.613  1.7317  0.4759 -0.1106
    3GLY     CA   26   5.647   4.578   3.757 -0.3570  0.1954  0.2684
    3GLY    HA1   27   5.571   4.587   3.682  2.6105  1.3795 -2.7178
    3GLY    HA2   28   5.703   4.669   3.774  1.6888 -0.6545 -1.7769
    3GLY      C   29   5.583   4.520   3.878 -0.0874 -0.2407 -0.1556
    3GLY      O   30   5.581   4.400   3.908  0.1458  0.1853  0.2737
    4ASP      N   31   5.517   4.607   3.959 -0.2316 -0.1045 -0.0652
    4ASP     HN   32   5.519   4.706   3.951  0.2987 -0.2067 -1.3765
    4ASP     CA   33   5.438   4.567   4.071  0.0498  0.0319 -0.4517
    4ASP     HA   34   5.503   4.505   4.131 -0.1183  1.6174  1.4436
    4ASP     CB   35   5.389   4.680   4.160  0.0087 -0.0729  0.0036
    4ASP    HB1   36   5.311   4.640   4.228  0.5334 -2.1341 -0.5784
    4ASP    HB2   37   5.343   4.762   4.100 -0.2976 -0.7150 -0.6455
    4ASP     CG   38   5.503   4.744   4.235  0.2333 -1.0210  0.0408
    4ASP    OD1   39   5.619   4.702   4.222  0.2438  0.1184  0.5247
    4ASP    OD2   40   5.468   4.834   4.315 -0.1756 -0.3188  0.0855
    4ASP      C   41   5.321   4.486   4.019 -0.0480  0.9486  0.6261
    4ASP      O   42   5.270   4.512   3.909 -0.6695  0.0674  0.2758
    5PRO      N   43   5.274   4.377   4.077 -0.2255  0.1901  0.7622
    5PRO     CD   44   5.339   4.309   4.192  0.0672 -0.0825 -0.0064
    5PRO    HD1   45   5.354   4.383   4.274  1.3352  0.0475 -0.3476
    5PRO    HD2   46   5.442   4.271   4.173  0.2319 -0.4232  1.4416
    5PRO     CA   47   5.131   4.334   4.069 -0.0001  0.1994 -0.4405
    5PRO     HA   48   5.121   4.264   3.988 -0.9141  0.7959 -0.8503
    5PRO     CB   49   5.120   4.256   4.200 -0.4777 -0.7482 -0.3545
    5PRO    HB1   50   5.051   4.169   4.191 -0.6501 -0.5652 -0.8690
    5PRO    HB2   51   5.095   4.321   4.286  2.0074  0.0145 -0.1843
    5PRO     CG   52   5.255   4.201   4.247  0.4001  0.2112 -0.6649
    5PRO    HG1   53   5.262   4.195   4.358  1.3475 -0.3839 -0.7474
    5PRO    HG2   54   5.272   4.098   4.210 -1.2865 -0.6898  0.9817
    5PRO      C   55   5.025   4.433   4.047  0.4900  0.1027 -0.3453
    5PRO      O   56   5.032   4.545   4.097 -0.8224  0.7058  0.0136
    6GLY      N   57   4.924   4.404   3.957  0.0763  0.4676 -0.3487
    6GLY     HN   58   4.932   4.316   3.912 -1.3025 -1.1261  2.4080
    6GLY     CA   59   4.814   4.493   3.929  0.0417 -0.2712  0.0599
    6GLY    HA1   60   4.775   4.447   3.840  0.2550  0.0591 -0.2023
    6GLY    HA2   61   4.844   4.596   3.918  1.3815 -0.5124  1.1671
    6GLY      C   62   4.704   4.481   4.041 -0.4942  0.1786 -0.5360
    6GLY      O   63   4.727   4.408   4.136  0.0138  0.2263  0.1537
    7PRO      N   64   4.590   4.543   4.030 -0.3270 -0.0486  0.2156
    7PRO     CD   65   4.577   4.667   3.957 -0.4014 -0.0089  0.4981
    7PRO    HD1   66   4.567   4.654   3.847  1.4763  2.0637  0.0482
    7PRO    HD2   67   4.662   4.733   3.986 -0.7397  0.6647 -0.0436
    7PRO     CA   68   4.475   4.516   4.118  0.4846 -0.8523  1.0725
    7PRO     HA   69   4.501   4.547   4.218  2.3762 -0.9147  0.6223
    7PRO     CB   70   4.369   4.615   4.071  0.3216  0.7866  0.0491
    7PRO    HB1   71   4.318   4.649   4.164  1.0150  0.0507  0.7111
    7PRO    HB2   72   4.296   4.574   3.999  0.7252 -0.7187  0.4958
    7PRO     CG   73   4.444   4.730   4.006 -0.3530 -0.7809  0.7442
    7PRO    HG1   74   4.398   4.782   3.919  0.4275  0.4410  1.0429
    7PRO    HG2   75   4.461   4.809   4.083 -0.0446  1.5471 -1.6678
    7PRO      C   76   4.434   4.376   4.132  0.0652 -0.1500 -0.0665
    7PRO      O   77   4.447   4.304   4.034 -0.1570 -0.6290 -0.3304
    8GLY      N   78   4.376   4.331   4.248 -0.0887 -0.3667  0.0984
    8GLY     HN   79   4.353   4.405   4.311 -3.5178  0.5045 -2.0576
    8GLY     CA   80   4.306   4.200   4.256 -0.0150 -0.1319 -0.1314
    8GLY    HA1   81   4.288   4.189   4.362 -0.3715  2.4483  0.1090
    8GLY    HA2   82   4.374   4.118   4.236 -0.1914 -0.3020 -0.0391
    8GLY      C   83   4.167   4.192   4.187  0.1740  0.0326 -0.9525
    8GLY      O   84   4.126   4.282   4.113  0.1338  0.0433  0.2346
    9ASP      N   85   4.100   4.075   4.210  0.0833 -0.2660  0.0883
    9ASP     HN   86   4.126   4.013   4.283 -0.9926 -0.8923 -0.0495
    9ASP     CA   87   3.968   4.036   4.164  0.1121  0.5056 -0.8869
    9ASP     HA   88   3.961   4.054   4.058  1.6211  2.8593 -0.6272
    9ASP     CB   89   3.948   3.888   4.213 -0.2761  0.0726  0.1697
    9ASP    HB1   90   3.840   3.862   4.207 -0.2730 -0.4233  1.7901
    9ASP    HB2   91   3.967   3.877   4.322  0.2579 -0.7282  0.0016
    9ASP     CG   92   4.012   3.784   4.120  0.4835  0.8250 -0.5706
    9ASP    OD1   93   4.112   3.806   4.056  0.1987  0.4907  0.1985
    9ASP    OD2   94   3.969   3.666   4.124  0.2809  0.5304  0.2985
    9ASP      C   95   3.866   4.140   4.228 -0.0085  0.5855  0.0259
    9ASP      O   96   3.867   4.165   4.352  0.6319  0.3933 -0.6365
   10PRO      N   97   3.777   4.209   4.148 -0.2223  0.7269  0.3203
   10PRO     CD   98   3.770   4.201   4.004  0.4929 -0.3845 -0.8969
   10PRO    HD1   99   3.720   4.103   3.988  0.6532 -0.3214 -1.7990
   10PRO    HD2  100   3.874   4.205   3.965  1.2028 -2.6143  0.6542
   10PRO     CA  101   3.663   4.276   4.208 -0.0693 -0.3688  0.4538
   10PRO     HA  102   3.708   4.353   4.268  2.9925 -1.1831 -0.7059
   10PRO     CB  103   3.586   4.330   4.083  0.3633  0.2743  0.3056
   10PRO    HB1  104   3.554   4.435   4.101  0.0217  0.5331 -1.6488
   10PRO    HB2  105   3.500   4.266   4.052  0.0802  1.4486 -1.4114
   10PRO     CG  106   3.682   4.317   3.966 -0.4454 -0.4627 -0.4009
   10PRO    HG1  107   3.632   4.293   3.870  0.5160 -2.0062 -0.5426
   10PRO    HG2  108   3.743   4.410   3.963 -1.9696  0.5995  0.9617
   10PRO      C  109   3.576   4.190   4.298 -0.5000 -0.6900 -0.0649
   10PRO      O  110   3.543   4.080   4.260  0.4674 -0.3409  0.0738
   11GLY      N  111   3.546   4.242   4.418  0.1469  0.2569  0.1648
   11GLY     HN  112   3.585   4.328   4.450  0.7717  0.1269 -0.2452
   11GLY     CA  113   3.477   4.161   4.522  0.5129 -0.0385 -0.7646
   11GLY    HA1  114   3.450   4.233   4.598 -0.2539 -1.0673 -0.0484
   11GLY    HA2  115   3.551   4.086   4.546  0.9724 -0.2147 -2.6134
   11GLY      C  116   3.344   4.099   4.489 -0.0937 -0.3043  0.6143
   11GLY      O  117   3.268   4.143   4.408  0.6481 -0.5970  0.1673
   12PRO      N  118   3.302   3.993   4.553 -0.0169 -1.0355 -0.5777
   12PRO     CD  119   3.379   3.929   4.656  0.4447 -0.0438  0.1444
   12PRO    HD1  120   3.380   3.994   4.746  0.4448 -1.1318  0.9325
   12PRO    HD2  121   3.483   3.910   4.619  1.0121  0.1267  1.6032
   12PRO     CA  122   3.163   3.940   4.555  1.1658  0.3952  0.0021
   12PRO     HA  123   3.131   3.903   4.458 -1.2485  0.6488  0.6635
   12PRO     CB  124   3.159   3.840   4.668 -0.9219 -0.3018  0.3262
   12PRO    HB1  125   3.082   3.763   4.645 -0.0769 -0.8716 -0.5817
   12PRO    HB2  126   3.121   3.883   4.764  0.7207 -0.5974  1.1233
   12PRO     CG  127   3.308   3.802   4.676 -0.5856 -0.2189  0.2526
   12PRO    HG1  128   3.338   3.751   4.770 -0.7908 -2.2472 -0.7569
   12PRO    HG2  129   3.327   3.730   4.594  0.1538 -0.1290  0.3409
   12PRO      C  130   3.056   4.049   4.572  0.5745  1.0692  0.2580
   12PRO      O  131   3.060   4.137   4.657 -0.8230 -0.9835 -0.4057
   13GLY      N  132   2.951   4.050   4.483 -0.5386 -0.3065 -0.3695
   13GLY     HN  133   2.943   3.987   4.407  0.1677 -0.8348 -0.0089
   13GLY     CA  134   2.825   4.134   4.505  0.2829  0.8263 -0.3742
   13GLY    HA1  135   2.759   4.112   4.423 -1.9901 -0.9483  1.8373
   13GLY    HA2  136   2.857   4.237   4.511  0.9866  0.6544 -1.2687
   13GLY      C  137   2.752   4.090   4.628 -0.8794 -0.1070  0.2274
   13GLY      O  138   2.745   3.977   4.676  0.2035 -0.0151  0.2949
   14ASP      N  139   2.693   4.188   4.701 -0.2972 -0.0323  0.1912
   14ASP     HN  140   2.700   4.284   4.673 -0.5627 -0.4277 -1.2636
   14ASP     CA  141   2.621   4.177   4.824  0.2079  0.0439  0.3899
   14ASP     HA  142   2.688   4.151   4.904 -2.4499 -1.6496  2.1735
   14ASP     CB  143   2.562   4.315   4.854 -0.6896  0.2815 -0.2470
   14ASP    HB1  144   2.497   4.304   4.944  1.5379 -1.7672  1.1821
   14ASP    HB2  145   2.502   4.350   4.767 -1.4976 -0.5914 -0.0475
   14ASP     CG  146   2.667   4.412   4.884  0.7758 -0.3260  0.8124
   14ASP    OD1  147   2.774   4.380   4.935 -0.4044  0.1442  0.4518
   14ASP    OD2  148   2.640   4.535   4.866 -0.6178 -0.3697  0.1676
   14ASP      C  149   2.503   4.082   4.815  0.2285  0.1136 -0.9593
   14ASP      O  150   2.451   4.052   4.710  0.0303 -0.2609 -0.4668
   15PRO      N  151   2.467   4.011   4.923  0.3711  0.1049 -0.3450
   15PRO     CD  152   2.546   4.000   5.051  0.3953  0.4386  0.3594
   15PRO    HD1  153   2.535   4.100   5.098  0.3308 -0.1437  1.6027
   15PRO    HD2  154   2.652   3.970   5.035  0.3638  0.6301 -0.2347
   15PRO     CA  155   2.384   3.891   4.906  0.0013  0.7266  0.3033
   15PRO     HA  156   2.417   3.833   4.821 -0.8579 -0.3162  0.6614
   15PRO     CB  157   2.427   3.799   5.032  0.1256 -0.3873  0.1137
   15PRO    HB1  158   2.517   3.743   4.998 -0.1149 -0.5536 -0.2540
   15PRO    HB2  159   2.347   3.736   5.076  3.6930 -4.1221  1.6283
   15PRO     CG  160   2.473   3.901   5.134 -0.0384 -0.2638 -0.9549
   15PRO    HG1  161   2.383   3.938   5.187  0.2692 -0.1009 -0.5486
   15PRO    HG2  162   2.524   3.849   5.218 -1.0728 -0.6860 -0.5799
   15PRO      C  163   2.233   3.931   4.900  0.6908 -0.1125  1.0348
   15PRO    OT1  164   2.194   4.051   4.905 -0.4589  0.0174  0.1715
   15PRO    OT2  165   2.149   3.837   4.883  0.0156  0.3639  0.7125
   16LIT    LIT  166   6.052   2.359   1.186  0.0304  0.0510  0.7190
   17LIT    LIT  167   1.045   0.358   4.555 -0.2816  0.6211  0.0490
   18LIT    LIT  168   3.756   1.691   6.466  0.2518 -0.0236 -0.0109
   19LIT    LIT  169   3.936   6.454   1.728  0.1637  0.1780  0.2896
   20LIT    LIT  170   6.414   4.662   5.071  0.3235  0.5418 -0.9738
   21LIT    LIT  171   1.275   7.096   0.403  0.4095  0.0511 -0.2598
   22LIT    LIT  172   3.311   2.163   5.011  0.1532 -0.3514  0.6307
   23LIT    LIT  173   8.217   0.954   3.757  0.7967 -0.4771 -0.1062
   24LIT    LIT  174   6.896   6.480   4.781 -0.9395  0.1891  0.0742
   25LIT    LIT  175   6.545   5.762   4.926 -0.5924  0.0168  0.2598
   26LIT    LIT  176   6.907   0.932   4.816  1.1246 -0.6883 -0.1757
   27LIT    LIT  177   7.132   6.979   2.674 -0.2854 -0.9344  0.5315
   28LIT    LIT  178   0.568   3.101   4.437  0.3957 -0.6961  0.6037
   29LIT    LIT  179   2.846   3.468   1.141 -0.2699 -0.7709 -0.1669
   30LIT    LIT  180   1.650   2.183   4.466 -0.3388 -0.5388 -0.0861
   31LIT    LIT  181   6.252   6.192   2.019  1.2242  0.1674  0.4978
   32LIT    LIT  182   4.629   1.479   6.807 -0.5572  0.2796 -0.7606
   33LIT    LIT  183   0.722   7.461   2.234  0.3890 -0.0104  0.2389
   34LIT    LIT  184   0.031   6.827   4.371 -0.4213  0.5453  0.2651
   35LIT    LIT  185   4.169   2.264   5.469  0.5631 -0.2568  0.2195
   36LIT    LIT  186   0.955   0.661   5.149 -0.5973 -0.1666 -0.0987
   37LIT    LIT  187   4.940   7.012   5.694  0.5948  0.3940 -0.7540
   38LIT    LIT  188   1.225   2.128   5.935  0.1661 -0.2735 -0.0851
   39LIT    LIT  189   3.468   5.122   6.030 -0.0135 -1.2574 -0.0897
   40LIT    LIT  190   6.315   5.538   3.316  1.3988 -0.1242 -0.2169
   41LIT    LIT  191   0.473   2.525   1.372 -0.3661 -0.0764 -0.0659
   42LIT    LIT  192   2.051   5.602   4.461  0.0922  0.0711  1.1049
   43LIT    LIT  193   0.135   4.046   5.496 -0.9136 -0.3696  0.3853
   44LIT    LIT  194   0.359   5.140   2.668  0.3063 -0.3668  0.1914
   45LIT    LIT  195   3.123   4.293   5.706 -1.5939 -0.1159  0.4318
   46LIT    LIT  196   2.278   2.283   4.312  0.2578 -0.6367  0.2013
   47LIT    LIT  197   5.618   1.167   3.064 -0.1806  0.3538  0.3253
   48LIT    LIT  198   7.526   5.066   3.976 -0.5915 -0.5334 -0.5544
   49LIT    LIT  199   5.235   1.100   6.578  0.5724  0.1632  0.4731
   50LIT    LIT  200   7.679   5.654   3.667 -0.1878 -0.4154  0.3910
   51LIT    LIT  201   2.805   0.692   0.501  0.4357 -0.1174  0.6781
   52LIT    LIT  202   3.862   2.503   2.731 -0.2919 -0.4342  0.8101
   53LIT    LIT  203   1.693   0.158   3.056  0.1990  0.4887 -0.1776
   54LIT    LIT  204   6.123   6.778   2.706  0.6394 -0.4495  0.6612
   55LIT    LIT  205   0.949   5.752   2.843 -0.4752  0.8246  0.7861
   56LIT    LIT  206   7.068   6.037   0.597 -0.4731  0.3793 -0.2241
   57LIT    LIT  207   2.031   2.149   2.270 -0.3722 -0.1452 -0.3471
   58LIT    LIT  208   6.945   4.038   6.645  0.2413  0.1229  0.0280
   59LIT    LIT  209   2.202   6.875   2.936 -0.6256  0.6239  0.2388
   60LIT    LIT  210   2.097   4.015   5.402  0.1289  1.2354  0.6608
   61CLA    CLA  211   0.604   7.088   0.352  0.4182  0.2899 -0.1077
   62CLA    CLA  212   3.678   7.016   0.700  0.2800 -0.0115 -0.7343
   63CLA    CLA  213   6.948   6.394   5.205 -0.0158  0.2449  0.2855
   64CLA    CLA  214   2.292   1.915   4.578 -0.0969  0.1248 -0.3696
   65CLA    CLA  215   3.250   2.547   2.094 -0.0405  0.2364 -0.0937
   66CLA    CLA  216   6.708   5.559   3.132 -0.0706 -0.3682 -0.0712
   67CLA    CLA  217   1.918   6.313   4.795 -0.0804  0.1570 -0.3325
   68CLA    CLA  218   0.259   5.771   4.490  0.2077  0.0120 -0.3047
   69CLA    CLA  219   3.109   4.712   5.506 -0.0504  0.4773  0.0933
   70CLA    CLA  220   1.263   0.431   4.581 -0.1057  0.0359 -0.3643
   71CLA    CLA  221   1.855   1.919   4.775 -0.2873 -0.0617 -0.2463
   72CLA    CLA  222   0.916   4.322   3.658  0.2988 -0.3030 -0.0211
   73CLA    CLA  223   1.117   1.292   4.243  0.3243 -0.1421  0.1327
   74CLA    CLA  224   6.713   2.732   2.733 -0.0811 -0.3754 -0.2609
   75CLA    CLA  225   6.146   4.217   6.495 -0.1919 -0.2231  0.1911
   76CLA    CLA  226   8.151   4.765   3.562 -0.0595  0.4435 -0.0631
   77CLA    CLA  227   2.354   0.656   0.162 -0.1657 -0.0510 -0.0131
   78CLA    CLA  228   7.204   7.372   1.293 -0.5811  0.2164  0.1571
   79CLA    CLA  229   7.190   7.071   2.870 -0.1753 -0.5121 -0.0131
   80CLA    CLA  230   3.302   1.162   6.068 -0.2780  0.2443 -0.0764
   81CLA    CLA  231   0.793   4.220   6.468 -0.0774 -0.3171 -0.2551
   82CLA    CLA  232   1.007   1.105   6.897 -0.0220 -0.0936  0.3792
   83CLA    CLA  233   2.335   1.027   3.889  0.3301  0.1348 -0.1757
   84CLA    CLA  234   5.483   5.134   6.776  0.0813 -0.0308 -0.1751
   85CLA    CLA  235   1.140   2.112   1.538  0.0618  0.2322  0.0720
   86CLA    CLA  236   2.288   1.280   6.298  0.1127  0.1268 -0.3801
   87CLA    CLA  237   6.428   4.701   4.134 -0.1256  0.4792  0.1682
   88CLA    CLA  238   7.501   5.753   3.764  0.1543 -0.1311 -0.1761
   89CLA    CLA  239   3.078   6.211   6.358 -0.1313 -0.0141 -0.2588
   90CLA    CLA  240   6.133   6.008   1.337 -0.1301 -0.0360  0.0075
   91CLA    CLA  241   7.020   6.598   4.631 -0.3421 -0.0503  0.2471
   92CLA    CLA  242   4.647   1.443   6.586  0.1551 -0.0220  0.0300
   93CLA    CLA  243   5.567   6.432   3.279 -0.1890  0.4278  0.0978
   94CLA    CLA  244   7.783   3.760   4.961  0.2998  0.8311 -0.3064
   95CLA    CLA  245   6.278   0.381   3.135 -0.3209 -0.5982  0.2452
   96CLA    CLA  246   2.087   1.595   3.570 -0.3781 -0.5838 -0.0630
   97CLA    CLA  247   2.676   7.014   0.987  0.3572 -0.1396 -0.1585
   98CLA    CLA  248   2.934   0.787   2.248 -0.1370  0.3203 -0.0591
   99CLA    CLA  249   2.722   5.367   1.860 -0.7817  0.0002 -0.2530
  100CLA    CLA  250   3.796   4.479   5.737 -0.1457  0.2972  0.0251
  101CLA    CLA  251   0.421   3.781   3.437 -0.1165  0.6255 -0.2658
  102CLA    CLA  252   7.711   4.443   3.034 -0.2687  0.0871  0.0668
  103TIP3   OH2  253   1.082   3.230   2.285 -0.6328 -0.1861 -0.2647
  103TIP3    H1  254   1.127   3.255   2.366 -0.6966 -0.5009 -0.1318
  103TIP3    H2  255   1.124   3.149   2.257  0.3473  0.6847 -1.3301
  104TIP3   OH2  256   2.104   1.181   3.151 -0.2912  0.1681 -0.1154
  104TIP3    H1  257   2.075   1.137   3.231 -1.0354  0.5741 -0.1571
  104TIP3    H2  258   2.177   1.237   3.179 -0.1243 -0.1847  0.1558
  105TIP3   OH2  259   0.586   1.272   1.836 -0.0286  0.1747 -0.2387
  105TIP3    H1  260   0.500   1.312   1.846 -0.0299 -0.0508  0.6695
  105TIP3    H2  261   0.584   1.195   1.892  0.6498 -0.0162 -0.4676
  106TIP3   OH2  262   0.056   5.905   2.298  0.2942  0.0756 -0.3568
  106TIP3    H1  263  -0.038   5.892   2.312  0.0552  0.3765 -1.5592
  106TIP3    H2  264   0.087   5.823   2.260  0.5495 -0.0671  0.1514
  107TIP3   OH2  265   3.379   0.978   2.032  0.1668 -0.3065 -0.1611
  107TIP3    H1  266   3.458   0.924   2.040  0.1994 -0.3310 -0.6304
  107TIP3    H2  267   3.370   1.020   2.118 -0.3942 -1.7863  0.5263
  108TIP3   OH2  268   2.494   1.236   3.311 -0.0868 -0.6518 -0.2689
  108TIP3    H1  269   2.512   1.229   3.217 -1.3088  0.5706 -0.6127
  108TIP3    H2  270   2.467   1.149   3.338 -1.0462 -0.6895 -1.3395
  109TIP3   OH2  271   7.061   7.562   2.645 -0.1641 -0.6135 -0.0156
  109TIP3    H1  272   6.977   7.606   2.632  0.7690  1.2711  0.1967
  109TIP3    H2  273   7.061   7.539   2.738 -0.5311 -0.8088 -0.0604
  110TIP3   OH2  274   1.085   6.544   3.486  0.5291 -0.0646  0.2096
  110TIP3    H1  275   1.047   6.624   3.524  2.8072  1.3067 -0.3182
  110TIP3    H2  276   1.173   6.570   3.460  0.2788 -1.9534 -2.7158
  111TIP3   OH2  277   1.167   0.485   2.513 -0.0471  0.6154 -1.0778
  111TIP3    H1  278   1.250   0.474   2.466  0.3859  0.3136 -0.2579
  111TIP3    H2  279   1.171   0.419   2.583 -0.5872  1.2058 -0.4938
  112TIP3   OH2  280   2.023   0.088   4.156  0.0532  1.0077  0.8876
  112TIP3    H1  281   1.980   0.012   4.194 -0.4967  0.7656 -0.1998
  112TIP3    H2  282   2.117   0.070   4.167 -0.0247 -0.7008 -1.0128
  113TIP3   OH2  283   2.462   7.624   1.482 -0.1500 -0.0432 -0.0796
  113TIP3    H1  284   2.409   7.699   1.457  0.2969  0.3359  0.1085
  113TIP3    H2  285   2.400   7.563   1.522 -0.6575 -0.1316 -0.9758
  114TIP3   OH2  286   5.764   0.178   3.187 -0.2982 -0.2907  0.0848
  114TIP3    H1  287   5.805   0.156   3.270 -0.2101  1.6897  0.5899
  114TIP3    H2  288   5.807   0.259   3.160 -1.3580 -0.1265 -1.1589
  115TIP3   OH2  289   3.863   0.167   1.865 -0.2497  0.0891 -0.1394
  115TIP3    H1  290   3.902   0.250   1.837 -0.3800 -0.1534 -1.0474
  115TIP3    H2  291   3.826   0.185   1.952  0.7296  0.6719  0.1685
  116TIP3   OH2  292   1.438   7.665   2.167 -0.2039 -0.1393  0.0644
  116TIP3    H1  293   1.438   7.758   2.145 -1.0134 -0.3979 -1.0474
  116TIP3    H2  294   1.501   7.626   2.107  1.4082 -0.0675  1.6614
  117TIP3   OH2  295   3.453   1.416   1.788 -0.2378  0.2366 -0.3302
  117TIP3    H1  296   3.458   1.402   1.693  1.3152 -1.3932 -0.0433
  117TIP3    H2  297   3.538   1.453   1.812  0.5525 -2.2237  0.8317
  118TIP3   OH2  298   5.286   0.611   1.228  0.3388  0.0912 -0.4908
  118TIP3    H1  299   5.233   0.611   1.307  0.8527 -0.2370 -0.1394
  118TIP3    H2  300   5.275   0.698   1.190 -0.1538  0.1422 -0.2230
  119TIP3   OH2  301   2.167   6.783   2.260  0.3354 -0.0791 -0.0384
  119TIP3    H1  302   2.198   6.714   2.319  0.6663 -0.0624 -0.1916
  119TIP3    H2  303   2.246   6.829   2.234  0.1292  0.2605 -0.0624
  120TIP3   OH2  304   8.177   4.028   6.294  0.4375  0.3209 -0.4384
  120TIP3    H1  305   8.270   4.032   6.315  0.6810  1.0072 -1.6293
  120TIP3    H2  306   8.158   4.111   6.250 -1.1150  0.8981  1.2553
  121TIP3   OH2  307   3.503   0.015   2.817 -0.3377 -0.0036  0.2284
  121TIP3    H1  308   3.482   0.047   2.905  0.0737  0.9086 -0.0061
  121TIP3    H2  309   3.488   0.090   2.760 -0.1477 -0.4622 -0.4244
  122TIP3   OH2  310   2.674   6.156   1.192 -0.5930 -0.2378  0.1267
  122TIP3    H1  311   2.686   6.071   1.149  0.8107 -0.5013  1.0041
  122TIP3    H2  312   2.719   6.146   1.276  0.1088  1.5864 -0.0217
  123TIP3   OH2  313   4.240   0.114   2.399 -0.8249 -0.4938 -0.5000
  123TIP3    H1  314   4.318   0.130   2.346 -0.7350 -0.1657 -0.2733
  123TIP3    H2  315   4.166   0.134   2.342 -0.7610 -1.3320 -0.8930
  124TIP3   OH2  316   1.886   6.605   1.830  0.0354  0.4337  0.3900
  124TIP3    H1  317   1.925   6.571   1.910 -0.3437 -0.8893  0.0346
  124TIP3    H2  318   1.823   6.537   1.804 -0.8157  1.4683 -0.2846
  125TIP3   OH2  319   7.569   6.824   1.600 -0.7155 -0.2091  0.7406
  125TIP3    H1  320   7.636   6.892   1.603 -0.0540 -0.7495 -0.8855
  125TIP3    H2  321   7.489   6.867   1.629 -0.0070  0.8716  1.1273
  126TIP3   OH2  322   3.448   0.674   1.096  0.1416  0.0894 -0.3067
  126TIP3    H1  323   3.513   0.745   1.100 -0.8901  0.9768  1.1068
  126TIP3    H2  324   3.429   0.665   1.002  1.2039  0.8228 -0.6105
  127TIP3   OH2  325   4.933   0.808   2.801 -0.1350  0.0021  0.3489
  127TIP3    H1  326   5.010   0.843   2.847  0.6053 -0.9883 -0.1198
  127TIP3    H2  327   4.967   0.784   2.714 -1.7236  2.8507 -1.1251
  128TIP3   OH2  328   5.559   2.158   1.863  0.1301 -0.0509  0.2810
  128TIP3    H1  329   5.550   2.244   1.902 -0.0219  0.7170 -1.3964
  128TIP3    H2  330   5.477   2.144   1.816  1.1424 -0.0218 -1.5318
  129TIP3   OH2  331   4.297   0.206   2.001 -0.5638 -0.3332  0.0503
  129TIP3    H1  332   4.355   0.279   2.018 -0.9041 -0.3098  1.1460
  129TIP3    H2  333   4.259   0.224   1.915  1.5000 -0.6635 -0.9627
  130TIP3   OH2  334   7.080   4.069   5.818  0.0280 -0.4604  0.1091
  130TIP3    H1  335   7.108   3.977   5.820  0.2551 -0.3715  0.8574
  130TIP3    H2  336   7.125   4.109   5.892  0.7691  0.4952 -0.8379
  131TIP3   OH2  337   8.313   2.920   6.936 -0.3961  0.3111  0.4848
  131TIP3    H1  338   8.255   2.862   6.885  2.2797 -1.4845 -0.6573
  131TIP3    H2  339   8.341   2.987   6.873  1.9154 -1.1805 -0.1388
  132TIP3   OH2  340   3.269   0.875   0.028 -0.0306  0.5584 -0.5522
  132TIP3    H1  341   3.274   0.847   0.119 -0.6632 -0.9602 -0.9818
  132TIP3    H2  342   3.281   0.970   0.032  2.3057  0.2489  0.9004
  133TIP3   OH2  343   0.908   6.897   1.480  0.0211 -0.0886 -0.1494
  133TIP3    H1  344   0.844   6.897   1.552 -0.9762  2.0249 -0.9979
  133TIP3    H2  345   0.992   6.908   1.524 -0.4898  0.2178  0.7752
  134TIP3   OH2  346   4.362   0.272   0.986 -0.3007 -0.4839 -0.0957
  134TIP3    H1  347   4.285   0.302   1.035  0.3366  0.7985  0.1384
  134TIP3    H2  348   4.405   0.353   0.958 -0.7432 -1.1712 -2.9538
  135TIP3   OH2  349   1.363   7.058   2.030 -0.0581  0.0273 -0.0139
  135TIP3    H1  350   1.400   6.977   2.067 -0.6033 -0.3216 -0.2245
  135TIP3    H2  351   1.308   7.093   2.100 -0.6778 -0.3588 -0.3030
  136TIP3   OH2  352   2.947   7.161   2.286 -0.0118  0.0268  0.9968
  136TIP3    H1  353   2.873   7.105   2.264  0.0002  0.2689  0.3265
  136TIP3    H2  354   2.933   7.241   2.235  1.8196 -0.7423 -0.8383
  137TIP3   OH2  355   1.300   7.439   2.287 -0.0486  0.5932  0.1705
  137TIP3    H1  356   1.364   7.446   2.358 -0.4921  1.9289  0.4539
  137TIP3    H2  357   1.326   7.508   2.225 -0.1720 -0.0085 -0.5607
  138TIP3   OH2  358   0.713   7.533   1.761 -0.2863 -0.0051 -0.3337
  138TIP3    H1  359   0.759   7.575   1.688  1.0434 -1.3740 -0.3232
  138TIP3    H2  360   0.753   7.570   1.839 -0.6636  0.3452 -0.3046
  139TIP3   OH2  361   6.288   2.167   1.487 -0.4245  0.3396 -0.1402
  139TIP3    H1  362   6.373   2.161   1.531  0.3123  3.1813 -1.0845
  139TIP3    H2  363   6.239   2.091   1.520  2.6335 -1.6783 -0.0146
  140TIP3   OH2  364   3.537   0.273   0.516  0.1700 -0.1498  0.0131
  140TIP3    H1  365   3.494   0.203   0.466 -0.1270 -0.5021  0.7475
  140TIP3    H2  366   3.619   0.234   0.545 -0.5680 -0.6374  1.4993
  141TIP3   OH2  367   1.887   7.778   1.522  0.1745 -0.3188 -0.6453
  141TIP3    H1  368   1.835   7.857   1.508 -0.0279  0.1285  2.1506
  141TIP3    H2  369   1.911   7.783   1.615 -0.1266 -3.7295 -0.3511
  142TIP3   OH2  370   1.520   7.455   3.085 -0.1153  0.6540 -0.3769
  142TIP3    H1  371   1.431   7.485   3.102  0.2364  1.6581 -0.2387
  142TIP3    H2  372   1.569   7.536   3.067  0.8665  0.1580  0.0492
  143TIP3   OH2  373   3.355   7.338   1.953  0.6853 -0.1423  0.2360
  143TIP3    H1  374   3.317   7.424   1.936  0.0112 -0.2990  0.9533
  143TIP3    H2  375   3.361   7.332   2.048 -1.5703 -1.8624  0.3106
  144TIP3   OH2  376   3.249   6.783   1.416  0.5676 -0.6221 -0.2468
  144TIP3    H1  377   3.241   6.831   1.333  0.5999 -0.3140 -0.0740
  144TIP3    H2  378   3.343   6.768   1.425  0.7215  0.6373  0.4506
  145TIP3   OH2  379   1.059   7.892   0.877  0.6988 -0.0991  0.5336
  145TIP3    H1  380   1.044   7.818   0.937 -0.3230 -0.6827 -0.4268
  145TIP3    H2  381   1.114   7.855   0.808 -1.8816 -0.6490 -1.2719
  146TIP3   OH2  382   5.188   1.261   2.005  0.1898  0.2693  0.0102
  146TIP3    H1  383   5.180   1.187   2.065  2.0889  0.2755  0.2877
  146TIP3    H2  384   5.133   1.329   2.045  0.7797  0.0048  1.3123
  147TIP3   OH2  385   5.360   0.413   1.882 -0.0039 -0.3886 -0.5186
  147TIP3    H1  386   5.329   0.347   1.820  0.4815 -0.2434 -0.9185
  147TIP3    H2  387   5.357   0.495   1.833 -0.3366 -0.1557 -0.1110
  148TIP3   OH2  388   7.893   4.059   6.821 -0.4393 -0.1278 -0.2253
  148TIP3    H1  389   7.975   4.012   6.811 -2.1598 -3.0839 -1.2285
  148TIP3    H2  390   7.863   4.074   6.731 -0.4891  1.9113  0.1106
  149TIP3   OH2  391   0.220   7.564   2.116 -0.0817  0.0466  0.9236
  149TIP3    H1  392   0.147   7.513   2.080  0.5961  0.8410 -1.6478
  149TIP3    H2  393   0.193   7.655   2.107  1.3752  0.3692 -0.4866
  150TIP3   OH2  394   0.874   7.134   1.058  0.0185  0.4575  0.1908
  150TIP3    H1  395   0.903   7.051   1.019  0.6466  0.3571  0.8537
  150TIP3    H2  396   0.917   7.136   1.143 -1.9329  0.3184  1.1957
  151TIP3   OH2  397   4.093   0.712   1.469 -0.4160  0.4024  0.1393
  151TIP3    H1  398   4.169   0.668   1.430 -0.3442  0.8616 -0.2355
  151TIP3    H2  399   4.034   0.729   1.395  0.3441  2.5557  0.0133
  152TIP3   OH2  400   2.733   0.193   3.764  0.1761  0.8602  0.3661
  152TIP3    H1  401   2.814   0.146   3.784  1.1963  2.2006 -0.5832
  152TIP3    H2  402   2.683   0.191   3.846  0.6668 -0.9376  0.6347
  153TIP3   OH2  403   4.337   0.876   0.890 -0.4014  0.2203 -0.3143
  153TIP3    H1  404   4.278   0.805   0.917 -0.6021  0.7945  0.8029
  153TIP3    H2  405   4.420   0.854   0.931 -0.3378  0.3855 -0.3558
  154TIP3   OH2  406   2.182   1.029   1.232 -0.2024 -0.6036 -0.3183
  154TIP3    H1  407   2.277   1.024   1.221 -0.1487  0.1334 -0.2325
  154TIP3    H2  408   2.168   1.114   1.276 -0.9385 -0.4694 -0.8129
  155TIP3   OH2  409   0.509   5.821   1.971  0.3130 -0.0286  0.4129
  155TIP3    H1  410   0.552   5.743   2.006 -0.1537 -0.4458  0.0531
  155TIP3    H2  411   0.554   5.894   2.014  1.2260 -0.4725  0.2274
  156TIP3   OH2  412   2.337   7.428   2.583  0.0567 -0.0816 -0.1710
  156TIP3    H1  413   2.427   7.461   2.583  0.1462 -0.1278 -3.7466
  156TIP3    H2  414   2.283   7.507   2.583  0.0126 -0.0493  2.6412
  157TIP3   OH2  415   7.781   6.006   3.231 -0.2084  0.1102  0.1056
  157TIP3    H1  416   7.816   5.987   3.318  1.5912  0.3984 -0.5201
  157TIP3    H2  417   7.837   5.956   3.172 -1.0044  0.4322 -0.9321
  158TIP3   OH2  418   2.361   7.489   2.180  0.3745 -0.0079 -0.0338
  158TIP3    H1  419   2.353   7.570   2.129  0.3282 -0.1059 -0.1846
  158TIP3    H2  420   2.275   7.476   2.219  0.5327  0.2923  0.4109
  159TIP3   OH2  421   3.589   0.142   3.985  0.1035 -0.3486 -0.1160
  159TIP3    H1  422   3.684   0.140   3.991  0.1243 -2.0146 -0.8323
  159TIP3    H2  423   3.570   0.217   3.929  0.9160  0.8226  1.1461
  160TIP3   OH2  424   0.700   7.625   0.620  0.3098  0.0680 -0.2634
  160TIP3    H1  425   0.771   7.675   0.580  0.7444  0.0142  0.4361
  160TIP3    H2  426   0.726   7.616   0.711 -0.6163  0.0734 -0.0012
  161TIP3   OH2  427   2.624   0.709   0.448 -0.3473  0.2276  0.2283
  161TIP3    H1  428   2.563   0.777   0.476 -1.4078  0.0542 -1.5785
  161TIP3    H2  429   2.568   0.639   0.415  0.7657 -1.1297  1.2104
  162TIP3   OH2  430   1.071   6.288   1.288 -0.2096 -0.2439 -0.1325
  162TIP3    H1  431   1.023   6.330   1.216  0.4873 -0.5194 -0.7629
  162TIP3    H2  432   1.158   6.328   1.285 -0.2364 -0.1024  0.7004
  163TIP3   OH2  433   6.695   2.521   2.948 -0.4501 -0.7634 -0.2949
  163TIP3    H1  434   6.697   2.568   2.865 -0.3606 -1.9383 -0.9798
  163TIP3    H2  435   6.712   2.587   3.014 -0.9126  0.2614 -1.1872
  164TIP3   OH2  436   4.281   0.955   2.178 -0.4513 -0.6042 -0.0941
  164TIP3    H1  437   4.247   0.906   2.103 -2.6712  1.7250 -0.6660
  164TIP3    H2  438   4.251   0.905   2.254 -1.3352 -0.9970 -0.6888
  165TIP3   OH2  439   2.478   7.927   1.779  0.7661  0.4664 -0.0642
  165TIP3    H1  440   2.535   7.970   1.843 -0.0635  1.1535  0.2223
  165TIP3    H2  441   2.414   7.879   1.832  0.0874  1.0248 -0.3788
  166TIP3   OH2  442   2.244   6.470   0.960 -0.6521  0.2381  0.1229
  166TIP3    H1  443   2.151   6.477   0.943 -0.6922  2.0590  1.0257
  166TIP3    H2  444   2.250   6.447   1.053 -0.2213 -0.7408 -0.1434
  167TIP3   OH2  445   1.864   7.096   2.650  0.1796  0.1288  0.5833
  167TIP3    H1  446   1.802   7.103   2.723 -1.0756  2.4586 -0.6720
  167TIP3    H2  447   1.899   7.007   2.658 -1.5213 -0.4068  2.7427
  168TIP3   OH2  448   1.722   7.227   0.209  0.5006  0.0718 -0.1960
  168TIP3    H1  449   1.756   7.138   0.219  1.0072  0.1619 -1.0635
  168TIP3    H2  450   1.782   7.282   0.259  0.9145  0.0730 -0.6835
  169TIP3   OH2  451   2.063   7.215   1.490  0.0851  0.3593  0.2034
  169TIP3    H1  452   2.004   7.151   1.450 -0.1456  0.1116  0.9192
  169TIP3    H2  453   2.009   7.259   1.556  0.1594  1.5211 -0.4985
  170TIP3   OH2  454   2.752   0.550   2.095 -0.1809  0.4484 -0.2595
  170TIP3    H1  455   2.789   0.622   2.147 -1.6144 -0.6927  2.4356
  170TIP3    H2  456   2.823   0.486   2.090  1.0671  1.9169 -2.5741
  171TIP3   OH2  457   5.721   4.303   6.343 -0.0810 -0.2380 -0.2921
  171TIP3    H1  458   5.696   4.364   6.273  2.3372 -0.8237 -1.7323
  171TIP3    H2  459   5.752   4.225   6.297 -1.4440 -1.8766  1.5079
  172TIP3   OH2  460   3.776   7.319   1.269 -0.2360 -0.1326  0.0794
  172TIP3    H1  461   3.843   7.349   1.208 -1.1950  0.6247 -0.6061
  172TIP3    H2  462   3.700   7.374   1.251 -0.2424  0.7560  2.5870
  173TIP3   OH2  463   0.362   6.047   2.974  0.2074  0.0207 -0.4431
  173TIP3    H1  464   0.297   6.107   2.937  2.0031  0.6100 -2.7479
  173TIP3    H2  465   0.355   5.968   2.921 -1.4311 -1.5133  1.9311
  174TIP3   OH2  466   2.518   7.450   0.374  0.1108 -0.1323 -0.1139
  174TIP3    H1  467   2.579   7.427   0.304 -0.2582 -2.3459  0.2475
  174TIP3    H2  468   2.435   7.465   0.328  0.0216 -0.9354 -0.2155
  175TIP3   OH2  469   6.323   4.184   6.734 -0.0749  0.2004 -0.3702
  175TIP3    H1  470   6.369   4.103   6.713  2.2396  1.3167  0.2058
  175TIP3    H2  471   6.289   4.215   6.651  0.0159 -0.7774 -0.7762
  176TIP3   OH2  472   2.129   0.353   1.014 -0.0556  0.6084 -0.4168
  176TIP3    H1  473   2.045   0.379   0.976  0.1438  1.3426 -0.3709
  176TIP3    H2  474   2.135   0.405   1.094  0.5860  0.7816 -0.5797
  177TIP3   OH2  475   6.205   0.307   1.873 -0.4278  0.3506  0.1488
  177TIP3    H1  476   6.221   0.220   1.835  0.9597  0.3157  0.7948
  177TIP3    H2  477   6.271   0.363   1.832  1.0567  0.3296  2.4446
  178TIP3   OH2  478   5.164   0.415   0.924 -0.5387  0.6423 -0.8047
  178TIP3    H1  479   5.207   0.461   0.996 -2.3389  0.7805  0.2183
  178TIP3    H2  480   5.220   0.429   0.848  0.8658  1.3406  0.3607
  179TIP3   OH2  481   4.535   1.484   0.140 -0.3124  0.2185 -0.0971
  179TIP3    H1  482   4.607   1.512   0.195  0.4710 -0.8514 -0.5732
  179TIP3    H2  483   4.564   1.504   0.051 -1.1844  1.0728 -0.2042
  180TIP3   OH2  484   3.191   1.942   2.002 -0.4618 -0.1623 -0.3878
  180TIP3    H1  485   3.189   2.032   1.970  0.0104 -0.0425 -0.0832
  180TIP3    H2  486   3.164   1.889   1.926 -2.2101  0.3390 -0.1520
  181TIP3   OH2  487   4.253   1.119   0.808  0.3472 -0.2785 -0.0820
  181TIP3    H1  488   4.327   1.174   0.781 -0.1761 -0.1923 -1.4144
  181TIP3    H2  489   4.293   1.035   0.831  0.7671 -0.6830 -2.1219
  182TIP3   OH2  490   3.908   2.009   1.470  0.5207 -0.0019 -0.1816
  182TIP3    H1  491   3.986   2.059   1.490  0.7137 -0.3215 -0.1288
  182TIP3    H2  492   3.912   1.995   1.375 -0.3801  1.4920 -0.4618
  183TIP3   OH2  493   4.364   0.839   1.321 -0.2198  0.1714  0.1532
  183TIP3    H1  494   4.454   0.851   1.289  0.0302  1.7840  1.3545
  183TIP3    H2  495   4.365   0.753   1.364  0.6351 -0.0291 -0.2509
  184TIP3   OH2  496   2.569   1.196   1.619 -0.2734 -0.0845  0.0380
  184TIP3    H1  497   2.631   1.229   1.684 -2.1996  0.4196  1.6777
  184TIP3    H2  498   2.596   1.106   1.603  0.8953  0.1381  0.7134
  185TIP3   OH2  499   2.291   6.978   1.030 -0.3480 -0.1845 -0.4745
  185TIP3    H1  500   2.204   6.985   1.070 -0.4776 -1.5884 -0.4793
  185TIP3    H2  501   2.330   7.064   1.043 -0.4800 -0.5074  2.4683
  186TIP3   OH2  502   1.569   3.107   4.977 -0.4957  0.2962 -0.0979
  186TIP3    H1  503   1.509   3.171   4.939  0.2356  0.5945 -0.7620
  186TIP3    H2  504   1.542   3.023   4.941 -0.3391  0.4669 -0.6167
  187TIP3   OH2  505   6.769   1.495   2.359  0.4313 -0.4608  0.0673
  187TIP3    H1  506   6.862   1.475   2.346  0.4695 -0.5235  0.4240
  187TIP3    H2  507   6.739   1.428   2.421  0.7214  0.9674  1.8032
  188TIP3   OH2  508   1.718   6.928   3.204 -0.3437  0.1723 -0.2026
  188TIP3    H1  509   1.693   7.008   3.251 -0.0430  0.5381 -0.6638
  188TIP3    H2  510   1.778   6.883   3.263  1.2456  1.3890 -0.8774
  189TIP3   OH2  511   4.887   7.235   0.161  0.1930 -0.0110 -0.4349
  189TIP3    H1  512   4.810   7.213   0.213  0.4113 -0.7043 -0.4052
  189TIP3    H2  513   4.917   7.319   0.197  2.1792 -1.9414  2.7129
  190TIP3   OH2  514   7.859   1.838   6.412 -0.1566 -0.5170  0.0391
  190TIP3    H1  515   7.852   1.864   6.504 -2.1795 -1.3345  0.1569
  190TIP3    H2  516   7.891   1.748   6.415  0.4543 -0.3042 -0.0886
  191TIP3   OH2  517   2.673   7.003   1.395  0.0197 -0.7112  0.0092
  191TIP3    H1  518   2.624   6.936   1.347  0.3113  0.2638 -1.6732
  191TIP3    H2  519   2.762   6.998   1.359 -0.4050  1.8404 -1.5065
  192TIP3   OH2  520   3.448   7.060   1.120  0.0068 -0.1553  0.0845
  192TIP3    H1  521   3.457   7.034   1.211  0.5971 -1.7012 -0.3860
  192TIP3    H2  522   3.513   7.007   1.073  0.3047  1.2275 -1.1243
  193TIP3   OH2  523   3.682   7.861   0.704  0.2226 -0.0205  0.1508
  193TIP3    H1  524   3.765   7.837   0.746  0.5387  0.8491  0.0455
  193TIP3    H2  525   3.654   7.782   0.658  0.3922 -0.6801  1.1654
  194TIP3   OH2  526   6.987   0.650   1.082 -0.5808 -0.5440  0.1808
  194TIP3    H1  527   6.944   0.565   1.073  1.3013 -1.6296  1.0295
  194TIP3    H2  528   7.026   0.648   1.170  0.4223  0.7450 -0.2163
  195TIP3   OH2  529   7.911   7.038   2.214 -0.6644  0.2095  0.1553
  195TIP3    H1  530   7.901   6.981   2.138  1.8260  0.7912 -0.6297
  195TIP3    H2  531   7.863   6.993   2.284 -2.7539 -0.4711 -1.6348
  196TIP3   OH2  532   4.155   7.650   0.805 -0.1252 -0.3403 -0.1735
  196TIP3    H1  533   4.229   7.594   0.829  0.3032  0.1698 -0.2830
  196TIP3    H2  534   4.195   7.722   0.756 -0.5479  0.5859  0.8159
  197TIP3   OH2  535   2.450   6.694   0.391  0.0307 -0.4987  0.2796
  197TIP3    H1  536   2.497   6.756   0.335 -0.1765 -1.0328 -0.4917
  197TIP3    H2  537   2.358   6.719   0.382 -0.2394 -1.9578 -1.3748
  198TIP3   OH2  538   5.201   2.684   3.039 -0.0757  0.2998 -0.0614
  198TIP3    H1  539   5.198   2.776   3.013  0.1735 -0.0069 -1.1927
  198TIP3    H2  540   5.213   2.636   2.957 -1.9149 -0.8552  0.3097
  199TIP3   OH2  541   5.848  -0.011   1.407 -0.1312  0.2906 -0.0698
  199TIP3    H1  542   5.817   0.070   1.448 -0.6314  0.1238 -0.1154
  199TIP3    H2  543   5.908   0.019   1.338 -1.0279  0.6687 -0.6960
  200TIP3   OH2  544   4.777   0.291   0.941  0.1344 -0.4111 -0.2151
  200TIP3    H1  545   4.709   0.229   0.913 -0.2110  0.1129 -0.5419
  200TIP3    H2  546   4.804   0.335   0.861 -1.0785  1.3125  0.2855
  201TIP3   OH2  547   6.155   0.795   1.295 -0.1363 -0.4460 -0.8136
  201TIP3    H1  548   6.233   0.837   1.257  0.8040 -2.3846 -1.0887
  201TIP3    H2  549   6.183   0.705   1.313 -1.4827 -0.3820  1.7319
  202TIP3   OH2  550   6.004   0.118   1.196 -0.0123  0.6126  0.0793
  202TIP3    H1  551   6.046   0.032   1.206 -0.9715  0.1750  0.4962
  202TIP3    H2  552   6.058   0.178   1.247  0.2680  0.1191  0.3665
  203TIP3   OH2  553   6.681   0.462   1.452  0.2950 -0.2889 -0.0923
  203TIP3    H1  554   6.649   0.393   1.394 -0.6642 -0.3373  0.4922
  203TIP3    H2  555   6.644   0.543   1.417 -2.9764 -0.6506  2.2846
  204TIP3   OH2  556   2.929   0.476   2.618  0.2127 -0.8228 -0.5088
  204TIP3    H1  557   2.996   0.497   2.553  0.7581  0.1606  0.3517
  204TIP3    H2  558   2.974   0.482   2.702 -1.4136  1.9009  0.2389
  205TIP3   OH2  559   2.417   7.955   1.157 -0.1212 -0.1488 -0.6927
  205TIP3    H1  560   2.456   7.877   1.197 -0.8792 -0.0978  0.1384
  205TIP3    H2  561   2.365   7.920   1.084 -1.5623 -0.5556  0.5052
  206TIP3   OH2  562   6.581   0.649   0.624 -0.2660  0.0665 -0.1371
  206TIP3    H1  563   6.663   0.602   0.611 -0.6294  0.0345 -2.4083
  206TIP3    H2  564   6.555   0.679   0.537 -2.1335  0.9880  0.6880
  207TIP3   OH2  565   4.046   1.791   1.248 -0.3246 -0.3858  0.5459
  207TIP3    H1  566   3.970   1.838   1.217 -0.0591  0.3133  0.9518
  207TIP3    H2  567   4.013   1.737   1.321  0.1146  2.0965  2.6451
  208TIP3   OH2  568   6.601   1.471   1.691 -0.9719 -0.5403  0.1063
  208TIP3    H1  569   6.643   1.412   1.752 -2.2684 -0.8694  0.7000
  208TIP3    H2  570   6.537   1.519   1.744 -1.1717  0.1155 -0.7180
  209TIP3   OH2  571   4.799   6.770   3.395 -0.4593 -0.4233 -0.0481
  209TIP3    H1  572   4.886   6.747   3.362  0.3112  1.1736  0.8161
  209TIP3    H2  573   4.814   6.797   3.485 -1.7212  0.7283 -0.1653
  210TIP3   OH2  574   5.903   0.628   2.252 -0.6106 -0.0905 -0.0751
  210TIP3    H1  575   5.817   0.633   2.294 -0.6202 -1.3229  0.0653
  210TIP3    H2  576   5.891   0.565   2.181  0.1670 -0.2459 -0.0696
  211TIP3   OH2  577   3.654   1.308   1.039 -0.0878  0.5648 -0.1733
  211TIP3    H1  578   3.680   1.400   1.042  1.9185  0.0516 -1.1906
  211TIP3    H2  579   3.688   1.276   0.955 -0.9544 -1.0615  0.0642
  212TIP3   OH2  580   1.313   6.269   5.269 -0.1672 -0.0823 -0.1723
  212TIP3    H1  581   1.388   6.319   5.302  0.6307  0.3785 -2.5710
  212TIP3    H2  582   1.350   6.183   5.247 -0.6726 -0.3701  0.1014
  213TIP3   OH2  583   1.973   7.985   2.426  0.2582 -0.4253  0.0662
  213TIP3    H1  584   1.879   7.971   2.432  0.2610 -0.0369  1.0847
  213TIP3    H2  585   2.010   7.941   2.503  0.5966  2.0324  1.3693
  214TIP3   OH2  586   1.524   0.755   2.382 -0.3298 -0.2942 -0.1862
  214TIP3    H1  587   1.442   0.797   2.357 -1.3777 -1.9124  0.4661
  214TIP3    H2  588   1.551   0.802   2.461 -1.6771 -1.0603  0.7470
  215TIP3   OH2  589   1.151   1.943   4.090  0.1944 -0.1027  0.1163
  215TIP3    H1  590   1.223   1.894   4.130  0.0302  0.1601  0.7209
  215TIP3    H2  591   1.112   1.880   4.028 -0.1265 -0.7954  1.0120
  216TIP3   OH2  592   3.619   1.787   0.750  0.3309  0.9167  0.0590
  216TIP3    H1  593   3.713   1.799   0.740  0.2044  1.6598 -0.2804
  216TIP3    H2  594   3.606   1.692   0.748  1.3150  0.7218  2.4473
  217TIP3   OH2  595   0.021   0.857   0.622  0.4058  0.4331 -0.7248
  217TIP3    H1  596  -0.015   0.791   0.563 -0.8258 -0.3534  0.8655
  217TIP3    H2  597   0.071   0.915   0.565 -1.6291  0.3190 -2.6985
  218TIP3   OH2  598   2.105   1.411   2.029 -0.1673  0.0946 -0.4464
  218TIP3    H1  599   2.153   1.402   1.947 -0.1537  0.1234 -0.4413
  218TIP3    H2  600   2.170   1.443   2.091 -0.2675  0.4256 -0.5134
  219TIP3   OH2  601   1.884   1.237   1.810  0.1182 -0.4995  0.4219
  219TIP3    H1  602   1.869   1.256   1.903 -1.0639  1.1532 -0.0716
  219TIP3    H2  603   1.885   1.324   1.769  2.8303 -1.0738 -0.8078
  220TIP3   OH2  604   7.603   7.659   1.512 -0.8136 -0.3013 -0.4047
  220TIP3    H1  605   7.678   7.700   1.469 -1.0226 -1.1174 -1.5733
  220TIP3    H2  606   7.566   7.728   1.567 -0.1196  0.5537 -0.9959
  221TIP3   OH2  607   4.146   0.451   2.303  0.3464  0.4143  0.1014
  221TIP3    H1  608   4.121   0.380   2.244 -1.1585 -0.4411  1.7076
  221TIP3    H2  609   4.236   0.430   2.328  0.5366  0.0713 -0.8417
  222TIP3   OH2  610   2.807   1.205   1.413  0.1719  0.0186 -0.0153
  222TIP3    H1  611   2.774   1.223   1.501 -2.7039 -2.5810 -0.4852
  222TIP3    H2  612   2.798   1.288   1.367  0.5628  1.0853  1.7988
  223TIP3   OH2  613   1.662   2.016   1.368 -0.4175 -0.1340 -0.0624
  223TIP3    H1  614   1.590   2.045   1.423  0.4650 -2.5101  2.4796
  223TIP3    H2  615   1.651   1.921   1.362  1.4896 -0.3211 -1.1462
  224TIP3   OH2  616   3.535   3.038   2.600  0.0015  0.0357 -0.2563
  224TIP3    H1  617   3.545   3.071   2.689 -1.4042  0.7269 -0.3386
  224TIP3    H2  618   3.621   3.049   2.560  0.3761  0.6613  0.7020
  225TIP3   OH2  619   0.121   2.735   2.173 -0.5536 -0.1091 -0.0051
  225TIP3    H1  620   0.176   2.656   2.176  0.4993  0.5028 -2.2480
  225TIP3    H2  621   0.130   2.774   2.260 -0.4920 -2.0385  0.8925
  226TIP3   OH2  622   7.462   0.754   2.136  0.1080  0.5042 -0.1270
  226TIP3    H1  623   7.459   0.805   2.055 -0.0554  0.7852  0.0556
  226TIP3    H2  624   7.370   0.737   2.157  0.2034 -1.2706 -1.0697
  227TIP3   OH2  625   2.817   3.482   1.640 -0.4932  0.3324  0.1075
  227TIP3    H1  626   2.894   3.476   1.697 -0.3467  0.2087 -0.1018
  227TIP3    H2  627   2.822   3.569   1.602  0.0034  0.0139 -0.5554
  228TIP3   OH2  628   1.274   2.059   2.101 -1.0009 -0.1442  0.4487
  228TIP3    H1  629   1.198   2.001   2.105  0.0144 -1.5946 -0.4591
  228TIP3    H2  630   1.278   2.086   2.009  0.8233 -1.8293  0.0090
  229TIP3   OH2  631   2.092   0.780   1.243 -0.3049 -0.0074 -0.5324
  229TIP3    H1  632   2.076   0.775   1.337  2.3699  0.0136 -0.0554
  229TIP3    H2  633   2.083   0.873   1.222  2.3768  0.4759  0.3354
  230TIP3   OH2  634   2.373   1.369   0.337  0.0631  0.6535  0.6622
  230TIP3    H1  635   2.359   1.287   0.384  3.5950  0.1102  0.8635
  230TIP3    H2  636   2.450   1.353   0.282  0.2340  3.5144 -0.0133
  231TIP3   OH2  637   1.083   0.949   1.157 -0.0337 -0.0969 -0.4321
  231TIP3    H1  638   1.170   0.988   1.146  0.4532  0.1819  3.5375
  231TIP3    H2  639   1.023   1.023   1.156 -0.1227 -0.1744 -1.9590
  232TIP3   OH2  640   1.576   0.159   1.404 -0.5598 -0.3903  0.3058
  232TIP3    H1  641   1.644   0.226   1.403  0.9522 -1.9087 -0.7957
  232TIP3    H2  642   1.593   0.108   1.483 -0.3530 -0.8310 -0.0213
  233TIP3   OH2  643   1.638   3.053   2.675 -0.0524 -0.1450  0.0996
  233TIP3    H1  644   1.567   3.101   2.631 -0.3873 -0.4243  0.3258
  233TIP3    H2  645   1.687   3.011   2.604 -0.7395 -0.7979 -0.0040
  234TIP3   OH2  646   8.264   1.675   3.594  0.0058 -0.7412 -0.4499
  234TIP3    H1  647   8.186   1.730   3.592 -0.4092 -1.3363 -0.8932
  234TIP3    H2  648   8.249   1.610   3.525 -0.0073 -2.0550  0.7593
  235TIP3   OH2  649   3.573   1.083   2.273 -0.6071  0.4064 -0.3615
  235TIP3    H1  650   3.652   1.137   2.264 -0.1737 -0.1035  0.3651
  235TIP3    H2  651   3.604   0.993   2.262 -1.2112  0.2452 -0.8050
  236TIP3   OH2  652   1.818   2.132   0.107 -0.4070  0.2599 -0.0187
  236TIP3    H1  653   1.872   2.202   0.142 -1.1502  0.9048 -0.1663
  236TIP3    H2  654   1.768   2.172   0.036 -0.7432 -0.4418 -0.1886
  237TIP3   OH2  655   8.471   1.149   1.238 -0.0035 -0.2301 -0.8723
  237TIP3    H1  656   8.476   1.175   1.146  2.5962 -0.8962 -0.9671
  237TIP3    H2  657   8.538   1.202   1.281 -1.1305 -0.0065  0.6349
  238TIP3   OH2  658   3.392   7.171   6.627 -0.2967  0.0473  0.1337
  238TIP3    H1  659   3.355   7.141   6.711 -0.6496 -0.6931 -0.2811
  238TIP3    H2  660   3.328   7.143   6.562 -0.3520  1.2360 -0.3195
  239TIP3   OH2  661   3.605   2.492   0.749 -0.0673 -0.0894 -0.0653
  239TIP3    H1  662   3.595   2.397   0.752  0.7888 -0.1788  0.3497
  239TIP3    H2  663   3.580   2.517   0.660  1.3396 -0.9220 -0.7170
  240TIP3   OH2  664   2.564   0.922   2.408  0.3653 -0.0620 -0.0711
  240TIP3    H1  665   2.539   0.876   2.489 -0.5401 -0.1420 -0.3950
  240TIP3    H2  666   2.553   0.856   2.339  1.2835 -0.0405 -0.2474
  241TIP3   OH2  667   2.687   3.093   3.430 -0.1330 -0.4060 -0.0504
  241TIP3    H1  668   2.720   3.180   3.453 -0.5895  0.4534 -2.4287
  241TIP3    H2  669   2.604   3.085   3.477  0.8599 -0.3867  1.7386
  242TIP3   OH2  670   0.536  -0.015   0.454 -0.7144 -0.1253  0.1548
  242TIP3    H1  671   0.456  -0.025   0.505 -1.3200  2.3452 -0.2505
  242TIP3    H2  672   0.563   0.076   0.467  1.3649 -0.5678 -0.6919
  243TIP3   OH2  673   0.958   1.999   1.287  0.8723 -0.2782 -0.5349
  243TIP3    H1  674   0.897   2.050   1.340 -0.4618 -0.1447 -2.1559
  243TIP3    H2  675   1.041   2.004   1.334 -0.0650  0.5810  1.0589
  244TIP3   OH2  676   2.288   2.645   1.850 -0.4132 -0.0979 -0.3088
  244TIP3    H1  677   2.349   2.678   1.915  0.2781  1.4121 -1.7091
  244TIP3    H2  678   2.292   2.549   1.859  0.9229  0.0549  0.7055
  245TIP3   OH2  679   2.186   3.019   3.096  0.2238 -0.3723  0.4231
  245TIP3    H1  680   2.234   3.028   3.178 -1.1219 -0.9242  1.2855
  245TIP3    H2  681   2.139   3.102   3.086  0.9377 -0.0291 -0.1641
  246TIP3   OH2  682   1.406   1.963   2.978  0.3323 -0.5050 -0.8097
  246TIP3    H1  683   1.329   2.000   3.022  1.2220  1.4004 -0.7921
  246TIP3    H2  684   1.472   2.032   2.984  1.4585 -1.4108 -2.4435
  247TIP3   OH2  685   1.059   1.979   5.271 -0.1370 -0.1241  0.3526
  247TIP3    H1  686   1.004   2.056   5.284  1.1429  0.8746 -0.0709
  247TIP3    H2  687   1.147   2.014   5.260  0.7967 -1.7646  2.2183
  248TIP3   OH2  688   1.442   2.682   4.014 -0.6183 -0.0181 -0.4856
  248TIP3    H1  689   1.514   2.717   4.066  2.1618 -2.4271 -2.5473
  248TIP3    H2  690   1.451   2.725   3.929 -3.0739  1.3915 -0.0694
  249TIP3   OH2  691   1.501   1.120   4.006  1.0970 -0.2836 -0.3332
  249TIP3    H1  692   1.580   1.173   4.002  0.9196  0.2203  1.9968
  249TIP3    H2  693   1.499   1.073   3.923  3.7455 -0.1670 -0.5096
  250TIP3   OH2  694   3.263   1.140   2.263  0.2856 -0.3292 -0.2108
  250TIP3    H1  695   3.259   1.230   2.230 -0.0766 -0.7400 -1.2927
  250TIP3    H2  696   3.356   1.119   2.268  0.3155 -0.9967 -2.9856
  251TIP3   OH2  697   0.866   1.135   1.446  0.7013 -0.0679  0.2013
  251TIP3    H1  698   0.902   1.056   1.487  0.0320 -0.0613  0.8105
  251TIP3    H2  699   0.782   1.149   1.490  1.8043  2.2338  1.6924
  252TIP3   OH2  700   2.583   1.595   1.689  0.2151  0.3076  0.0102
  252TIP3    H1  701   2.560   1.513   1.733  1.9627 -0.2786 -0.1125
  252TIP3    H2  702   2.590   1.571   1.597  1.1457  0.4899  0.0298
  253TIP3   OH2  703   1.727   2.602   3.969  0.2622  0.5702  0.5222
  253TIP3    H1  704   1.724   2.690   3.931  1.1522  0.1313 -0.5899
  253TIP3    H2  705   1.740   2.617   4.063  0.0978  1.6212  0.3900
  254TIP3   OH2  706   2.965   1.178   2.250 -0.1829  0.4970 -0.0239
  254TIP3    H1  707   3.048   1.138   2.224  0.1904  1.0831  0.2662
  254TIP3    H2  708   2.928   1.116   2.313  0.3941  0.5980  0.4224
  255TIP3   OH2  709   1.019   4.710   1.623 -0.0105 -0.4852 -0.5330
  255TIP3    H1  710   0.975   4.661   1.693  1.1920 -1.3397 -0.3553
  255TIP3    H2  711   0.956   4.711   1.551 -0.7811 -0.6703  0.1254
  256TIP3   OH2  712   1.422   1.596   1.120  0.3752  0.1206 -0.2755
  256TIP3    H1  713   1.363   1.525   1.093  0.0544 -0.5238  2.0257
  256TIP3    H2  714   1.363   1.665   1.151  0.7847 -0.4762  1.9162
  257TIP3   OH2  715   0.969   2.235   3.256 -0.3256 -0.5457 -0.3290
  257TIP3    H1  716   1.057   2.269   3.267 -1.2621  1.4510  1.3330
  257TIP3    H2  717   0.971   2.148   3.296  0.5632 -0.0076  0.7936
  258TIP3   OH2  718   3.528   0.835   1.322 -0.2876  0.2711  0.1509
  258TIP3    H1  719   3.571   0.920   1.311 -0.0678  0.2517  0.8470
  258TIP3    H2  720   3.465   0.849   1.394 -0.1026 -0.2112  0.4061
  259TIP3   OH2  721   6.589   7.770   1.698 -0.5093  0.2362 -0.3115
  259TIP3    H1  722   6.529   7.759   1.771 -0.8795  0.8109 -0.5206
  259TIP3    H2  723   6.576   7.692   1.644 -0.4198 -0.0645  0.0982
  260TIP3   OH2  724   0.281   1.168   1.682  0.3878  0.6960 -0.0350
  260TIP3    H1  725   0.342   1.109   1.728  1.5486 -0.2444 -2.6920
  260TIP3    H2  726   0.199   1.118   1.676  1.1064 -0.3552 -1.5000
  261TIP3   OH2  727   1.074   3.482   1.159 -0.3637  0.4824 -0.4527
  261TIP3    H1  728   1.048   3.558   1.211 -0.1071  0.4428 -0.2639
  261TIP3    H2  729   1.164   3.502   1.132 -0.9690  1.1480 -2.0567
  262TIP3   OH2  730   1.453   3.695   1.830 -0.3509  0.1677 -0.1569
  262TIP3    H1  731   1.378   3.641   1.806 -0.3264 -0.4055  0.9889
  262TIP3    H2  732   1.466   3.754   1.756 -1.4289 -0.2723 -0.7010
  263TIP3   OH2  733   0.759   1.287   2.840  0.0882  0.8767  0.7339
  263TIP3    H1  734   0.769   1.379   2.861  1.8552  0.4293  1.9101
  263TIP3    H2  735   0.804   1.276   2.756  0.0664  1.0212  0.7038
  264TIP3   OH2  736   5.584   3.136   1.147 -0.6159 -0.2907  0.1695
  264TIP3    H1  737   5.540   3.082   1.212 -2.5907 -1.3472 -1.9608
  264TIP3    H2  738   5.524   3.210   1.133  0.4465  0.6515  0.5446
  265TIP3   OH2  739   2.753   1.830   1.915  0.2708  0.1375  0.3560
  265TIP3    H1  740   2.753   1.898   1.983  1.6908  0.0553  0.4507
  265TIP3    H2  741   2.779   1.750   1.961  1.7628  0.1944 -0.3806
  266TIP3   OH2  742   1.772   3.838   1.726  0.1690  0.0395 -0.6987
  266TIP3    H1  743   1.857   3.830   1.682  0.6528  0.7850  0.0832
  266TIP3    H2  744   1.708   3.830   1.655  0.9256  0.6936 -1.4693
  267TIP3   OH2  745   3.495   1.905   2.406  0.6484  0.0338 -0.1042
  267TIP3    H1  746   3.418   1.905   2.462  0.9024 -1.6995  0.2926
  267TIP3    H2  747   3.467   1.951   2.327 -0.1749  1.1473  0.8229
  268TIP3   OH2  748   1.769   1.700   3.160  0.2560 -0.2842 -0.2326
  268TIP3    H1  749   1.724   1.716   3.077 -0.3666 -0.7755  0.0002
  268TIP3    H2  750   1.723   1.755   3.224  0.6146 -0.0449 -0.1836
  269TIP3   OH2  751   1.443   0.325   0.413 -0.3267 -0.0905  0.3080
  269TIP3    H1  752   1.370   0.280   0.372 -0.8416  0.2257  0.8676
  269TIP3    H2  753   1.502   0.346   0.341 -0.9771  0.0126 -0.1976
  270TIP3   OH2  754   1.628   0.862   1.738  0.1177 -0.2998  0.5364
  270TIP3    H1  755   1.699   0.800   1.722  0.3655 -0.4691  2.2444
  270TIP3    H2  756   1.593   0.881   1.651  0.7761 -1.9600 -0.1079
  271TIP3   OH2  757   2.806   0.269   1.239 -0.5327  0.1196 -0.1879
  271TIP3    H1  758   2.804   0.198   1.304  0.5232 -2.0780 -2.4431
  271TIP3    H2  759   2.724   0.259   1.190 -0.3189  0.3541 -0.6026
  272TIP3   OH2  760   5.664   5.654   6.545  0.1531 -0.0039  0.4108
  272TIP3    H1  761   5.718   5.707   6.604 -2.2188  1.1181  1.6210
  272TIP3    H2  762   5.668   5.702   6.462  2.2084 -0.7403  0.0468
  273TIP3   OH2  763   0.134   1.332   1.355  0.2626 -0.4051 -0.5096
  273TIP3    H1  764   0.093   1.331   1.441  2.4562 -0.3885  0.5677
  273TIP3    H2  765   0.149   1.424   1.335  1.5942 -0.4960  0.0136
  274TIP3   OH2  766   4.188   3.527   4.217 -0.0624 -0.0541  0.9284
  274TIP3    H1  767   4.252   3.542   4.147  0.0211  1.1204  1.2478
  274TIP3    H2  768   4.117   3.588   4.197 -0.1343  0.1327  1.7484
  275TIP3   OH2  769   2.226   3.059   1.441  0.1126 -0.0528  0.1668
  275TIP3    H1  770   2.228   2.964   1.434  2.8275  0.1168 -2.5584
  275TIP3    H2  771   2.317   3.084   1.459 -1.1612  1.8677  4.7235
  276TIP3   OH2  772   2.568   3.352   1.504  0.1703  0.2486 -0.4918
  276TIP3    H1  773   2.552   3.276   1.447 -2.0542 -0.2821  0.7941
  276TIP3    H2  774   2.628   3.319   1.571 -1.4884 -0.6462  0.5773
  277TIP3   OH2  775   0.859   1.645   0.713 -0.0657  0.0076  0.2074
  277TIP3    H1  776   0.867   1.570   0.772  0.0107  0.3595  0.6429
  277TIP3    H2  777   0.928   1.632   0.648 -0.9928 -1.0724 -0.5630
  278TIP3   OH2  778   1.462   2.651   2.185  0.7222 -0.4026 -0.2118
  278TIP3    H1  779   1.409   2.585   2.230 -0.3067  1.2775  1.1113
  278TIP3    H2  780   1.546   2.650   2.231  0.3832 -0.1180  0.4106
  279TIP3   OH2  781   1.485   3.929   1.963 -0.0529 -0.1203 -0.0503
  279TIP3    H1  782   1.544   3.952   2.035  1.1173 -0.3537 -0.9266
  279TIP3    H2  783   1.493   3.834   1.956  0.2916 -0.0388 -0.8623
  280TIP3   OH2  784   1.623   2.097   3.786 -0.1498  0.8045  0.1797
  280TIP3    H1  785   1.614   2.185   3.749  1.9068  1.0914  0.2962
  280TIP3    H2  786   1.637   2.040   3.711 -1.9015  0.5056  0.0722
  281TIP3   OH2  787   2.884   2.645   1.622  0.0022  0.6790  0.0164
  281TIP3    H1  788   2.828   2.691   1.559  0.2895  0.4617 -0.3972
  281TIP3    H2  789   2.959   2.615   1.571  0.1228  0.2960  0.4144
  282TIP3   OH2  790   2.538   3.532   2.723  0.5278  0.0572 -0.4702
  282TIP3    H1  791   2.540   3.627   2.735  0.7220  0.1879 -1.5334
  282TIP3    H2  792   2.501   3.498   2.805 -0.2298  1.0896 -0.3851
  283TIP3   OH2  793   1.036   0.720   2.498  0.5835 -0.6478 -0.6386
  283TIP3    H1  794   1.114   0.773   2.485  0.2191  0.2063  0.6575
  283TIP3    H2  795   1.069   0.630   2.505  1.6208 -0.1158  1.5797
  284TIP3   OH2  796   4.586   2.039   2.886 -0.3337 -0.2308  0.5230
  284TIP3    H1  797   4.579   2.135   2.886 -1.1524 -0.2629 -1.0729
  284TIP3    H2  798   4.679   2.022   2.873 -0.5467  0.4132 -2.3931
  285TIP3   OH2  799   5.540   2.438   1.984  0.0740 -0.2661  0.2946
  285TIP3    H1  800   5.467   2.412   2.041  0.8452 -0.4131  1.2314
  285TIP3    H2  801   5.523   2.530   1.964  0.0870 -0.0506  1.2337
  286TIP3   OH2  802   6.117   5.337   6.807 -0.8344  0.0186 -0.1934
  286TIP3    H1  803   6.063   5.301   6.737 -1.2459 -0.4551  0.3679
  286TIP3    H2  804   6.063   5.405   6.847 -0.7321  0.0550 -0.1145
  287TIP3   OH2  805   2.865   0.869   2.838  0.0620  0.1571  0.5698
  287TIP3    H1  806   2.838   0.961   2.840  0.2512  0.1923  1.6044
  287TIP3    H2  807   2.891   0.854   2.747  0.5035  1.2632  0.5038
  288TIP3   OH2  808   5.399   1.090   2.263 -0.1707 -0.2966  0.1926
  288TIP3    H1  809   5.378   1.171   2.310  0.7244  0.3487 -0.4923
  288TIP3    H2  810   5.494   1.093   2.252 -0.2962 -0.7493 -1.0655
  289TIP3   OH2  811   3.300   1.128   2.690 -0.3802  0.1063 -0.7399
  289TIP3    H1  812   3.269   1.215   2.666  0.5328  0.4880 -0.5176
  289TIP3    H2  813   3.304   1.080   2.607 -0.2680  0.4613 -0.9377
  290TIP3   OH2  814   1.760   1.223   0.432  0.4916 -0.6716 -0.4543
  290TIP3    H1  815   1.835   1.166   0.453 -0.7599 -2.1574  0.1169
  290TIP3    H2  816   1.685   1.176   0.467 -0.8229  0.3607 -1.8423
  291TIP3   OH2  817   5.526   6.121   6.936  0.0044  0.1261 -0.4261
  291TIP3    H1  818   5.529   6.194   6.874 -1.5665  0.2910 -0.3389
  291TIP3    H2  819   5.439   6.083   6.923 -0.0936 -0.2249  1.2396
  292TIP3   OH2  820   2.591   3.127   1.327 -0.3855  0.5784  0.2730
  292TIP3    H1  821   2.550   3.072   1.393 -1.2941 -0.0290 -0.7782
  292TIP3    H2  822   2.681   3.097   1.322 -0.5216  0.1100  0.6809
  293TIP3   OH2  823   3.637   1.700   0.420 -0.1734  0.2766 -0.0274
  293TIP3    H1  824   3.553   1.687   0.465 -1.4019  0.7572 -2.0746
  293TIP3    H2  825   3.618   1.678   0.328  1.3718  2.4619 -0.9202
  294TIP3   OH2  826   3.312   0.586   1.943 -0.1976 -0.2910  0.4582
  294TIP3    H1  827   3.308   0.641   1.864 -3.0293 -0.7829  0.1989
  294TIP3    H2  828   3.309   0.647   2.016  2.5934  0.1783  0.2218
  295TIP3   OH2  829   5.994   0.891   0.305  0.0678 -0.1802  0.0754
  295TIP3    H1  830   6.049   0.915   0.231 -0.0114  1.1907  0.4331
  295TIP3    H2  831   5.915   0.854   0.266  0.1436  0.2767 -0.5145
  296TIP3   OH2  832   2.820   1.045   2.473 -0.3186  0.3351  0.1105
  296TIP3    H1  833   2.740   1.018   2.428 -0.1091  0.1686 -0.1570
  296TIP3    H2  834   2.846   0.969   2.525  0.2974  0.0044 -0.6799
  297TIP3   OH2  835   4.631   2.287   4.715 -0.3532  0.1079 -0.2901
  297TIP3    H1  836   4.700   2.352   4.728  0.1895  0.0460 -2.5993
  297TIP3    H2  837   4.678   2.205   4.700 -0.9957 -0.4799  0.8686
  298TIP3   OH2  838   1.448   5.257   6.188 -0.4403 -0.4250 -0.4266
  298TIP3    H1  839   1.410   5.235   6.103 -0.5546 -0.6520 -0.3189
  298TIP3    H2  840   1.539   5.280   6.169 -0.1139 -1.7113 -0.4533
  299TIP3   OH2  841   2.195   0.488   2.174 -0.1393 -0.3194 -0.0066
  299TIP3    H1  842   2.152   0.558   2.223  1.4161  0.3861  0.3987
  299TIP3    H2  843   2.273   0.529   2.136  0.5871 -1.7231 -0.0928
  300TIP3   OH2  844   6.536   5.881   6.647 -0.2636  0.2388 -0.0338
  300TIP3    H1  845   6.547   5.926   6.563  0.9970  0.0942  0.0475
  300TIP3    H2  846   6.530   5.789   6.624  1.5648  0.0586  0.1326
  301TIP3   OH2  847   2.222   3.256   4.399 -0.1614 -0.3461  0.0100
  301TIP3    H1  848   2.258   3.336   4.361  1.2686 -0.2724  1.4979
  301TIP3    H2  849   2.146   3.236   4.344  0.1027  1.4214 -1.0345
  302TIP3   OH2  850   4.940   0.130   1.337 -0.0388  0.4423  0.4526
  302TIP3    H1  851   4.869   0.072   1.312  0.9962 -0.8913  0.5717
  302TIP3    H2  852   4.975   0.162   1.254  0.0631  0.0808  0.3565
  303TIP3   OH2  853   7.611   4.608   6.887 -0.0942 -0.4875 -0.7095
  303TIP3    H1  854   7.586   4.682   6.832  0.6247  0.7447  0.5959
  303TIP3    H2  855   7.536   4.548   6.882 -1.4696  1.1643 -0.3054
  304TIP3   OH2  856   4.930   0.497   1.186  0.2791 -0.2267 -0.3614
  304TIP3    H1  857   4.985   0.419   1.182 -2.2496 -2.1429  0.6320
  304TIP3    H2  858   4.877   0.485   1.265 -0.7014  2.1070 -0.6340
  305TIP3   OH2  859   7.453   2.582   1.240  0.0707 -0.1642  0.3343
  305TIP3    H1  860   7.488   2.494   1.256 -3.0937 -1.5787  0.0446
  305TIP3    H2  861   7.391   2.596   1.312 -0.0504  1.4862 -0.0738
  306TIP3   OH2  862   6.072   2.962   0.285 -0.1079 -0.1934  0.1309
  306TIP3    H1  863   6.025   3.030   0.334  0.8323 -1.5520  3.0662
  306TIP3    H2  864   6.008   2.892   0.273 -0.0972 -0.2149  0.1991
  307TIP3   OH2  865   4.417   0.195   1.332 -0.1387 -0.1492  0.1165
  307TIP3    H1  866   4.478   0.198   1.258 -0.9127  1.4887 -0.4761
  307TIP3    H2  867   4.333   0.172   1.292 -0.1047 -1.4895  0.8033
  308TIP3   OH2  868   7.109   2.902   1.679 -0.2681 -0.1177  0.0486
  308TIP3    H1  869   7.037   2.956   1.645 -1.3357 -2.0233 -0.7587
  308TIP3    H2  870   7.068   2.818   1.700  1.5762 -0.9516  0.3878
  309TIP3   OH2  871   5.547   2.757   4.435  0.7327  0.0480  0.4099
  309TIP3    H1  872   5.609   2.779   4.365  0.3942 -4.0004 -1.2563
  309TIP3    H2  873   5.465   2.798   4.408  1.1410  0.3264 -0.4269
  310TIP3   OH2  874   4.352   2.127   0.311  0.3765  0.3794 -0.3044
  310TIP3    H1  875   4.402   2.055   0.272  1.1708  1.2544 -0.9320
  310TIP3    H2  876   4.323   2.093   0.396  1.7262 -0.2837 -0.0953
  311TIP3   OH2  877   3.798   3.252   0.774  0.4119  0.0071 -0.1017
  311TIP3    H1  878   3.833   3.176   0.727 -0.2517  0.0279 -0.6303
  311TIP3    H2  879   3.817   3.326   0.716 -0.8418 -0.0277 -0.5672
  312TIP3   OH2  880   4.011   2.212   0.580  0.0020  0.1936 -0.4617
  312TIP3    H1  881   4.098   2.205   0.618  0.4136  2.5828 -0.8649
  312TIP3    H2  882   4.023   2.196   0.487 -0.4018 -1.8867 -0.1764
  313TIP3   OH2  883   5.022   2.644   1.275  0.4191  0.1720 -0.2326
  313TIP3    H1  884   5.047   2.558   1.308  1.3677  0.0812 -1.1683
  313TIP3    H2  885   5.053   2.646   1.185  0.7875  1.6478 -0.0986
  314TIP3   OH2  886   5.115   1.612   2.412  0.2720  0.2287 -0.7758
  314TIP3    H1  887   5.080   1.534   2.455  1.5915  0.4482  0.7299
  314TIP3    H2  888   5.046   1.678   2.423  0.6077  0.3001  1.0814
  315TIP3   OH2  889   3.942   0.454   1.178 -0.9268  0.4179 -0.0568
  315TIP3    H1  890   3.878   0.503   1.127  0.7222  3.6295  0.7637
  315TIP3    H2  891   3.899   0.436   1.261 -1.0896  1.8359  0.1815
  316TIP3   OH2  892   2.761   7.631   0.366 -0.0724  0.0985 -0.2507
  316TIP3    H1  893   2.801   7.717   0.379  0.3576  0.1941 -2.1341
  316TIP3    H2  894   2.705   7.641   0.290 -0.2782 -1.2074 -0.2858
  317TIP3   OH2  895   0.804   6.060   6.615  0.0379  0.5004  0.8890
  317TIP3    H1  896   0.802   6.021   6.703  0.8886  0.5268  0.9202
  317TIP3    H2  897   0.797   5.986   6.555 -2.7857  0.6334  0.9818
  318TIP3   OH2  898   6.816   1.785   0.819  0.0512 -0.3943 -0.1167
  318TIP3    H1  899   6.878   1.825   0.758 -1.9910 -0.2197 -2.1061
  318TIP3    H2  900   6.805   1.696   0.787  0.6782 -1.0152  1.3360
  319TIP3   OH2  901   5.239   1.333   1.263 -0.3804  0.3086  0.2489
  319TIP3    H1  902   5.281   1.408   1.220  0.9356  0.2343  1.3451
  319TIP3    H2  903   5.224   1.363   1.353  1.4177 -1.1861  1.0830
  320TIP3   OH2  904   4.424   0.255   0.111  0.3629  0.6089 -0.3590
  320TIP3    H1  905   4.485   0.232   0.181  0.6282 -0.5391 -0.9529
  320TIP3    H2  906   4.343   0.279   0.157  0.5350 -0.1373  0.3421
  321TIP3   OH2  907   1.615   3.575   3.500 -0.1687  0.2129 -0.0943
  321TIP3    H1  908   1.657   3.588   3.415 -1.1345  2.2258 -0.2990
  321TIP3    H2  909   1.543   3.638   3.501  0.0870  0.5122  2.3845
  322TIP3   OH2  910   4.671   3.302   2.302 -0.2662 -0.2242  0.2860
  322TIP3    H1  911   4.721   3.220   2.292 -0.8179 -0.8127  2.0565
  322TIP3    H2  912   4.713   3.363   2.242  1.1070 -1.3835  0.0266
  323TIP3   OH2  913   3.525   2.006   1.658  0.0203 -0.0742  0.1946
  323TIP3    H1  914   3.575   2.008   1.740 -0.9669  1.1278  0.7850
  323TIP3    H2  915   3.452   1.946   1.676 -0.7860  0.9979  0.5623
  324TIP3   OH2  916   4.079   0.900   0.667  0.1993 -0.6276  0.5196
  324TIP3    H1  917   4.057   0.847   0.743 -0.1566 -0.0786  0.8029
  324TIP3    H2  918   4.101   0.986   0.703 -2.4699  0.4001 -0.1691
  325TIP3   OH2  919   2.654   1.468   2.380  0.1199  0.1615 -0.4724
  325TIP3    H1  920   2.590   1.435   2.443  1.2912 -1.7748 -0.2649
  325TIP3    H2  921   2.668   1.559   2.406 -0.9846 -0.0015  0.7518
  326TIP3   OH2  922   3.359   1.602   3.360 -0.2476 -0.6890  0.2024
  326TIP3    H1  923   3.306   1.610   3.439  0.8364  1.2509  0.7527
  326TIP3    H2  924   3.300   1.628   3.289 -1.0293 -1.8213  0.4206
  327TIP3   OH2  925   3.509   2.226   0.743 -1.3401 -0.2633  0.3374
  327TIP3    H1  926   3.557   2.244   0.661 -1.6674  1.2489  0.4794
  327TIP3    H2  927   3.545   2.142   0.773  1.5460  1.0436  0.6592
  328TIP3   OH2  928   4.244   0.895   1.885  0.4133  0.0644  0.4215
  328TIP3    H1  929   4.337   0.913   1.871  0.1501  2.0309  1.0242
  328TIP3    H2  930   4.203   0.911   1.800  0.2112  2.1630  0.9057
  329TIP3   OH2  931   3.559   2.906   0.543 -0.1933 -0.3760 -0.4819
  329TIP3    H1  932   3.506   2.903   0.463 -0.4574  0.6779 -0.3570
  329TIP3    H2  933   3.496   2.918   0.613 -0.0477 -2.3277  0.0102
  330TIP3   OH2  934   4.323   1.571   0.386  0.3483 -0.0843 -0.7835
  330TIP3    H1  935   4.360   1.603   0.304  1.0150 -1.2777 -0.9536
  330TIP3    H2  936   4.398   1.559   0.444 -0.0351 -0.0810 -0.2791
  331TIP3   OH2  937   6.407   6.447   6.143 -0.2462 -0.2212  0.4973
  331TIP3    H1  938   6.480   6.392   6.170 -0.8858 -0.3451  2.0065
  331TIP3    H2  939   6.358   6.393   6.081 -0.4993 -1.1179  1.4626
  332TIP3   OH2  940   3.496   0.933   0.563 -0.2299  0.1566  0.4301
  332TIP3    H1  941   3.548   0.948   0.643  0.4438  0.8093 -0.1202
  332TIP3    H2  942   3.405   0.934   0.593  0.0908 -1.5246  1.4960
  333TIP3   OH2  943   2.572   2.495   1.722  0.2171 -0.2655  0.6181
  333TIP3    H1  944   2.592   2.589   1.717  1.7775 -0.7190 -2.9688
  333TIP3    H2  945   2.655   2.454   1.748  0.2763 -0.8608 -0.4605
  334TIP3   OH2  946   2.914   1.079   0.976 -0.3819 -0.2919 -0.3200
  334TIP3    H1  947   2.831   1.044   1.010 -0.4218  0.4791  0.3962
  334TIP3    H2  948   2.887   1.148   0.915 -0.2592  2.0669  2.2044
  335TIP3   OH2  949   0.278   7.941   0.979 -0.1237 -0.2258  0.2177
  335TIP3    H1  950   0.241   8.025   0.950  0.7198 -0.7889 -2.6378
  335TIP3    H2  951   0.242   7.877   0.919 -1.5689 -2.1285  3.0286
  336TIP3   OH2  952   2.128   0.220   2.082 -0.2137 -0.2825  0.3822
  336TIP3    H1  953   2.107   0.283   2.150  0.1306 -0.6069  0.7919
  336TIP3    H2  954   2.223   0.225   2.072 -0.4275  0.9239 -1.2126
  337TIP3   OH2  955   3.962   1.699   2.125 -0.6971 -0.1056  0.3096
  337TIP3    H1  956   3.904   1.659   2.190 -0.1173 -1.5139 -0.0357
  337TIP3    H2  957   4.046   1.707   2.170 -0.8659  0.9541  0.4539
  338TIP3   OH2  958   8.020   4.006   5.840  0.0839  0.7473 -0.5680
  338TIP3    H1  959   7.936   3.960   5.845  0.5696 -0.2584 -1.6558
  338TIP3    H2  960   8.002   4.083   5.786 -0.6514  1.7057  0.9908
  339TIP3   OH2  961   5.509   4.723   6.511  0.5140  0.2788  0.3816
  339TIP3    H1  962   5.502   4.630   6.531 -0.5941 -0.1289 -1.7416
  339TIP3    H2  963   5.428   4.761   6.546  1.2404  0.5781  1.7901
  340TIP3   OH2  964   4.888   1.807   0.642 -0.3515  0.1339 -0.1841
  340TIP3    H1  965   4.950   1.770   0.704 -0.4147  2.0114  1.0301
  340TIP3    H2  966   4.915   1.772   0.557  1.1961 -0.5606  0.5831
  341TIP3   OH2  967   2.159   1.429   2.480  0.3271 -0.0430  0.2857
  341TIP3    H1  968   2.123   1.369   2.545  1.1159 -0.2393  0.5513
  341TIP3    H2  969   2.089   1.491   2.461 -0.2332 -0.5904  0.5831
  342TIP3   OH2  970   0.937   4.932   6.816  0.2408  0.0541  0.2200
  342TIP3    H1  971   1.008   4.885   6.860  0.5221  0.3353  0.0678
  342TIP3    H2  972   0.935   4.895   6.728  1.1778  1.0716 -0.2471
  343TIP3   OH2  973   3.295   0.876   1.489 -0.0155  0.0188  0.5362
  343TIP3    H1  974   3.207   0.838   1.486 -0.4569  1.0264  0.5970
  343TIP3    H2  975   3.287   0.961   1.446  0.6955  0.5651  1.4364
  344TIP3   OH2  976   4.794   2.250   0.777 -0.9947 -0.0355  0.0068
  344TIP3    H1  977   4.889   2.245   0.771 -0.9753  1.2504 -0.8930
  344TIP3    H2  978   4.764   2.168   0.738 -0.2634 -0.1983 -0.2310
  345TIP3   OH2  979   5.237   5.905   5.468 -0.8747 -0.0217 -0.3439
  345TIP3    H1  980   5.159   5.901   5.413 -1.3291  2.0993  0.1047
  345TIP3    H2  981   5.248   5.816   5.501 -2.7445 -0.4860 -0.9206
  346TIP3   OH2  982   8.324   5.897   3.735 -0.6062  0.3818  0.1389
  346TIP3    H1  983   8.344   5.820   3.682 -1.1603  1.5228 -1.7399
  346TIP3    H2  984   8.276   5.863   3.810  2.9887 -1.6821  1.6505
  347TIP3   OH2  985   4.175   2.515   2.213  0.7271  0.0189  0.4974
  347TIP3    H1  986   4.083   2.533   2.197  1.2116  2.3836  0.1096
  347TIP3    H2  987   4.182   2.420   2.210 -1.1796 -0.1029 -2.5143
  348TIP3   OH2  988   5.080   1.466   2.150  0.0755  0.4927 -0.2286
  348TIP3    H1  989   5.083   1.467   2.246  1.6381 -0.2171 -0.2549
  348TIP3    H2  990   5.101   1.555   2.124 -0.1341  0.6333  0.0838
  349TIP3   OH2  991   5.674   2.490   1.389  1.0013  0.1629  0.1490
  349TIP3    H1  992   5.628   2.431   1.329 -0.2929  2.3889 -1.1249
  349TIP3    H2  993   5.604   2.539   1.432  2.0940  1.6737  0.2122
  350TIP3   OH2  994   7.253   5.828   6.531 -0.4867 -0.6758 -0.4962
  350TIP3    H1  995   7.165   5.812   6.563 -1.0241  3.9409  0.6479
  350TIP3    H2  996   7.300   5.865   6.606  1.6839 -0.5869 -1.8435
  351TIP3   OH2  997   4.599   0.904   0.206 -0.0488 -0.1469 -0.3512
  351TIP3    H1  998   4.595   0.809   0.215  1.3335 -0.1663  0.0769
  351TIP3    H2  999   4.666   0.919   0.140  0.8877  0.5836  0.7494
  352TIP3   OH2 1000   4.153   2.122   1.026 -0.2920  0.3093  0.6242
  352TIP3    H1 1001   4.170   2.129   0.932 -0.5079 -0.6008  0.5195
  352TIP3    H2 1002   4.179   2.033   1.049 -0.0320  0.5965  1.4749
  353TIP3   OH2 1003   4.198   1.017   1.186  0.3639  0.0131  0.4429
  353TIP3    H1 1004   4.134   0.950   1.211  1.3282 -1.6223 -1.3189
  353TIP3    H2 1005   4.280   0.969   1.176  0.5054  0.9533 -3.5067
  354TIP3   OH2 1006   5.959   2.092   2.689  0.2265 -0.1253  0.0826
  354TIP3    H1 1007   5.947   2.121   2.780  1.8358  0.3308  0.1567
  354TIP3    H2 1008   5.981   2.171   2.641  3.2151 -0.9393  0.0215
  355TIP3   OH2 1009   3.412   1.232   1.576  0.5514  0.2733  0.3720
  355TIP3    H1 1010   3.383   1.156   1.527  1.0733  0.6906 -0.6050
  355TIP3    H2 1011   3.336   1.256   1.630 -0.3234  0.2848 -0.8245
  356TIP3   OH2 1012   3.578   3.283   2.066 -0.0823 -0.4451 -0.1458
  356TIP3    H1 1013   3.621   3.267   2.151  0.9566  1.4241 -0.2749
  356TIP3    H2 1014   3.544   3.372   2.074 -1.1307 -0.7406 -1.2431
  357TIP3   OH2 1015   3.170   1.707   1.334 -0.5035 -0.0184 -0.4033
  357TIP3    H1 1016   3.150   1.702   1.240 -0.8879 -2.3262 -0.2296
  357TIP3    H2 1017   3.155   1.618   1.366  0.4158  0.5629  1.6988
  358TIP3   OH2 1018   3.856   2.609   1.814  0.4320  0.2077 -0.8249
  358TIP3    H1 1019   3.761   2.616   1.825  0.4580 -0.6542 -0.0013
  358TIP3    H2 1020   3.876   2.519   1.838  1.6878  0.8684  0.7004
  359TIP3   OH2 1021   7.955   3.692   5.710  0.1581 -0.0098  0.1720
  359TIP3    H1 1022   8.030   3.747   5.685  0.0278  0.1619  0.1541
  359TIP3    H2 1023   7.891   3.706   5.641  0.2790 -0.4932 -0.0370
  360TIP3   OH2 1024   4.120   1.690   0.793  0.0440 -0.3120  0.0403
  360TIP3    H1 1025   4.068   1.770   0.782  1.0686  0.2454 -0.9167
  360TIP3    H2 1026   4.056   1.620   0.802 -0.8698  0.5403  0.2664
  361TIP3   OH2 1027   5.935   1.559   0.653  0.1075 -0.2743  0.5199
  361TIP3    H1 1028   5.984   1.478   0.637 -0.3181 -0.3371 -0.4473
  361TIP3    H2 1029   5.995   1.628   0.625  0.7063 -0.2154  1.9024
  362TIP3   OH2 1030   7.293   5.680   5.598  0.3483 -0.1058 -0.4063
  362TIP3    H1 1031   7.278   5.588   5.620  1.7985  0.3185  2.5613
  362TIP3    H2 1032   7.245   5.729   5.665 -0.4201  1.3210 -1.9678
  363TIP3   OH2 1033   5.026   0.271   0.457  0.3962 -0.3148 -0.1740
  363TIP3    H1 1034   5.096   0.206   0.462  0.4628 -0.2359 -0.0709
  363TIP3    H2 1035   4.947   0.223   0.482  0.3036 -0.5706 -0.9629
  364TIP3   OH2 1036   5.805   6.439   6.537  0.2955  0.3789 -0.3499
  364TIP3    H1 1037   5.843   6.352   6.525  1.1822  0.7209 -0.0790
  364TIP3    H2 1038   5.760   6.457   6.455 -0.1735 -0.4720 -0.2844
  365TIP3   OH2 1039   4.946   3.867   2.486  0.3309 -0.0839  0.3030
  365TIP3    H1 1040   4.997   3.926   2.543  2.0703 -0.9855 -0.2730
  365TIP3    H2 1041   4.926   3.921   2.410 -1.1454  0.8268  1.3119
  366TIP3   OH2 1042   4.579   0.748   0.956 -0.4949  0.1887  0.1568
  366TIP3    H1 1043   4.640   0.800   0.904 -0.6248  0.0768 -0.1069
  366TIP3    H2 1044   4.608   0.761   1.047  1.8392 -2.3354 -0.1606
  367TIP3   OH2 1045   4.553   2.961   1.988  0.4112  0.0998  0.4407
  367TIP3    H1 1046   4.550   2.886   1.930  0.9922  0.2171  0.2471
  367TIP3    H2 1047   4.509   3.031   1.940 -1.9722 -0.6617  1.4694
  368TIP3   OH2 1048   3.925   0.676   1.698 -0.0061 -0.3271  0.2740
  368TIP3    H1 1049   3.960   0.691   1.610  0.6988 -0.9341  0.4497
  368TIP3    H2 1050   3.876   0.756   1.717 -2.9335 -1.4994 -1.9552
  369TIP3   OH2 1051   5.468   4.515   2.094  0.0674  0.3437  0.4728
  369TIP3    H1 1052   5.396   4.514   2.031  0.1941  1.0606  0.3141
  369TIP3    H2 1053   5.539   4.468   2.051 -0.5713 -1.0834  0.9519
  370TIP3   OH2 1054   7.063   6.231   5.978  0.5294  0.1312  0.4722
  370TIP3    H1 1055   7.028   6.320   5.987 -0.1578 -0.0453 -0.3379
  370TIP3    H2 1056   7.093   6.227   5.887 -4.0002 -2.0242 -1.0994
  371TIP3   OH2 1057   2.004   0.553   1.857 -0.0149  0.6497  0.0054
  371TIP3    H1 1058   2.070   0.621   1.847  0.2907  0.2232 -0.9156
  371TIP3    H2 1059   2.055   0.472   1.869 -0.3105 -0.0663 -3.1311
  372TIP3   OH2 1060   5.029   3.257   2.245 -0.1276 -0.1287  0.5422
  372TIP3    H1 1061   5.028   3.215   2.158  0.2071 -1.6406  1.2469
  372TIP3    H2 1062   5.079   3.338   2.232  0.8344 -0.8646 -0.4517
  373TIP3   OH2 1063   3.630   3.133   0.252  0.2297  0.1549  0.7009
  373TIP3    H1 1064   3.577   3.062   0.288 -0.4419 -1.0788 -2.5560
  373TIP3    H2 1065   3.566   3.199   0.226  0.4713 -0.0777 -0.5382
  374TIP3   OH2 1066   3.844   3.845   1.705 -0.0438  0.1261 -0.1889
  374TIP3    H1 1067   3.926   3.847   1.754  0.3464  0.7700 -0.8473
  374TIP3    H2 1068   3.870   3.817   1.617 -0.4940  0.5025 -0.4471
  375TIP3   OH2 1069   5.072   0.369   2.418  0.1346  0.1259 -0.1599
  375TIP3    H1 1070   5.125   0.402   2.490  0.9501 -0.2122 -0.5988
  375TIP3    H2 1071   5.077   0.274   2.426  0.0156  0.0916 -0.5062
  376TIP3   OH2 1072   1.751   0.718   0.689 -0.3582  0.4257  0.6797
  376TIP3    H1 1073   1.722   0.716   0.780  0.4003 -0.2028  0.9192
  376TIP3    H2 1074   1.677   0.685   0.639 -0.0802 -1.1506  1.2781
  377TIP3   OH2 1075   2.761   0.062   0.704  0.0890 -0.1822  0.1400
  377TIP3    H1 1076   2.701   0.014   0.761  0.7603  1.1661  2.0421
  377TIP3    H2 1077   2.796  -0.003   0.644 -2.2379 -1.2435 -0.1196
  378TIP3   OH2 1078   3.206   2.916   2.528 -0.5715 -0.0048  0.1588
  378TIP3    H1 1079   3.249   2.987   2.480 -0.1848 -0.8121 -0.7023
  378TIP3    H2 1080   3.269   2.844   2.526 -1.2533 -0.6087  0.4085
  379TIP3   OH2 1081   4.064   1.176   0.994  0.0771  0.4071  0.1592
  379TIP3    H1 1082   4.123   1.177   0.919  0.3813  1.1368  0.3981
  379TIP3    H2 1083   4.106   1.119   1.058  1.2848  2.0968  0.9136
  380TIP3   OH2 1084   7.435   5.360   5.865 -0.6158 -0.0149  0.2490
  380TIP3    H1 1085   7.390   5.391   5.787  1.9866  0.7466 -1.0280
  380TIP3    H2 1086   7.463   5.271   5.843  0.8543  0.5037 -0.0451
  381TIP3   OH2 1087   4.204   0.768   0.030 -0.0891 -0.5491 -0.4960
  381TIP3    H1 1088   4.163   0.735   0.110  2.1906  0.8227  1.3007
  381TIP3    H2 1089   4.214   0.862   0.044  4.2744 -0.9007 -0.4630
  382TIP3   OH2 1090   4.102   3.005   2.109  0.1950  0.1194 -0.3033
  382TIP3    H1 1091   4.092   3.017   2.204 -0.6704  0.4716 -0.4260
  382TIP3    H2 1092   4.041   2.934   2.087 -0.6280  0.9533 -0.7869
  383TIP3   OH2 1093   5.952   1.080   0.525  0.3787 -0.1308  0.6424
  383TIP3    H1 1094   5.891   1.026   0.576  0.3350 -1.0288 -0.3422
  383TIP3    H2 1095   5.989   1.020   0.461 -0.7195  1.3032 -1.4091
  384TIP3   OH2 1096   5.107   2.479   2.547 -0.5240 -0.2428 -0.1658
  384TIP3    H1 1097   5.174   2.477   2.478 -1.2636 -0.0036 -0.8908
  384TIP3    H2 1098   5.157   2.475   2.628  0.3130 -1.5074 -0.7244
  385TIP3   OH2 1099   2.544   0.541   2.907  0.1715 -0.3149 -0.5255
  385TIP3    H1 1100   2.532   0.467   2.966  1.8946  0.4503  0.8274
  385TIP3    H2 1101   2.577   0.502   2.826 -0.9676 -1.2250 -0.5724
  386TIP3   OH2 1102   5.829   3.443   3.648 -0.5352 -0.2614  0.0963
  386TIP3    H1 1103   5.818   3.433   3.553 -2.8071 -2.1226  0.4945
  386TIP3    H2 1104   5.750   3.489   3.676 -1.6399 -2.9419  1.5277
  387TIP3   OH2 1105   2.432   1.258   3.718 -0.1844 -0.3418 -0.2814
  387TIP3    H1 1106   2.384   1.179   3.743 -1.0772  0.7889  1.7547
  387TIP3    H2 1107   2.491   1.275   3.791 -0.1515  0.9836 -0.5979
  388TIP3   OH2 1108   4.229   1.786   2.174  0.3730  0.2660  0.3917
  388TIP3    H1 1109   4.232   1.773   2.079 -0.9615 -0.7860  0.4836
  388TIP3    H2 1110   4.269   1.872   2.188 -1.7967  1.6054 -1.3716
  389TIP3   OH2 1111   0.131   5.659   6.604 -0.1807  0.1382  0.3914
  389TIP3    H1 1112   0.204   5.661   6.543  0.3143  0.1053  0.9806
  389TIP3    H2 1113   0.096   5.748   6.603 -0.4232  0.0404 -0.2339
  390TIP3   OH2 1114   4.256   3.041   0.868  0.1478  0.2414  0.5859
  390TIP3    H1 1115   4.349   3.022   0.860  0.3369  0.9841  0.9495
  390TIP3    H2 1116   4.253   3.130   0.904 -0.7059  0.9879 -1.2974
  391TIP3   OH2 1117   6.788   2.774   1.469  0.4307  0.3024 -0.2700
  391TIP3    H1 1118   6.835   2.812   1.395  2.3630 -0.1144  0.7072
  391TIP3    H2 1119   6.814   2.681   1.469 -1.6917 -0.3295 -0.6786
  392TIP3   OH2 1120   6.651   4.689   6.656  0.6335 -0.1496  0.4324
  392TIP3    H1 1121   6.639   4.783   6.665  2.3453  0.0664  0.6468
  392TIP3    H2 1122   6.562   4.653   6.659 -0.0450  1.4627  0.1492
  393TIP3   OH2 1123   4.004   2.167   0.312  0.3339 -0.6426  0.4490
  393TIP3    H1 1124   4.034   2.201   0.227  0.8483 -1.2787  0.3820
  393TIP3    H2 1125   3.997   2.073   0.299 -2.2704 -0.4716  0.2754
  394TIP3   OH2 1126   4.243   1.869   3.856  0.0409  0.3213  0.0899
  394TIP3    H1 1127   4.271   1.952   3.817 -0.1859 -0.2863 -1.4082
  394TIP3    H2 1128   4.148   1.869   3.847  0.0189  0.0055  0.3004
  395TIP3   OH2 1129   5.270   1.902   0.601 -0.1939 -0.7299 -0.2452
  395TIP3    H1 1130   5.339   1.968   0.602 -1.4041  0.5919 -1.8631
  395TIP3    H2 1131   5.293   1.845   0.527 -1.3869  0.3252 -1.4395
  396TIP3   OH2 1132   4.611   2.501   2.023 -0.1939  0.6544 -0.0823
  396TIP3    H1 1133   4.544   2.562   2.055 -1.3658 -1.1331  0.8970
  396TIP3    H2 1134   4.562   2.430   1.982  1.2079  1.0280 -2.4878
  397TIP3   OH2 1135   5.572   3.553   3.117 -0.4955 -0.0509 -0.1946
  397TIP3    H1 1136   5.549   3.644   3.099  0.9822  0.1212 -1.3623
  397TIP3    H2 1137   5.491   3.504   3.101 -2.0131  1.2771  2.8622
  398TIP3   OH2 1138   0.851   4.946   6.017  0.0036  0.3487 -0.1368
  398TIP3    H1 1139   0.860   4.921   5.925  0.6236 -1.8312  0.4834
  398TIP3    H2 1140   0.763   4.916   6.041 -0.3052  1.2620 -0.1235
  399TIP3   OH2 1141   5.596   3.020   1.463 -0.0359  0.1086  0.7127
  399TIP3    H1 1142   5.592   2.938   1.511  3.0120 -0.6805 -0.2883
  399TIP3    H2 1143   5.689   3.035   1.447 -0.4689  3.8703  1.0483
  400TIP3   OH2 1144   5.074   2.566   3.243  0.3346 -0.1932 -0.1791
  400TIP3    H1 1145   5.128   2.598   3.171  1.2749  0.1127  0.6389
  400TIP3    H2 1146   5.135   2.562   3.318 -0.2289 -2.0821  0.1882
  401TIP3   OH2 1147   0.145   7.864   2.139  0.3381  0.3737 -0.0068
  401TIP3    H1 1148   0.100   7.821   2.211 -0.1483  0.3969 -0.2891
  401TIP3    H2 1149   0.212   7.918   2.180  0.6899 -0.3393  0.3731
  402TIP3   OH2 1150   5.105   0.874   0.325  0.2936 -0.3408 -0.2632
  402TIP3    H1 1151   5.179   0.932   0.342 -1.3024  1.6580  0.0934
  402TIP3    H2 1152   5.066   0.859   0.412 -0.2199 -0.6817 -0.5492
  403TIP3   OH2 1153   5.963   0.231   0.635 -0.0628 -0.5006  0.7989
  403TIP3    H1 1154   6.008   0.149   0.654 -2.0210 -1.4396  1.4974
  403TIP3    H2 1155   5.881   0.226   0.685 -0.5646  1.5277  0.2328
  404TIP3   OH2 1156   0.731   2.248   2.374 -0.1207 -0.7300  0.3070
  404TIP3    H1 1157   0.744   2.188   2.447  2.1064 -0.7941 -0.1219
  404TIP3    H2 1158   0.761   2.333   2.407 -0.8441 -0.3664  0.0574
  405TIP3   OH2 1159   5.017   4.876   6.373 -0.0430  0.4839 -0.0889
  405TIP3    H1 1160   5.012   4.926   6.454 -0.7372  0.5635 -0.1824
  405TIP3    H2 1161   5.079   4.925   6.318  0.5136  0.3655  0.4323
  406TIP3   OH2 1162   0.801   6.388   1.193  0.2116  0.2047 -0.3653
  406TIP3    H1 1163   0.775   6.474   1.225 -1.1417  0.0560 -1.0255
  406TIP3    H2 1164   0.818   6.337   1.272  1.3910  1.1738  0.0256
  407TIP3   OH2 1165   6.257   5.500   6.638 -0.7547  0.3169  1.1251
  407TIP3    H1 1166   6.242   5.429   6.701 -0.3500  0.5724  1.5170
  407TIP3    H2 1167   6.206   5.573   6.673 -3.6989 -0.6642 -0.9233
  408TIP3   OH2 1168   2.403   0.234   2.957 -0.0645  0.1122  0.1071
  408TIP3    H1 1169   2.325   0.246   3.012 -0.2261 -0.3040 -0.0279
  408TIP3    H2 1170   2.458   0.173   3.006  0.2413  0.5083  0.2637
  409TIP3   OH2 1171   1.729   7.127   2.264 -0.4770  0.0834  0.4329
  409TIP3    H1 1172   1.780   7.086   2.194 -0.4370 -0.4603  0.7786
  409TIP3    H2 1173   1.787   7.127   2.340 -0.0497  1.8753  0.1223
  410TIP3   OH2 1174   3.875   1.253   1.670 -1.0709 -0.4885  0.3730
  410TIP3    H1 1175   3.896   1.343   1.643 -0.4126 -1.2006 -1.5701
  410TIP3    H2 1176   3.957   1.217   1.701 -1.1813 -0.6568  0.4687
  411TIP3   OH2 1177   4.004   0.423   1.824 -0.2830  0.0874  0.5071
  411TIP3    H1 1178   3.964   0.482   1.760 -1.0046 -0.5934  0.3244
  411TIP3    H2 1179   4.058   0.480   1.879  2.2543  0.3750 -2.1914
  412TIP3   OH2 1180   3.804   1.885   1.747  0.3994  0.1671 -0.0003
  412TIP3    H1 1181   3.793   1.904   1.654 -1.8624  1.9969  0.6029
  412TIP3    H2 1182   3.739   1.817   1.766  0.3790  0.2948  0.3954
  413TIP3   OH2 1183   3.454   2.319   0.317  0.5224 -0.4931  0.0641
  413TIP3    H1 1184   3.391   2.289   0.382  0.3264 -1.1610 -0.4230
  413TIP3    H2 1185   3.404   2.322   0.235  0.1918  2.4370  0.3276
  414TIP3   OH2 1186   4.105   3.111   1.242 -0.2608 -0.4705  0.0077
  414TIP3    H1 1187   4.024   3.102   1.192 -0.6566  0.7160  0.4254
  414TIP3    H2 1188   4.174   3.112   1.175 -1.0068  5.0529 -0.9833
  415TIP3   OH2 1189   4.138   0.645   1.941 -0.2239 -0.2020  0.3777
  415TIP3    H1 1190   4.054   0.678   1.972 -0.9719 -0.8380 -0.9477
  415TIP3    H2 1191   4.190   0.724   1.923 -0.7340  0.1987  0.6711
  416TIP3   OH2 1192   6.714   5.193   5.992 -0.1770  0.6247 -0.0169
  416TIP3    H1 1193   6.681   5.259   6.052 -2.0866 -0.8055  0.5552
  416TIP3    H2 1194   6.655   5.118   6.003  1.4107 -0.8699 -1.2654
  417TIP3   OH2 1195   2.222   3.774   1.316  0.1758 -0.3228  0.1641
  417TIP3    H1 1196   2.156   3.713   1.283 -1.6145  1.2022  0.7965
  417TIP3    H2 1197   2.294   3.718   1.344 -0.2929 -1.9537 -1.7451
  418TIP3   OH2 1198   4.260   0.924   0.266  0.0664 -0.0579  0.6620
  418TIP3    H1 1199   4.324   0.853   0.266  0.9697  0.6987 -1.5579
  418TIP3    H2 1200   4.204   0.907   0.341 -1.7657 -4.8971 -1.6485
  419TIP3   OH2 1201   5.551   1.217   0.008  0.2954  0.2043  0.0294
  419TIP3    H1 1202   5.634   1.260  -0.015 -0.8394  2.3718 -0.1164
  419TIP3    H2 1203   5.530   1.250   0.095 -0.3241 -0.5165  0.1590
  420TIP3   OH2 1204   3.825   2.580   1.281  0.2133  0.7983  1.0268
  420TIP3    H1 1205   3.753   2.536   1.236  0.7535  2.3037 -1.4242
  420TIP3    H2 1206   3.792   2.669   1.296  1.7461  1.6795 -0.6701
  421TIP3   OH2 1207   8.201   2.515   0.522 -0.2789 -0.1322  0.0702
  421TIP3    H1 1208   8.129   2.533   0.461 -0.4499  0.1140  0.3391
  421TIP3    H2 1209   8.278   2.553   0.480 -0.6270  1.2006  0.5950
  422TIP3   OH2 1210   3.887   0.596   0.523 -0.1626  0.6902  0.2872
  422TIP3    H1 1211   3.893   0.520   0.464 -1.2835  0.9665 -0.1910
  422TIP3    H2 1212   3.845   0.664   0.471 -3.5080  0.1618  2.1521
  423TIP3   OH2 1213   6.098   3.080   6.071 -0.3098 -0.2920 -0.6514
  423TIP3    H1 1214   6.097   3.154   6.010 -0.6872  0.4770  0.2632
  423TIP3    H2 1215   6.160   3.106   6.139 -1.7135 -0.0535  0.5728
  424TIP3   OH2 1216   6.702   4.885   5.713  0.2511 -0.2272  0.5433
  424TIP3    H1 1217   6.771   4.916   5.655 -0.1799  0.2702  0.2894
  424TIP3    H2 1218   6.748   4.840   5.784  0.7415 -1.5145 -0.5771
  425TIP3   OH2 1219   3.764   2.223   2.327  0.0257 -0.0394  0.9869
  425TIP3    H1 1220   3.828   2.211   2.258 -0.0281  0.3271  0.8715
  425TIP3    H2 1221   3.784   2.155   2.391  0.9678  0.5076  1.2778
  426TIP3   OH2 1222   5.225   3.196   3.937 -0.1488  0.5702  0.0696
  426TIP3    H1 1223   5.289   3.125   3.947 -0.5107  0.3475  0.7933
  426TIP3    H2 1224   5.174   3.172   3.860  0.4696  0.6204 -0.3621
  427TIP3   OH2 1225   6.227   0.841   2.489  0.3558 -0.2014  0.1516
  427TIP3    H1 1226   6.158   0.877   2.433  2.0331  0.1657 -1.7426
  427TIP3    H2 1227   6.195   0.755   2.515 -1.3004  0.4189  0.2511
  428TIP3   OH2 1228   8.400   4.717   5.696 -0.2350 -0.2769 -0.3032
  428TIP3    H1 1229   8.337   4.659   5.739 -1.8061  1.4688 -0.1417
  428TIP3    H2 1230   8.425   4.780   5.763  1.3014 -0.6346 -0.5265
  429TIP3   OH2 1231   4.720   2.018   0.696 -0.1077  0.5008 -0.6261
  429TIP3    H1 1232   4.761   1.932   0.702 -1.1360  0.0723  0.4709
  429TIP3    H2 1233   4.651   2.007   0.630 -0.2084  0.4960 -0.5204
  430TIP3   OH2 1234   4.053   0.315   0.526  0.3504  0.1656  0.3912
  430TIP3    H1 1235   4.106   0.350   0.597  1.3425  0.6676 -0.5671
  430TIP3    H2 1236   3.993   0.254   0.568  0.3883  1.0410  1.7440
  431TIP3   OH2 1237   2.840   2.277   2.763 -0.7304  0.6051  0.1127
  431TIP3    H1 1238   2.903   2.216   2.725 -0.0438  1.4734 -0.1607
  431TIP3    H2 1239   2.876   2.297   2.849  0.2399  2.3829 -0.6915
  432TIP3   OH2 1240   5.602   0.500   1.686 -0.3773 -0.6399 -0.2987
  432TIP3    H1 1241   5.570   0.582   1.724 -0.5160  0.0271 -1.8191
  432TIP3    H2 1242   5.697   0.506   1.693 -0.3458  0.1300 -1.3812
  433TIP3   OH2 1243   2.779   0.608   0.676 -0.4461  0.2142  0.1859
  433TIP3    H1 1244   2.827   0.592   0.757  0.3869 -1.9124 -0.6845
  433TIP3    H2 1245   2.694   0.643   0.704 -0.1850 -0.5333  1.9562
  434TIP3   OH2 1246   5.840   3.802   6.826 -0.2630 -0.2905  0.3050
  434TIP3    H1 1247   5.879   3.804   6.738 -1.5779  0.1815 -0.2787
  434TIP3    H2 1248   5.789   3.721   6.828  2.2036 -1.8943  1.7411
  435TIP3   OH2 1249   3.374   0.878   0.277 -0.1419 -0.2744 -0.0777
  435TIP3    H1 1250   3.442   0.813   0.258  0.8296  0.2710  1.4406
  435TIP3    H2 1251   3.414   0.962   0.255 -0.7378 -0.0455 -0.2848
  436TIP3   OH2 1252   3.530   1.054   2.811 -0.3030 -0.0851  0.1189
  436TIP3    H1 1253   3.505   0.984   2.872 -0.7457 -2.0839 -2.2585
  436TIP3    H2 1254   3.447   1.097   2.789 -0.2282  0.2176  0.4277
  437TIP3   OH2 1255   3.708   3.220   1.291  0.5782 -0.2811 -0.7179
  437TIP3    H1 1256   3.752   3.208   1.206  2.8777  0.5202  0.3284
  437TIP3    H2 1257   3.744   3.151   1.346  0.4283  0.3327  0.1447
  438TIP3   OH2 1258   5.305   0.404   0.679  0.0114  0.2395 -0.3472
  438TIP3    H1 1259   5.394   0.432   0.655  0.6144 -0.3315  1.1573
  438TIP3    H2 1260   5.315   0.311   0.702 -0.6931  0.5609  1.2804
  439TIP3   OH2 1261   3.727   5.431   2.881  0.5056  0.2206 -0.5893
  439TIP3    H1 1262   3.771   5.494   2.938 -1.1748  0.8067  0.1274
  439TIP3    H2 1263   3.640   5.470   2.867 -0.6095 -2.0128 -0.0288
  440TIP3   OH2 1264   1.933   0.840   1.947 -0.2946 -0.4914 -0.4439
  440TIP3    H1 1265   1.945   0.760   1.895  0.3597 -0.5999 -0.1277
  440TIP3    H2 1266   1.862   0.818   2.008 -0.7821 -0.5017 -1.0130
  441TIP3   OH2 1267   3.987   2.030   1.943  0.1174  0.7009 -0.1539
  441TIP3    H1 1268   4.078   2.045   1.915  1.2668 -1.5107  2.1831
  441TIP3    H2 1269   3.944   1.994   1.865  1.3721  1.2474 -1.1183
  442TIP3   OH2 1270   3.715   1.792   1.444  0.3470  0.3424  0.5623
  442TIP3    H1 1271   3.783   1.859   1.455  2.6457 -2.0521  1.3740
  442TIP3    H2 1272   3.660   1.826   1.374  1.7246  2.8642  0.6220
  443TIP3   OH2 1273   4.754   2.409   3.031 -0.2436  0.1777 -0.2305
  443TIP3    H1 1274   4.793   2.324   3.010  1.8063  1.1381 -0.4493
  443TIP3    H2 1275   4.793   2.433   3.115 -0.5163  1.0741 -0.3588
  444TIP3   OH2 1276   3.304   2.533   1.811 -0.3095  0.5986 -0.3644
  444TIP3    H1 1277   3.282   2.551   1.902  0.2187  1.5743 -0.4339
  444TIP3    H2 1278   3.242   2.464   1.785 -1.6194  1.5389  0.1996
  445TIP3   OH2 1279   2.980   4.026   3.553 -0.3204 -0.3487 -0.3929
  445TIP3    H1 1280   2.958   4.036   3.460 -1.7533 -1.4192 -0.1773
  445TIP3    H2 1281   2.928   4.093   3.597  1.1814  0.8927 -0.4473
  446TIP3   OH2 1282   3.642   4.011   2.870 -0.0130 -0.1396 -0.1253
  446TIP3    H1 1283   3.710   4.004   2.937 -0.6872 -0.1955  0.5625
  446TIP3    H2 1284   3.604   3.923   2.865 -0.5091  0.0625  0.0119
  447TIP3   OH2 1285   5.232   1.426   1.770  0.4172 -0.1743  0.0196
  447TIP3    H1 1286   5.225   1.513   1.808  2.5423 -0.5900  1.4714
  447TIP3    H2 1287   5.222   1.366   1.844 -2.3821 -1.2326 -1.1644
  448TIP3   OH2 1288   6.022   2.319   2.232  0.1217 -0.1834  0.4903
  448TIP3    H1 1289   5.928   2.315   2.214  0.3461  1.7363 -1.4019
  448TIP3    H2 1290   6.062   2.265   2.164  0.4584 -0.1322  0.6441
  449TIP3   OH2 1291   3.721   4.918   2.384 -0.7043  0.3330 -0.3533
  449TIP3    H1 1292   3.810   4.949   2.368 -0.3605 -0.2985  0.2803
  449TIP3    H2 1293   3.674   4.933   2.302  0.6979 -1.8001 -1.5800
  450TIP3   OH2 1294   7.912   4.987   6.736 -0.4249  0.6234  0.4162
  450TIP3    H1 1295   7.927   5.048   6.809  1.9737  0.4709  0.1051
  450TIP3    H2 1296   7.870   4.911   6.776  1.3301  0.3255  1.7822
  451TIP3   OH2 1297   5.725   1.863   1.000  0.2676  0.0692  0.0912
  451TIP3    H1 1298   5.633   1.866   0.972  0.4339  0.6535 -0.4087
  451TIP3    H2 1299   5.751   1.772   0.986 -1.2863 -1.0273  3.7397
  452TIP3   OH2 1300   5.142   0.850   1.151  0.1406  0.0932 -0.2043
  452TIP3    H1 1301   5.092   0.781   1.107 -0.6813  0.6220 -0.1148
  452TIP3    H2 1302   5.142   0.824   1.243  1.5876 -0.8462 -0.4403
  453TIP3   OH2 1303   4.783   1.412   1.429 -0.4287 -0.0574  0.0404
  453TIP3    H1 1304   4.777   1.391   1.336  0.2440 -0.0147 -0.0103
  453TIP3    H2 1305   4.701   1.457   1.449 -0.6878 -0.3062 -0.4699
  454TIP3   OH2 1306   3.044   0.482   2.345 -0.3048 -0.1678 -0.5199
  454TIP3    H1 1307   3.018   0.434   2.267 -0.7525 -0.4827 -0.1776
  454TIP3    H2 1308   3.017   0.572   2.329  0.3158 -0.0709 -1.0588
  455TIP3   OH2 1309   4.348   1.851   0.792 -0.6182  0.4772  0.0349
  455TIP3    H1 1310   4.295   1.773   0.775  0.5497 -0.1978 -0.6322
  455TIP3    H2 1311   4.342   1.864   0.886  1.1666 -1.9164  0.5314
  456TIP3   OH2 1312   3.060   0.543   1.288  0.1889 -0.1145  0.0080
  456TIP3    H1 1313   3.078   0.624   1.240  1.5612 -0.6644 -0.4199
  456TIP3    H2 1314   3.030   0.481   1.221 -0.1892 -0.1757  0.2296
  457TIP3   OH2 1315   2.219   7.017   0.244 -0.0498 -1.0145 -0.0357
  457TIP3    H1 1316   2.278   7.017   0.169 -2.4345 -2.8307 -2.0013
  457TIP3    H2 1317   2.234   7.101   0.287  2.8115 -0.7981 -1.3726
  458TIP3   OH2 1318   7.820   5.235   5.831  0.2041  0.5343  0.0871
  458TIP3    H1 1319   7.758   5.270   5.767 -1.4089  0.6499  1.6860
  458TIP3    H2 1320   7.802   5.284   5.911  1.0191 -0.7990  1.1002
  459TIP3   OH2 1321   5.369   1.018   0.159  0.3140 -0.7267 -0.4532
  459TIP3    H1 1322   5.381   0.944   0.218 -0.9956  0.2174  1.0425
  459TIP3    H2 1323   5.396   1.094   0.210 -1.0192  0.1263 -0.9916
  460TIP3   OH2 1324   4.847   1.313   0.723 -0.1485 -0.2114 -0.4530
  460TIP3    H1 1325   4.758   1.329   0.756 -0.4229 -1.5576 -0.4986
  460TIP3    H2 1326   4.885   1.253   0.787  0.9725  0.8693 -0.0898
  461TIP3   OH2 1327   1.277   6.426   4.344  0.3120  0.8595  0.2948
  461TIP3    H1 1328   1.265   6.506   4.394  1.5088  0.8962  0.5352
  461TIP3    H2 1329   1.354   6.385   4.382 -0.4783 -0.5637  0.3702
  462TIP3   OH2 1330   7.568   3.046   6.544 -0.1638 -0.1945 -0.2779
  462TIP3    H1 1331   7.592   2.989   6.618  1.7668  0.1222 -0.6147
  462TIP3    H2 1332   7.484   3.085   6.568  0.5674  0.0913  1.8599
  463TIP3   OH2 1333   6.509   3.425   0.565  0.1127 -0.4216  0.2187
  463TIP3    H1 1334   6.503   3.486   0.491  1.0335 -1.1901 -0.5139
  463TIP3    H2 1335   6.421   3.424   0.603 -0.3081  0.1768 -0.7212
  464TIP3   OH2 1336   5.994   1.601   1.026 -0.4910 -0.5535  0.5599
  464TIP3    H1 1337   6.075   1.564   0.990  0.4846  1.9445  0.1025
  464TIP3    H2 1338   6.017   1.628   1.115 -1.3141 -1.3690  1.0345
  465TIP3   OH2 1339   8.199   5.331   5.910  0.0022  0.0722  0.2943
  465TIP3    H1 1340   8.218   5.387   5.834 -1.3868 -0.2744 -0.3162
  465TIP3    H2 1341   8.115   5.363   5.943 -0.6078 -1.3910  0.1841
  466TIP3   OH2 1342   3.746   1.473   1.516 -0.2221 -0.1893  0.3710
  466TIP3    H1 1343   3.667   1.431   1.481 -0.0060 -1.1029  0.9414
  466TIP3    H2 1344   3.759   1.550   1.461 -0.2655 -1.2236 -1.1261
  467TIP3   OH2 1345   1.019   5.552   5.722 -0.3773 -0.4141  0.5342
  467TIP3    H1 1346   1.011   5.459   5.703 -1.3336 -0.3234  0.4795
  467TIP3    H2 1347   1.022   5.594   5.636 -1.5552 -0.2669  0.5553
  468TIP3   OH2 1348   5.715   0.743   0.361  0.1999 -0.1801  0.5818
  468TIP3    H1 1349   5.770   0.700   0.427  1.5657  0.6223  0.0065
  468TIP3    H2 1350   5.674   0.671   0.313  0.7544 -0.8019  1.0333
  469TIP3   OH2 1351   1.064   7.244   0.003  0.0223 -0.8354  0.6525
  469TIP3    H1 1352   1.149   7.269   0.040  0.1014  0.6116 -0.4387
  469TIP3    H2 1353   1.012   7.324   0.007  0.1352 -0.5320 -2.5415
  470TIP3   OH2 1354   6.510   4.416   6.755  0.0658  0.0545  0.6105
  470TIP3    H1 1355   6.456   4.340   6.777 -1.5145  1.4720  1.7923
  470TIP3    H2 1356   6.449   4.476   6.711  1.3252  0.5833 -0.4270
  471TIP3   OH2 1357   6.601   3.116   1.480 -0.3614  0.3695  0.4890
  471TIP3    H1 1358   6.637   3.067   1.406  1.8161  1.5479  0.7267
  471TIP3    H2 1359   6.540   3.178   1.440 -0.5418 -0.2134 -0.1492
  472TIP3   OH2 1360   1.748   5.439   6.809 -0.3395 -0.5666  0.4563
  472TIP3    H1 1361   1.676   5.497   6.784 -0.5251 -0.7279  0.6143
  472TIP3    H2 1362   1.713   5.350   6.799 -0.2051 -0.6450  0.6565
  473TIP3   OH2 1363   4.323   7.341   2.264 -0.4409 -0.5334  0.4016
  473TIP3    H1 1364   4.270   7.367   2.190 -0.2677  0.4467  0.6119
  473TIP3    H2 1365   4.261   7.308   2.329 -0.7961  0.5191  0.6106
  474TIP3   OH2 1366   0.735   7.882   0.014 -0.1898 -0.6176  0.4115
  474TIP3    H1 1367   0.671   7.902  -0.054  1.1006 -1.7317 -1.1596
  474TIP3    H2 1368   0.688   7.898   0.096 -2.0299 -0.0660 -0.7143
  475TIP3   OH2 1369   5.680   1.005   0.214 -0.3245 -0.0673 -0.5371
  475TIP3    H1 1370   5.593   1.009   0.173 -0.5628  0.5033  0.0154
  475TIP3    H2 1371   5.683   0.918   0.254 -0.9212  0.1658  0.0306
  476TIP3   OH2 1372   4.290   4.539   6.605  0.4875  0.3890 -0.0725
  476TIP3    H1 1373   4.290   4.458   6.554 -0.7281  1.5504 -2.0108
  476TIP3    H2 1374   4.264   4.512   6.693 -3.0456 -0.9770 -1.4056
  477TIP3   OH2 1375   2.612   7.455   2.323  0.3986 -0.0710  0.3227
  477TIP3    H1 1376   2.612   7.359   2.327  0.8950 -0.0822  0.1587
  477TIP3    H2 1377   2.542   7.477   2.262  1.3597 -0.4042 -0.9328
  478TIP3   OH2 1378   6.525   0.474   2.071  0.2679 -0.9891 -0.1566
  478TIP3    H1 1379   6.613   0.501   2.096  0.1211 -1.1283  0.5185
  478TIP3    H2 1380   6.472   0.487   2.151 -0.4917 -0.1385 -0.7816
  479TIP3   OH2 1381   5.204   5.083   0.450 -0.1809  0.2785 -0.3990
  479TIP3    H1 1382   5.282   5.125   0.485  0.4957 -0.0059 -1.5239
  479TIP3    H2 1383   5.232   4.993   0.433 -1.2293 -0.2790  0.7382
  480TIP3   OH2 1384   5.164   1.433   1.500  0.3946 -0.2124 -0.0881
  480TIP3    H1 1385   5.080   1.391   1.518  1.3590 -2.2164 -0.1224
  480TIP3    H2 1386   5.200   1.452   1.587  0.3096 -0.1645 -0.0632
  481TIP3   OH2 1387   6.545   1.597   1.109  0.1507  0.2383 -0.2167
  481TIP3    H1 1388   6.630   1.637   1.089  0.7549 -0.6201  0.5885
  481TIP3    H2 1389   6.562   1.541   1.185 -0.9589 -0.5749 -0.5514
  482TIP3   OH2 1390   4.714   1.328   0.496 -0.3075 -0.0794 -0.0038
  482TIP3    H1 1391   4.776   1.331   0.568  2.1500  1.6768 -2.1173
  482TIP3    H2 1392   4.708   1.236   0.473  1.4418 -0.2907  0.3227
  483TIP3   OH2 1393   2.961   2.115   0.096  0.0555  0.4443 -0.1387
  483TIP3    H1 1394   2.884   2.092   0.044 -0.0851  0.4232  0.0775
  483TIP3    H2 1395   2.996   2.194   0.054 -0.0505  0.4232 -0.2697
  484TIP3   OH2 1396   5.069   1.697   0.827 -0.2133 -0.0379 -0.4255
  484TIP3    H1 1397   5.135   1.635   0.795 -1.9313 -1.2509 -1.7257
  484TIP3    H2 1398   5.043   1.661   0.912 -0.0907 -0.2500 -0.4751
  485TIP3   OH2 1399   3.660   6.702   2.085  0.1735 -0.0846 -0.6453
  485TIP3    H1 1400   3.589   6.759   2.115  1.2756  1.0122 -0.0915
  485TIP3    H2 1401   3.618   6.641   2.024 -1.1274  0.9292 -0.7737
  486TIP3   OH2 1402   2.379   5.960   6.098 -0.0578  0.7172  0.3458
  486TIP3    H1 1403   2.415   6.049   6.105  1.4027  0.1565  0.2154
  486TIP3    H2 1404   2.287   5.969   6.124  0.2495  2.1445  0.9993
  487TIP3   OH2 1405   6.823   3.501   0.597  0.5128  0.4315  0.0031
  487TIP3    H1 1406   6.811   3.596   0.591 -1.6124  0.1325 -1.0780
  487TIP3    H2 1407   6.743   3.470   0.640  0.0375 -1.1066 -1.9321
  488TIP3   OH2 1408   5.354   1.871   1.484 -0.4105  0.4633 -0.2369
  488TIP3    H1 1409   5.428   1.906   1.433  0.9643 -0.1915  1.2385
  488TIP3    H2 1410   5.369   1.776   1.486 -0.5844  0.4517  1.1329
  489TIP3   OH2 1411   4.637   2.631   1.001  0.1069 -0.4757 -0.0052
  489TIP3    H1 1412   4.678   2.668   0.922  0.7357 -1.8506 -0.3384
  489TIP3    H2 1413   4.551   2.673   1.005  0.4088  0.2482 -0.9524
  490TIP3   OH2 1414   6.131   1.790   0.552 -0.3372  0.0046 -0.2817
  490TIP3    H1 1415   6.081   1.855   0.602  0.2125  0.4211 -0.2777
  490TIP3    H2 1416   6.158   1.835   0.473 -1.5964 -0.7947 -1.1941
  491TIP3   OH2 1417   6.705   2.444   1.945 -0.6803 -0.1789  0.5909
  491TIP3    H1 1418   6.659   2.524   1.920 -0.3506 -0.4820 -1.0505
  491TIP3    H2 1419   6.705   2.391   1.866  0.8389 -0.9761  1.1059
  492TIP3   OH2 1420   4.560   0.074   0.913  0.4902 -0.1748 -0.0412
  492TIP3    H1 1421   4.533   0.038   0.829  0.3932  1.9088 -0.9234
  492TIP3    H2 1422   4.482   0.119   0.946  0.4490 -1.1801  1.3054
  493TIP3   OH2 1423   0.046   5.383   6.581  0.1651 -0.0039  0.3344
  493TIP3    H1 1424  -0.041   5.373   6.617  0.2751  0.0875  0.6257
  493TIP3    H2 1425   0.054   5.477   6.565 -1.1452 -0.3921 -3.0844
  494TIP3   OH2 1426   3.979   3.503   1.648 -0.6245 -0.1599 -0.0713
  494TIP3    H1 1427   3.986   3.420   1.600 -1.4067  0.3764 -1.1414
  494TIP3    H2 1428   3.921   3.483   1.722 -1.4220 -0.3950 -0.7489
  495TIP3   OH2 1429   2.093   0.486   1.242 -0.0030  0.1867 -0.8042
  495TIP3    H1 1430   2.008   0.453   1.270  0.5295  0.7265  1.4925
  495TIP3    H2 1431   2.085   0.581   1.246  0.6396  0.2459 -0.8489
  496TIP3   OH2 1432   6.455   0.965   0.500 -0.1637  0.0733  0.1089
  496TIP3    H1 1433   6.474   0.879   0.463  4.4019  1.3547 -0.7849
  496TIP3    H2 1434   6.460   1.025   0.425  1.6133  1.7165  1.4976
  497TIP3   OH2 1435   4.226   2.666   0.791 -0.2681  0.2890 -0.3557
  497TIP3    H1 1436   4.162   2.732   0.817  0.0338  0.0540  1.0421
  497TIP3    H2 1437   4.177   2.584   0.787 -0.1344  0.1737  0.3451
  498TIP3   OH2 1438   4.140   1.389   1.315  0.0357 -0.1767 -0.0075
  498TIP3    H1 1439   4.084   1.312   1.301  0.7307 -0.9273  1.2158
  498TIP3    H2 1440   4.175   1.409   1.228 -1.7207  0.0130 -0.7104
  499TIP3   OH2 1441   0.925   3.478   6.947 -0.1190  0.2412  0.3351
  499TIP3    H1 1442   0.934   3.480   6.851 -1.6910  0.9190  0.1843
  499TIP3    H2 1443   0.832   3.497   6.962 -0.2808 -1.7213  1.9287
  500TIP3   OH2 1444   7.830   5.818   5.294 -0.0426 -0.6258  0.0812
  500TIP3    H1 1445   7.851   5.759   5.366  1.7038  0.9699  0.9393
  500TIP3    H2 1446   7.784   5.891   5.336  1.9716  0.8451 -0.2188
  501TIP3   OH2 1447   5.619   4.241   1.754 -0.6205  0.0106  0.2345
  501TIP3    H1 1448   5.574   4.252   1.671  0.3176  2.4911  0.0325
  501TIP3    H2 1449   5.706   4.210   1.730 -0.4691  0.3679  0.3287
  502TIP3   OH2 1450   0.648   5.184   6.657 -0.0066  0.4444 -0.1342
  502TIP3    H1 1451   0.659   5.171   6.563 -0.2773  0.2034 -0.1325
  502TIP3    H2 1452   0.665   5.277   6.670  0.1100  0.4625 -0.4104
  503TIP3   OH2 1453   4.984   4.484   0.110  0.1958 -0.6170 -0.3545
  503TIP3    H1 1454   5.022   4.530   0.184  1.7887 -0.1346 -1.4434
  503TIP3    H2 1455   4.975   4.393   0.139 -1.2183 -0.0059  1.1562
  504TIP3   OH2 1456   5.179   1.685   1.831  0.3552  0.0763  0.5234
  504TIP3    H1 1457   5.240   1.745   1.787  0.0408 -0.2871 -0.4156
  504TIP3    H2 1458   5.184   1.710   1.923  1.1376  0.7483  0.3092
  505TIP3   OH2 1459   3.973   3.852   1.447  0.2721  0.4340 -0.2761
  505TIP3    H1 1460   4.010   3.773   1.407 -0.7202  0.2859 -0.9336
  505TIP3    H2 1461   3.910   3.883   1.382 -1.3901  0.1841  1.1809
  506TIP3   OH2 1462   5.080   1.540   0.509  0.4443  0.3121 -0.0589
  506TIP3    H1 1463   4.997   1.510   0.546  0.2045  0.4152 -0.5097
  506TIP3    H2 1464   5.144   1.527   0.579 -0.1552  1.2675  0.6589
  507TIP3   OH2 1465   2.480   6.785   1.084 -0.1957 -0.2522 -0.7017
  507TIP3    H1 1466   2.538   6.860   1.073  1.1301 -0.8223  1.9567
  507TIP3    H2 1467   2.395   6.816   1.053  0.3875  2.3039  0.0993
  508TIP3   OH2 1468   3.791   0.139   1.338  0.1752 -0.0811  0.1707
  508TIP3    H1 1469   3.706   0.182   1.339  1.1920  1.9631 -0.0949
  508TIP3    H2 1470   3.827   0.159   1.251 -0.3732 -3.5695 -0.9599
  509TIP3   OH2 1471   6.780   0.065   0.333  0.1908  0.2772 -0.0500
  509TIP3    H1 1472   6.710   0.003   0.350 -0.3910  0.3195 -2.1846
  509TIP3    H2 1473   6.762   0.100   0.246  1.8596  1.6333  0.1030
  510TIP3   OH2 1474   5.938   0.798   1.470  0.1857 -0.3231  0.2448
  510TIP3    H1 1475   6.009   0.792   1.406 -0.0382  0.7192 -0.1100
  510TIP3    H2 1476   5.968   0.863   1.534 -0.9312  0.9908 -0.5462
  511TIP3   OH2 1477   1.105   5.459   6.944  0.2461 -0.0344 -0.6307
  511TIP3    H1 1478   1.197   5.480   6.926 -0.0492  2.6217  0.7144
  511TIP3    H2 1479   1.059   5.542   6.933 -1.7875 -1.0409  0.0794
  512TIP3   OH2 1480   3.197   0.014   2.217  0.1035  0.0159  0.2525
  512TIP3    H1 1481   3.277  -0.039   2.215 -0.0204 -0.1691  0.2675
  512TIP3    H2 1482   3.199   0.064   2.135  1.1696  1.3744  1.0662
  513TIP3   OH2 1483   6.468   2.112   1.994  0.2952 -0.3117  0.1616
  513TIP3    H1 1484   6.492   2.023   2.020  2.4780  0.1310 -0.2705
  513TIP3    H2 1485   6.382   2.103   1.953  0.5090 -2.2157  0.1085
  514TIP3   OH2 1486   1.921   6.275   6.008  0.0860  0.0627  0.0533
  514TIP3    H1 1487   1.939   6.181   6.003  0.2087 -0.0029  1.5134
  514TIP3    H2 1488   1.994   6.311   6.058 -0.5452  0.7618  0.4816
  515TIP3   OH2 1489   4.750   1.538   0.305 -0.0699 -0.3242 -0.1270
  515TIP3    H1 1490   4.736   1.473   0.374 -0.9361 -0.4381 -0.4095
  515TIP3    H2 1491   4.838   1.519   0.273 -1.4792 -3.4352 -2.3802
  516TIP3   OH2 1492   4.615   0.627   0.222 -0.1297 -0.2321 -0.0745
  516TIP3    H1 1493   4.594   0.611   0.130 -0.5603 -0.2366  0.0239
  516TIP3    H2 1494   4.652   0.545   0.253 -0.7973 -0.5106 -0.0119
  517TIP3   OH2 1495   7.589   4.500   5.944  0.1280 -0.1580  0.4344
  517TIP3    H1 1496   7.568   4.417   5.987 -0.0112 -0.1153  0.4491
  517TIP3    H2 1497   7.673   4.526   5.981 -0.2642  0.1642  1.1077
  518TIP3   OH2 1498   1.443   3.629   6.210  0.2370  0.2916 -0.7622
  518TIP3    H1 1499   1.390   3.694   6.256  1.5417  0.3272  0.7170
  518TIP3    H2 1500   1.530   3.637   6.249  0.3284 -2.6045 -0.3136
  519TIP3   OH2 1501   4.964   1.134   0.236 -0.1366  0.5167  0.2474
  519TIP3    H1 1502   4.906   1.103   0.167  0.2291  0.9263 -0.2490
  519TIP3    H2 1503   5.001   1.054   0.273  2.8399  0.3558 -2.7862
  520TIP3   OH2 1504   6.065   2.409   0.241  0.6270 -0.4879  0.7948
  520TIP3    H1 1505   6.099   2.339   0.186  1.2161  0.0343  0.4862
  520TIP3    H2 1506   6.113   2.487   0.212 -0.6828  0.2177  0.4760
  521TIP3   OH2 1507   8.158   1.938   1.312 -0.2051 -0.6605  0.0790
  521TIP3    H1 1508   8.078   1.968   1.270  1.4853  0.8259 -2.1251
  521TIP3    H2 1509   8.164   1.845   1.289 -2.7471 -1.5651  2.6795
  522TIP3   OH2 1510   2.571   6.232   4.902 -0.2666  0.1515 -0.0855
  522TIP3    H1 1511   2.618   6.219   4.985  0.1684  0.3518 -0.3010
  522TIP3    H2 1512   2.489   6.273   4.928 -0.2106  0.0460  0.2685
  523TIP3   OH2 1513   7.214   5.591   6.333  0.1460  0.3937  0.6629
  523TIP3    H1 1514   7.258   5.666   6.374  0.0388  0.0305  1.4478
  523TIP3    H2 1515   7.125   5.622   6.316 -0.0352  0.2924  1.4198
  524TIP3   OH2 1516   1.267   5.222   5.933  0.4114 -0.4646  0.1342
  524TIP3    H1 1517   1.207   5.170   5.987 -0.3366  0.0749 -0.1645
  524TIP3    H2 1518   1.232   5.214   5.844  0.4241  0.3634  0.0506
  525TIP3   OH2 1519   3.983   2.516   1.519  0.3003  0.9867 -0.2110
  525TIP3    H1 1520   3.943   2.577   1.581  0.1841 -0.0553  0.7575
  525TIP3    H2 1521   3.918   2.507   1.449 -0.2011  1.0381  0.2437
  526TIP3   OH2 1522   5.545   1.893   2.393  0.0718 -0.0413  0.2618
  526TIP3    H1 1523   5.634   1.904   2.428 -0.0046 -0.3914  0.5678
  526TIP3    H2 1524   5.504   1.830   2.451  0.1131 -1.0347 -0.7564
  527TIP3   OH2 1525   6.026   2.181   1.104  0.8465 -0.0064  0.0144
  527TIP3    H1 1526   6.060   2.092   1.115  1.0979  0.0271 -0.4370
  527TIP3    H2 1527   6.018   2.191   1.009 -0.6645 -0.0980  0.1254
  528TIP3   OH2 1528   7.329   0.079   0.323 -0.0701  0.3289 -0.5081
  528TIP3    H1 1529   7.343  -0.006   0.282 -1.3634 -1.8747  3.3667
  528TIP3    H2 1530   7.239   0.103   0.299 -0.0487  0.1275 -0.7868
  529TIP3   OH2 1531   5.751   2.113   1.117 -0.3744  0.7806 -0.1115
  529TIP3    H1 1532   5.749   2.027   1.074 -1.0812  0.1382  1.1856
  529TIP3    H2 1533   5.840   2.144   1.104 -0.0836 -0.1871 -0.5241
  530TIP3   OH2 1534   8.132   3.927   6.830 -0.0205 -0.2679 -0.3969
  530TIP3    H1 1535   8.153   3.905   6.739 -1.1534 -1.4635 -0.3822
  530TIP3    H2 1536   8.181   3.863   6.882  0.8818  0.6170 -0.1363
  531TIP3   OH2 1537   6.887   3.014   2.044  0.2753  0.2769  0.0377
  531TIP3    H1 1538   6.876   2.921   2.066 -1.7041  0.5969  0.5703
  531TIP3    H2 1539   6.973   3.019   2.003  0.6491 -1.7041  0.4923
  532TIP3   OH2 1540   4.771   7.300   1.565 -0.3562 -0.6849 -0.0550
  532TIP3    H1 1541   4.762   7.340   1.652  0.8899 -0.6971  0.0888
  532TIP3    H2 1542   4.682   7.293   1.533 -0.6768  1.5355  0.2356
  533TIP3   OH2 1543   5.498   1.575   1.350 -0.3361  0.0874  0.3566
  533TIP3    H1 1544   5.572   1.624   1.384 -0.2681 -0.6649  1.3120
  533TIP3    H2 1545   5.434   1.575   1.421 -0.1296 -1.6207  0.5658
  534TIP3   OH2 1546   6.119   3.812   5.856 -0.2516 -0.2067  0.3364
  534TIP3    H1 1547   6.163   3.773   5.781 -0.2745 -2.1106  1.2871
  534TIP3    H2 1548   6.086   3.896   5.823  0.6413 -0.5408 -1.4786
  535TIP3   OH2 1549   6.544   1.326   0.361 -0.0942 -0.6785 -0.1122
  535TIP3    H1 1550   6.577   1.409   0.325 -2.6034  0.0141 -0.9112
  535TIP3    H2 1551   6.513   1.349   0.449 -2.0970 -0.4199 -0.8593
  536TIP3   OH2 1552   5.646   1.647   0.622 -0.0587 -0.4698  0.5062
  536TIP3    H1 1553   5.637   1.675   0.713  2.6368  0.4670  0.5353
  536TIP3    H2 1554   5.741   1.639   0.609 -0.3726  0.0283 -2.3957
  537TIP3   OH2 1555   5.795   0.735   0.747 -0.3049 -0.1674 -0.2854
  537TIP3    H1 1556   5.730   0.719   0.816  0.0394  1.3550  0.4078
  537TIP3    H2 1557   5.875   0.756   0.795  0.3483 -0.6506 -1.1534
  538TIP3   OH2 1558   7.138   5.198   6.568 -0.2637  0.2245  0.0425
  538TIP3    H1 1559   7.226   5.208   6.605 -0.1094  0.6085 -0.4256
  538TIP3    H2 1560   7.092   5.278   6.593 -1.1104 -0.8264  1.9782
  539TIP3   OH2 1561   5.253   1.410   0.675 -0.5391  0.2859  0.1824
  539TIP3    H1 1562   5.228   1.392   0.766 -2.9899 -1.0324 -0.7103
  539TIP3    H2 1563   5.236   1.328   0.629 -1.8340  1.6976 -1.9601
  540TIP3   OH2 1564   3.431   4.703   1.820 -0.6425  0.4986  0.1645
  540TIP3    H1 1565   3.389   4.753   1.751 -4.2241 -2.5773 -0.0369
  540TIP3    H2 1566   3.391   4.736   1.901 -0.3577  0.4479  0.3266
  541TIP3   OH2 1567   0.649   6.378   5.219  0.3115 -0.4633 -0.3534
  541TIP3    H1 1568   0.708   6.303   5.210  1.9989  0.9770 -1.6315
  541TIP3    H2 1569   0.562   6.339   5.223  1.3773 -2.7292  3.1557
  542TIP3   OH2 1570   4.794   1.776   1.074 -0.1431  0.2589  0.1394
  542TIP3    H1 1571   4.833   1.811   1.154 -0.8720  0.7462  0.2818
  542TIP3    H2 1572   4.727   1.840   1.049 -0.8287 -0.5521 -0.1208
  543TIP3   OH2 1573   3.829   1.178   0.820  0.1390  0.0093 -0.2838
  543TIP3    H1 1574   3.908   1.191   0.872 -0.7098  2.0066  0.5646
  543TIP3    H2 1575   3.849   1.217   0.735  0.3183 -0.1333 -0.3066
  544TIP3   OH2 1576   1.407   0.593   5.877 -0.1194  0.1267  0.5818
  544TIP3    H1 1577   1.362   0.676   5.888  1.0033  0.9306 -0.7795
  544TIP3    H2 1578   1.402   0.552   5.963  0.3037  2.0918  1.5631
  545TIP3   OH2 1579   2.193   0.943   4.752  0.1996  0.4314 -0.8557
  545TIP3    H1 1580   2.244   0.893   4.815 -1.7374 -0.4592  0.0677
  545TIP3    H2 1581   2.219   1.034   4.766  2.0474 -0.0729 -0.9379
  546TIP3   OH2 1582   4.161   3.451   2.381 -0.1437  0.4430  0.4689
  546TIP3    H1 1583   4.177   3.544   2.367 -0.7548  0.4830  0.0296
  546TIP3    H2 1584   4.204   3.408   2.307  1.8899  0.2160  1.7233
  547TIP3   OH2 1585   2.319   5.335   6.454  0.2960 -0.0875  0.3581
  547TIP3    H1 1586   2.247   5.295   6.502  0.0618  0.3868  0.4039
  547TIP3    H2 1587   2.277   5.393   6.391  0.6614  0.8970  1.0118
  548TIP3   OH2 1588   4.240   1.930   3.086  0.0158  0.1121  0.0320
  548TIP3    H1 1589   4.275   2.004   3.036 -0.0727 -0.5990 -1.0934
  548TIP3    H2 1590   4.183   1.884   3.024  0.8577 -1.4827  0.4263
  549TIP3   OH2 1591   3.301   2.302   0.082 -0.4838 -0.5820  0.1668
  549TIP3    H1 1592   3.364   2.264   0.021 -0.0609  1.1609 -0.5099
  549TIP3    H2 1593   3.237   2.346   0.026 -0.1011  1.0197  0.9810
  550TIP3   OH2 1594   4.476   7.099   0.352  0.2939 -0.2370 -0.5605
  550TIP3    H1 1595   4.402   7.066   0.300  0.6185 -1.4332 -0.2878
  550TIP3    H2 1596   4.466   7.056   0.437  1.9197 -1.2785 -0.8757
  551TIP3   OH2 1597   6.152   4.216   0.157 -0.1476  0.1371 -0.3018
  551TIP3    H1 1598   6.200   4.277   0.101 -0.2797  1.4351  0.9458
  551TIP3    H2 1599   6.074   4.265   0.183 -0.3468 -0.6400  0.5748
  552TIP3   OH2 1600   7.027   2.873   6.867 -0.5156  0.1661  0.3241
  552TIP3    H1 1601   7.108   2.899   6.909 -0.2098  0.1997 -0.2838
  552TIP3    H2 1602   7.049   2.795   6.817 -0.8109  0.2898 -0.0045
  553TIP3   OH2 1603   2.665   7.492   3.091 -0.8595 -0.5256  0.3538
  553TIP3    H1 1604   2.720   7.565   3.063  0.8390 -1.7517  0.4132
  553TIP3    H2 1605   2.585   7.533   3.124  0.0965  1.3095  0.4301
  554TIP3   OH2 1606   5.937   5.255   6.588  0.9205  0.2830  0.1500
  554TIP3    H1 1607   5.862   5.204   6.618  2.4322 -1.9700  0.2346
  554TIP3    H2 1608   5.899   5.319   6.527 -1.2482  0.2670  1.4260
  555TIP3   OH2 1609   3.164   1.569   0.227 -0.1652  0.1111 -0.2572
  555TIP3    H1 1610   3.223   1.503   0.263 -0.0431 -0.1545 -0.9326
  555TIP3    H2 1611   3.156   1.546   0.134 -0.1368  1.0242 -0.4919
  556TIP3   OH2 1612   1.020   7.767   1.118 -0.7595 -0.3340 -0.4366
  556TIP3    H1 1613   1.113   7.756   1.140 -0.7545 -0.5326 -0.5527
  556TIP3    H2 1614   0.985   7.824   1.187 -0.6549 -0.6296 -0.1402
  557TIP3   OH2 1615   6.554   6.000   6.405 -0.0444 -0.0488 -0.5771
  557TIP3    H1 1616   6.623   6.067   6.406 -2.2948  2.3394  0.7882
  557TIP3    H2 1617   6.513   6.009   6.320 -2.5575  2.7529  0.8462
  558TIP3   OH2 1618   4.566   2.932   0.770  0.9264 -0.2502 -0.2592
  558TIP3    H1 1619   4.573   2.867   0.700 -2.1917 -0.4767 -0.4577
  558TIP3    H2 1620   4.528   3.009   0.727  2.0295  0.7465  0.5364
  559TIP3   OH2 1621   5.917   3.296   1.801  0.3862 -0.1261 -0.7759
  559TIP3    H1 1622   5.945   3.387   1.796 -0.0186 -0.0298 -1.3928
  559TIP3    H2 1623   5.980   3.249   1.746  1.1073 -0.3543  0.2210
  560TIP3   OH2 1624   4.534   2.976   1.094  0.3734 -0.0696  0.0887
  560TIP3    H1 1625   4.505   3.067   1.097 -0.3877 -0.2670 -0.9331
  560TIP3    H2 1626   4.552   2.960   1.001  2.3725 -0.3934  0.5096
  561TIP3   OH2 1627   4.645   2.427   3.655  0.0857 -0.1854 -0.3477
  561TIP3    H1 1628   4.688   2.348   3.623 -0.0981 -0.2362 -0.4714
  561TIP3    H2 1629   4.633   2.481   3.577  2.0845  0.8753  0.0441
  562TIP3   OH2 1630   3.548   1.547   0.012  0.2604  0.6408 -0.2240
  562TIP3    H1 1631   3.535   1.621   0.072 -1.1330 -0.4980  0.9000
  562TIP3    H2 1632   3.470   1.546  -0.043  1.0238  0.9874 -1.3254
  563TIP3   OH2 1633   3.420   1.485   0.900  0.1207 -0.7905  0.1969
  563TIP3    H1 1634   3.335   1.473   0.857  0.3676  1.6781 -1.0785
  563TIP3    H2 1635   3.483   1.481   0.829  0.9950 -1.4618  1.0016
  564TIP3   OH2 1636   4.981   2.537   2.214 -0.1080 -0.2743  0.2822
  564TIP3    H1 1637   4.978   2.586   2.132 -1.5851  0.4188  0.7449
  564TIP3    H2 1638   4.989   2.605   2.282 -0.8161 -0.7491  0.8387
  565TIP3   OH2 1639   0.308   6.097   5.451  0.4430  0.1071 -0.1521
  565TIP3    H1 1640   0.221   6.061   5.466  0.1563  1.9134  3.2040
  565TIP3    H2 1641   0.368   6.031   5.485  0.1665  0.4102  0.9607
  566TIP3   OH2 1642   5.604   6.609   6.656 -0.0551  0.7159 -0.3127
  566TIP3    H1 1643   5.679   6.568   6.613 -0.1208  0.1129  0.1401
  566TIP3    H2 1644   5.575   6.676   6.594  0.3153  0.3653 -0.8727
  567TIP3   OH2 1645   4.386   2.001   1.419  0.6119  0.3255  0.3375
  567TIP3    H1 1646   4.339   1.918   1.422  0.1183  0.6452  1.6914
  567TIP3    H2 1647   4.405   2.014   1.326 -2.4569  0.4495 -0.3378
  568TIP3   OH2 1648   6.279   4.105   1.773  0.1089  0.5679 -0.8432
  568TIP3    H1 1649   6.371   4.087   1.756 -0.0929  1.4492 -2.9944
  568TIP3    H2 1650   6.277   4.192   1.812  0.3917 -0.5717  1.7871
  569TIP3   OH2 1651   5.803   3.269   1.444 -0.4984 -0.3663  0.4386
  569TIP3    H1 1652   5.816   3.192   1.389  1.1988  0.5303 -0.4494
  569TIP3    H2 1653   5.859   3.255   1.520 -1.3508 -0.6964  1.0180
  570TIP3   OH2 1654   6.249   1.995   3.474 -0.5132 -0.6955 -0.5032
  570TIP3    H1 1655   6.277   2.071   3.424 -2.1674  0.7063  0.6554
  570TIP3    H2 1656   6.328   1.963   3.517 -0.1475  1.4054  0.3961
  571TIP3   OH2 1657   0.463   5.518   5.625 -0.1573 -0.3498  0.1835
  571TIP3    H1 1658   0.486   5.452   5.691  0.6970  0.1105  0.3605
  571TIP3    H2 1659   0.369   5.507   5.611  0.0853 -2.0010 -0.2392
  572TIP3   OH2 1660   8.224   3.261   2.582  0.0973 -0.5920 -0.2251
  572TIP3    H1 1661   8.234   3.212   2.664 -1.5292  1.0420  0.9862
  572TIP3    H2 1662   8.163   3.209   2.531 -0.7034 -0.4458  0.5673
  573TIP3   OH2 1663   1.506   4.982   6.307  0.1723 -0.4933 -0.1618
  573TIP3    H1 1664   1.515   5.027   6.223  1.3393  0.6736  0.5858
  573TIP3    H2 1665   1.584   4.928   6.314  0.5133  0.1009  0.5926
  574TIP3   OH2 1666   6.160   2.564   2.278 -0.4801  0.2997 -0.0073
  574TIP3    H1 1667   6.115   2.479   2.284 -0.1802  0.2914  2.3730
  574TIP3    H2 1668   6.252   2.543   2.293 -0.6737  1.3066  2.7232
  575TIP3   OH2 1669   5.210   0.451   0.310  0.5019  0.5057 -0.3502
  575TIP3    H1 1670   5.162   0.370   0.325  0.3376  0.6070 -0.3244
  575TIP3    H2 1671   5.214   0.493   0.396  0.5175  0.5618 -0.3783
  576TIP3   OH2 1672   6.786   1.513   1.314 -0.3991 -0.4082 -0.4627
  576TIP3    H1 1673   6.792   1.590   1.259  0.2784 -0.8486 -1.0177
  576TIP3    H2 1674   6.853   1.454   1.280  0.3354 -0.5042  1.1003
  577TIP3   OH2 1675   5.777   2.062   1.407  0.1292  0.3082 -0.0180
  577TIP3    H1 1676   5.754   2.113   1.330 -1.6323  0.7536  0.7834
  577TIP3    H2 1677   5.724   2.099   1.478 -0.1956 -1.7645  0.8694
  578TIP3   OH2 1678   4.625   1.398   0.872 -0.6354 -0.0423  0.3180
  578TIP3    H1 1679   4.542   1.350   0.875 -0.4031 -0.6307 -1.5448
  578TIP3    H2 1680   4.604   1.480   0.827 -0.5523  0.5950  1.4216
  579TIP3   OH2 1681   7.524   1.975   0.775 -0.2386 -0.2918 -0.0766
  579TIP3    H1 1682   7.477   1.901   0.813 -2.9973  2.0931  1.4541
  579TIP3    H2 1683   7.595   1.992   0.837  0.1076 -1.3545 -0.1755
  580TIP3   OH2 1684   6.253   0.990   0.192 -0.6057 -0.5590 -0.1825
  580TIP3    H1 1685   6.345   0.996   0.218 -1.2754  2.5085  1.7316
  580TIP3    H2 1686   6.248   1.038   0.109 -0.9596  2.0264  1.2650
  581TIP3   OH2 1687   7.181   0.306   1.563  0.0111  0.5628  0.1985
  581TIP3    H1 1688   7.169   0.305   1.468 -1.2733  0.0989  0.3577
  581TIP3    H2 1689   7.107   0.256   1.598  1.4116 -0.7701  1.3511
  582TIP3   OH2 1690   5.571   2.750   1.558  0.3171  0.0110 -0.6661
  582TIP3    H1 1691   5.511   2.801   1.614 -1.1677 -0.1582 -2.0683
  582TIP3    H2 1692   5.633   2.711   1.619 -1.7079 -0.7696  0.9628
  583TIP3   OH2 1693   7.942   4.967   6.054  0.3617  0.2703 -0.8638
  583TIP3    H1 1694   7.962   5.057   6.081  2.1024 -0.4816  0.4757
  583TIP3    H2 1695   8.027   4.924   6.050 -0.2175 -0.6966 -3.9282
  584TIP3   OH2 1696   2.655   0.653   0.040 -0.2098  0.1840 -0.0455
  584TIP3    H1 1697   2.561   0.638   0.053 -0.3089  0.0969 -0.8374
  584TIP3    H2 1698   2.690   0.567   0.016  0.0583  0.2370  0.1513
  585TIP3   OH2 1699   5.732   1.603   0.977 -0.3779 -0.7338  0.1754
  585TIP3    H1 1700   5.722   1.542   0.904 -0.5916 -0.6549  0.1399
  585TIP3    H2 1701   5.826   1.601   0.997 -0.9299 -4.2900  2.9315
  586TIP3   OH2 1702   7.297   0.974   0.544 -0.0643 -0.0560 -0.1933
  586TIP3    H1 1703   7.326   0.990   0.633  0.6443  0.2582 -0.4760
  586TIP3    H2 1704   7.208   0.939   0.553  0.5473 -1.3796  0.6903
  587TIP3   OH2 1705   1.532   7.832   6.634  0.1482  0.3230  0.0836
  587TIP3    H1 1706   1.500   7.821   6.724  2.0401 -2.0524  0.5426
  587TIP3    H2 1707   1.486   7.764   6.584  0.0511  0.8038 -0.4829
  588TIP3   OH2 1708   7.496   2.340   1.506 -0.1939 -0.2766  0.2921
  588TIP3    H1 1709   7.576   2.324   1.456 -0.5381 -1.2264  0.0316
  588TIP3    H2 1710   7.444   2.261   1.494 -2.3546  1.4025 -1.7358
  589TIP3   OH2 1711   7.579   4.882   6.109 -0.3294  0.3129  0.1195
  589TIP3    H1 1712   7.577   4.826   6.186  0.2990 -0.2612 -0.2732
  589TIP3    H2 1713   7.487   4.898   6.088 -0.5634 -1.7889 -0.6359
  590TIP3   OH2 1714   3.985   7.684   0.147 -0.2078 -0.2023 -0.0091
  590TIP3    H1 1715   3.918   7.706   0.212 -0.6012 -1.2885 -0.0323
  590TIP3    H2 1716   3.986   7.588   0.146  0.1858 -0.1868 -1.2060
  591TIP3   OH2 1717   3.465   1.169   0.404  0.0699  0.4633 -0.1880
  591TIP3    H1 1718   3.449   1.093   0.461 -0.6451  1.1635  0.5645
  591TIP3    H2 1719   3.546   1.208   0.437 -0.3751  0.9024  0.4044
  592TIP3   OH2 1720   6.403   2.479   2.361 -0.0963 -0.0908  0.4005
  592TIP3    H1 1721   6.479   2.526   2.394  0.7807 -1.4019  0.2837
  592TIP3    H2 1722   6.438   2.420   2.295 -1.6337  1.6121 -2.0467
  593TIP3   OH2 1723   7.649   4.313   0.673  0.1104 -0.4505  0.0846
  593TIP3    H1 1724   7.589   4.239   0.666  0.6814 -1.0067  0.9357
  593TIP3    H2 1725   7.701   4.294   0.751 -1.1958  1.9002  1.6056
  594TIP3   OH2 1726   8.470   3.519   6.829 -0.2646  0.2896 -0.1501
  594TIP3    H1 1727   8.375   3.516   6.818 -0.2681  1.0354 -0.3098
  594TIP3    H2 1728   8.497   3.599   6.784  0.1971  1.2332  1.7597
  595TIP3   OH2 1729   1.404   5.602   6.959  0.2710 -0.1477 -0.1181
  595TIP3    H1 1730   1.438   5.514   6.973  0.1959 -0.2011 -0.2696
  595TIP3    H2 1731   1.431   5.625   6.870  1.1945  0.3917  0.2966
  596TIP3   OH2 1732   3.304   1.426   2.219  0.5403 -0.0337  0.2758
  596TIP3    H1 1733   3.322   1.520   2.212  0.4334  0.2040  2.6144
  596TIP3    H2 1734   3.267   1.402   2.134 -1.2320  2.4532  0.2876
  597TIP3   OH2 1735   5.969   0.188   1.760 -0.2256 -0.0579 -0.0528
  597TIP3    H1 1736   5.982   0.094   1.775 -2.9669 -0.2741  1.3204
  597TIP3    H2 1737   6.045   0.229   1.802  1.0217 -1.6274 -0.6976
  598TIP3   OH2 1738   7.847   4.164   6.114 -0.6447 -0.1557  0.8526
  598TIP3    H1 1739   7.851   4.188   6.021  0.1609 -0.6731  0.7507
  598TIP3    H2 1740   7.781   4.096   6.118  1.6408 -2.5250  0.1081
  599TIP3   OH2 1741   2.537   7.414   0.048 -0.5725 -0.2702  0.0006
  599TIP3    H1 1742   2.475   7.436  -0.022 -0.3149 -1.3931 -0.5980
  599TIP3    H2 1743   2.512   7.326   0.076  0.4512 -0.5495  0.0707
  600TIP3   OH2 1744   7.574   2.418   0.924 -0.7641 -0.4042  1.0549
  600TIP3    H1 1745   7.573   2.358   0.849 -0.7186 -0.0346  0.7588
  600TIP3    H2 1746   7.488   2.407   0.965 -0.4716 -1.2420  1.4526
  601TIP3   OH2 1747   6.476   0.450   0.843  0.0919  0.1261 -0.6487
  601TIP3    H1 1748   6.384   0.427   0.825  0.3753 -0.4606 -1.3856
  601TIP3    H2 1749   6.495   0.521   0.783 -0.3747  1.3866  0.6793
  602TIP3   OH2 1750   5.896   3.665   2.165  0.1227  0.0955 -0.1088
  602TIP3    H1 1751   5.942   3.581   2.171  1.4267  0.8010  0.1371
  602TIP3    H2 1752   5.909   3.693   2.074 -1.8734 -0.8063 -0.7065
  603TIP3   OH2 1753   3.712   0.410   1.665 -0.0125  0.7465  0.3880
  603TIP3    H1 1754   3.620   0.384   1.660  0.0507 -0.0173  2.6885
  603TIP3    H2 1755   3.712   0.490   1.717  0.6589  0.5186  0.7425
  604TIP3   OH2 1756   7.910   5.479   5.605  0.1853 -0.0495 -0.3563
  604TIP3    H1 1757   7.822   5.453   5.577 -0.1345  0.3843  0.2389
  604TIP3    H2 1758   7.962   5.399   5.599 -0.3183 -0.3680 -0.4499
  605TIP3   OH2 1759   3.679   3.209   2.317 -0.3920 -0.1360 -0.5748
  605TIP3    H1 1760   3.732   3.287   2.301  0.6128 -1.2081 -2.6134
  605TIP3    H2 1761   3.725   3.162   2.387 -0.1878  0.3452 -0.3836
  606TIP3   OH2 1762   8.187   4.543   6.112 -0.2104  0.4988  0.3160
  606TIP3    H1 1763   8.279   4.536   6.088 -0.4794  1.8241 -1.1849
  606TIP3    H2 1764   8.185   4.605   6.185  0.1302  0.0447  0.7153
  607TIP3   OH2 1765   5.604   2.637   2.349 -0.0314  0.3380  0.2894
  607TIP3    H1 1766   5.549   2.716   2.351  0.6954  0.8437  0.4178
  607TIP3    H2 1767   5.674   2.658   2.286  1.3885  0.6208  1.9391
  608TIP3   OH2 1768   5.545   1.435   1.128  0.0083 -0.5962  0.3091
  608TIP3    H1 1769   5.592   1.506   1.084 -0.1648  0.0103  1.0796
  608TIP3    H2 1770   5.512   1.475   1.209 -1.2900 -1.1728  0.0883
  609TIP3   OH2 1771   3.823   1.966   3.572  0.0061  0.6785  0.6799
  609TIP3    H1 1772   3.746   2.013   3.541  0.2561 -0.2874 -1.4954
  609TIP3    H2 1773   3.788   1.884   3.607 -0.0819  0.9002  1.1213
  610TIP3   OH2 1774   6.985   5.724   6.557  0.3480 -0.0804  0.1361
  610TIP3    H1 1775   6.973   5.750   6.466 -0.7641 -0.4087  0.1759
  610TIP3    H2 1776   6.974   5.805   6.607 -3.1412 -0.5562  0.2632
  611TIP3   OH2 1777   6.244   2.246   0.075 -0.0898  0.2641  0.3317
  611TIP3    H1 1778   6.286   2.264  -0.009  0.0560 -1.6939 -0.0579
  611TIP3    H2 1779   6.314   2.207   0.128 -0.1097  1.7433  1.4763
  612TIP3   OH2 1780   7.568   3.681   6.791 -0.3352 -0.0206 -0.0457
  612TIP3    H1 1781   7.646   3.721   6.831 -0.4992  1.6749 -1.3886
  612TIP3    H2 1782   7.504   3.679   6.862  0.4093  0.0508  0.6417
  613TIP3   OH2 1783   0.040   5.069   6.699  0.0627 -0.4488 -0.3732
  613TIP3    H1 1784   0.112   5.096   6.756  1.2164 -0.8676 -1.6263
  613TIP3    H2 1785   0.020   5.147   6.647 -0.1344 -0.4560 -0.3108
  614TIP3   OH2 1786   3.972   4.547   1.662 -0.4257 -0.0480  0.1588
  614TIP3    H1 1787   3.963   4.531   1.756 -0.9349  0.6533  0.2316
  614TIP3    H2 1788   3.893   4.509   1.624 -1.5283  1.9937  0.3059
  615TIP3   OH2 1789   3.147   0.811   0.419  0.6613  0.3121 -0.1111
  615TIP3    H1 1790   3.091   0.816   0.342 -0.3489  0.4356  0.6209
  615TIP3    H2 1791   3.234   0.832   0.387 -0.0187  1.9446 -0.9158
  616TIP3   OH2 1792   4.604   1.793   0.286 -0.3244  0.4812 -0.0468
  616TIP3    H1 1793   4.660   1.732   0.238 -2.7276 -1.5008 -0.4265
  616TIP3    H2 1794   4.662   1.833   0.351  2.0402  0.2309 -1.9295
  617TIP3   OH2 1795   3.215   7.861   0.932 -0.0968 -0.4674 -0.4944
  617TIP3    H1 1796   3.175   7.914   0.864  0.0186 -0.1905 -0.3459
  617TIP3    H2 1797   3.304   7.895   0.941 -0.1900 -0.3382 -0.0351
  618TIP3   OH2 1798   6.071   1.048   1.233 -0.0154 -0.3533 -0.0343
  618TIP3    H1 1799   6.098   1.113   1.299  0.2142  0.7900 -1.2452
  618TIP3    H2 1800   6.097   0.964   1.271  2.1519  0.4700  0.3714
  619TIP3   OH2 1801   4.163   2.916   2.860  0.1589 -0.7192 -0.3278
  619TIP3    H1 1802   4.188   2.831   2.825  0.5273 -0.9092  0.3739
  619TIP3    H2 1803   4.234   2.938   2.921 -0.7480 -0.6722  0.7151
  620TIP3   OH2 1804   6.618   1.936   0.914  0.1679 -1.3665  0.2231
  620TIP3    H1 1805   6.551   1.893   0.967  0.3634 -3.7091 -1.3328
  620TIP3    H2 1806   6.673   1.864   0.883  2.5871  0.3722  0.3113
  621TIP3   OH2 1807   6.183   1.433   0.898  0.4103 -0.0639  0.3985
  621TIP3    H1 1808   6.134   1.421   0.817  2.4481  0.4515 -0.9455
  621TIP3    H2 1809   6.174   1.349   0.944 -2.8140  0.4587  0.8533
  622TIP3   OH2 1810   6.776   2.095   1.110 -0.1854  0.1587 -0.0987
  622TIP3    H1 1811   6.738   2.102   1.022  0.7940 -2.4602 -0.7777
  622TIP3    H2 1812   6.714   2.041   1.159  0.5938 -0.6363  0.0173
  623TIP3   OH2 1813   1.280   6.180   6.201 -0.0271  0.5132  0.2944
  623TIP3    H1 1814   1.248   6.230   6.276  0.1410 -2.6978  2.5716
  623TIP3    H2 1815   1.374   6.201   6.197  0.0275  0.4642  1.1928
  624TIP3   OH2 1816   1.273   5.997   6.573 -0.4561  0.0818  0.3817
  624TIP3    H1 1817   1.219   6.068   6.539  2.2884  1.7003 -0.8070
  624TIP3    H2 1818   1.309   6.031   6.655  0.8858  0.0864 -0.2044
  625TIP3   OH2 1819   8.267   1.734   1.780  0.3466 -0.6749  0.1894
  625TIP3    H1 1820   8.272   1.823   1.816 -0.5453 -0.6616  0.2912
  625TIP3    H2 1821   8.337   1.731   1.715 -0.8048  0.7316 -1.1742
  626TIP3   OH2 1822   5.906   1.698   2.301  0.9336  0.0363  0.2087
  626TIP3    H1 1823   5.930   1.613   2.339  0.8475 -0.5287 -0.9705
  626TIP3    H2 1824   5.987   1.749   2.302  0.6104  0.5555  2.4670
  627TIP3   OH2 1825   6.029   3.573   0.300  0.4940  0.5177  0.2386
  627TIP3    H1 1826   6.080   3.646   0.332 -0.1669  0.6071  1.1246
  627TIP3    H2 1827   6.084   3.496   0.315  0.8985  0.7554 -0.0366
  628TIP3   OH2 1828   6.122   4.231   1.269  0.4472 -0.2845 -0.1573
  628TIP3    H1 1829   6.073   4.258   1.192  1.5325 -1.2778 -1.2275
  628TIP3    H2 1830   6.083   4.147   1.294  0.7610 -0.4629 -0.2572
  629TIP3   OH2 1831   5.192   1.969   1.102  0.4852  0.1896  0.4250
  629TIP3    H1 1832   5.176   1.952   1.009  1.5725  0.4232  0.1928
  629TIP3    H2 1833   5.278   2.011   1.105 -0.6617  2.5825  1.2944
  630TIP3   OH2 1834   0.999   5.639   6.705 -0.3789  0.3367  0.4421
  630TIP3    H1 1835   0.961   5.662   6.789 -0.7036 -2.2220  1.0413
  630TIP3    H2 1836   1.031   5.550   6.716  2.1298  0.9471 -1.3054
  631TIP3   OH2 1837   7.654   1.753   1.174  0.4796 -0.7893  0.1315
  631TIP3    H1 1838   7.630   1.680   1.117  2.4139 -0.4724 -1.1454
  631TIP3    H2 1839   7.638   1.831   1.122  2.2835 -0.4945 -0.0118
  632TIP3   OH2 1840   3.936   1.311   6.772 -0.6026 -0.3048 -0.3611
  632TIP3    H1 1841   3.866   1.357   6.818 -1.4982 -2.1634  0.1530
  632TIP3    H2 1842   4.000   1.290   6.841  0.8921  2.0871 -0.9485
  633TIP3   OH2 1843   2.142   6.378   6.205  0.2296 -0.1090  0.0955
  633TIP3    H1 1844   2.228   6.336   6.206 -0.1159 -0.8393 -0.6149
  633TIP3    H2 1845   2.160   6.470   6.226  1.3643  0.0658 -1.5093
  634TIP3   OH2 1846   7.071   1.533   3.015 -0.2082  0.5886  0.4747
  634TIP3    H1 1847   7.110   1.603   2.964 -0.5277 -0.3450 -1.0887
  634TIP3    H2 1848   6.980   1.529   2.985 -0.4489  0.1468  1.2465
  635TIP3   OH2 1849   7.313   2.340   1.022 -0.3900  0.1719  0.4942
  635TIP3    H1 1850   7.237   2.383   1.062 -1.3895 -2.8160  1.9238
  635TIP3    H2 1851   7.281   2.253   0.998  2.6269 -1.1997  1.2693
  636TIP3   OH2 1852   0.194   1.907   0.806  0.3644  0.1970 -0.3710
  636TIP3    H1 1853   0.243   1.959   0.743 -0.5413 -1.7991 -2.7689
  636TIP3    H2 1854   0.131   1.968   0.844  0.9023  1.3978 -1.4039
  637TIP3   OH2 1855   6.300   3.591   0.681  0.2135 -0.6711  0.4497
  637TIP3    H1 1856   6.209   3.582   0.652 -0.3613 -0.5742  2.1768
  637TIP3    H2 1857   6.334   3.665   0.630 -0.7499 -0.5479 -0.0269
  638TIP3   OH2 1858   0.694   2.676   0.347 -0.2741  0.0952 -0.8545
  638TIP3    H1 1859   0.644   2.631   0.279 -0.6097 -0.7962 -0.0230
  638TIP3    H2 1860   0.660   2.641   0.429  0.9505  0.2925 -0.2494
  639TIP3   OH2 1861   6.863   1.535   2.793  0.2295  0.0150  0.3952
  639TIP3    H1 1862   6.796   1.510   2.856  0.4447 -0.5811  0.3882
  639TIP3    H2 1863   6.889   1.453   2.751 -0.9722  0.5966 -1.5402
  640TIP3   OH2 1864   7.649   2.503   0.064 -1.0149  0.3091 -0.2247
  640TIP3    H1 1865   7.600   2.426   0.036 -0.6969 -0.0995  0.3355
  640TIP3    H2 1866   7.588   2.576   0.052 -0.8058  0.1692 -2.1744
  641TIP3   OH2 1867   1.782   1.365   1.066  0.0620  0.1473  0.1618
  641TIP3    H1 1868   1.754   1.386   0.977  1.5229  0.4299 -0.2558
  641TIP3    H2 1869   1.802   1.272   1.065  0.3696  0.2127  0.1070
  642TIP3   OH2 1870   7.897   1.420   0.477  0.7059 -0.2202 -0.0891
  642TIP3    H1 1871   7.969   1.406   0.540  0.8167  0.8215  0.0257
  642TIP3    H2 1872   7.889   1.515   0.471 -0.1641 -0.3281 -0.6877
  643TIP3   OH2 1873   7.491   2.701   0.995  0.1808 -0.4707 -0.2488
  643TIP3    H1 1874   7.524   2.622   0.952  0.6183 -1.2720  1.4896
  643TIP3    H2 1875   7.476   2.673   1.086 -2.4112  0.6765 -0.2908
  644TIP3   OH2 1876   6.325   1.281   1.149 -0.7822 -0.2578  0.1090
  644TIP3    H1 1877   6.269   1.216   1.107 -0.6413  0.1476 -0.7293
  644TIP3    H2 1878   6.283   1.365   1.128  0.5065  0.0963 -1.1043
  645TIP3   OH2 1879   6.147   0.256   0.437 -0.4432 -0.3703 -0.2306
  645TIP3    H1 1880   6.075   0.263   0.499 -0.5558 -1.9855 -0.1634
  645TIP3    H2 1881   6.106   0.236   0.353 -0.3477  2.5332 -1.0160
  646TIP3   OH2 1882   6.220   3.080   2.650  0.2190  0.9339  0.0803
  646TIP3    H1 1883   6.234   3.014   2.717 -0.2666  0.2532 -0.4812
  646TIP3    H2 1884   6.305   3.089   2.607 -0.8265 -2.9071 -3.0729
  647TIP3   OH2 1885   5.981   0.465   0.022  0.7605  0.1681 -0.6177
  647TIP3    H1 1886   5.936   0.485   0.104  0.0719 -1.4976 -0.5708
  647TIP3    H2 1887   6.012   0.550  -0.010 -0.8035  1.0959  0.2907
  648TIP3   OH2 1888   0.156   5.302   6.894  0.2980 -0.4687 -0.4186
  648TIP3    H1 1889   0.243   5.282   6.929  0.3649  0.4805 -0.0446
  648TIP3    H2 1890   0.157   5.396   6.879 -1.0644 -0.2481  0.7153
  649TIP3   OH2 1891   6.443   2.578   0.731  0.1023 -0.6800 -0.1902
  649TIP3    H1 1892   6.376   2.605   0.668  0.8632 -0.8031 -1.0715
  649TIP3    H2 1893   6.463   2.658   0.780  1.1087 -0.0213 -1.6257
  650TIP3   OH2 1894   7.487   4.135   1.431  0.1580 -0.0405  0.0230
  650TIP3    H1 1895   7.433   4.209   1.459  0.2653  0.4852 -1.1322
  650TIP3    H2 1896   7.451   4.060   1.479 -0.2671  0.6665  0.8317
  651TIP3   OH2 1897   7.913   3.716   0.341 -0.0439  0.0675 -0.1362
  651TIP3    H1 1898   7.999   3.752   0.360  0.2230 -1.4591  1.7186
  651TIP3    H2 1899   7.854   3.763   0.401 -0.1991 -0.2036 -0.0762
  652TIP3   OH2 1900   6.834   4.949   1.381  0.8724  0.1357 -0.4743
  652TIP3    H1 1901   6.823   4.957   1.286 -3.2468  2.2165  0.0429
  652TIP3    H2 1902   6.759   4.897   1.409  0.9666  1.1986  1.8202
  653TIP3   OH2 1903   0.084   3.754   1.540 -0.0291  0.2052  0.1222
  653TIP3    H1 1904   0.013   3.818   1.531  0.3591  0.5475 -0.6197
  653TIP3    H2 1905   0.040   3.672   1.562 -0.7177  0.2736 -0.9560
  654TIP3   OH2 1906   1.781   5.372   6.444  0.0413  0.7598  0.1998
  654TIP3    H1 1907   1.703   5.323   6.418  0.5834  0.8791 -1.7481
  654TIP3    H2 1908   1.819   5.320   6.514 -0.1437 -0.9404 -0.9150
  655TIP3   OH2 1909   7.054   3.524   0.473 -0.0043  0.1804 -0.8925
  655TIP3    H1 1910   6.970   3.500   0.513  0.0357  0.2573 -0.7633
  655TIP3    H2 1911   7.092   3.440   0.445  0.8769 -0.0796  1.0214
  656TIP3   OH2 1912   1.719   2.428   2.042 -0.0330 -0.0556 -0.3409
  656TIP3    H1 1913   1.653   2.497   2.027 -0.7888 -0.8567 -0.7315
  656TIP3    H2 1914   1.678   2.348   2.008  0.7764 -0.7319  0.2680
  657TIP3   OH2 1915   1.342   3.385   2.095  0.5573 -0.0982  0.0987
  657TIP3    H1 1916   1.371   3.319   2.158 -1.2332 -0.6065  0.4263
  657TIP3    H2 1917   1.350   3.342   2.010  1.9393  0.2107  0.0582
  658TIP3   OH2 1918   0.040   3.245   1.937 -0.0005 -0.3732  0.5254
  658TIP3    H1 1919   0.044   3.191   1.858 -1.5038 -2.3466  1.7267
  658TIP3    H2 1920  -0.052   3.270   1.945 -0.0138 -0.7956  1.9999
  659TIP3   OH2 1921   1.368   2.847   2.536  0.0087 -0.0914 -0.1131
  659TIP3    H1 1922   1.274   2.845   2.554  0.3249  0.5272  1.6393
  659TIP3    H2 1923   1.389   2.940   2.529  0.3311 -0.2451 -1.4853
  660TIP3   OH2 1924   1.366   5.252   2.876  0.9011 -0.2990 -0.1499
  660TIP3    H1 1925   1.337   5.265   2.966  0.1323 -1.2250 -0.2468
  660TIP3    H2 1926   1.420   5.173   2.880  1.9482  0.4047 -0.2811
  661TIP3   OH2 1927   6.699   5.174   2.030 -0.1078 -0.4923 -0.7755
  661TIP3    H1 1928   6.701   5.267   2.056 -0.2733 -0.2401 -1.6578
  661TIP3    H2 1929   6.748   5.129   2.099 -0.4631  0.1860 -0.0697
  662TIP3   OH2 1930   2.269   6.641   5.829 -0.3153 -0.1619 -0.2511
  662TIP3    H1 1931   2.232   6.684   5.906  1.2151 -1.0997  1.0482
  662TIP3    H2 1932   2.194   6.620   5.774 -1.4260  0.5689  0.9712
  663TIP3   OH2 1933   1.267   1.581   4.339  0.3615  0.0526  0.2059
  663TIP3    H1 1934   1.192   1.618   4.387  0.7120 -1.3067  1.8248
  663TIP3    H2 1935   1.235   1.499   4.303 -0.0542  1.2998 -2.3935
  664TIP3   OH2 1936   1.167   5.312   1.972 -0.4467  0.0122 -0.1855
  664TIP3    H1 1937   1.158   5.287   1.880  2.3423 -0.7415 -0.2902
  664TIP3    H2 1938   1.092   5.369   1.989 -1.8987 -1.1485 -2.4599
  665TIP3   OH2 1939   0.391   3.464   1.976  0.5833  0.9230 -0.1283
  665TIP3    H1 1940   0.378   3.503   2.063  1.0135  0.6123  0.0763
  665TIP3    H2 1941   0.306   3.426   1.954  1.0766 -0.9982  1.1531
  666TIP3   OH2 1942   0.643   3.139   1.295 -0.1333 -0.1250  0.3287
  666TIP3    H1 1943   0.621   3.140   1.388 -0.9681  1.1300  0.1274
  666TIP3    H2 1944   0.682   3.053   1.280 -0.3234 -0.4610  1.7650
  667TIP3   OH2 1945   0.619   5.130   4.599  0.1575  0.0905 -0.6505
  667TIP3    H1 1946   0.639   5.110   4.690 -0.0659 -0.9457 -0.8274
  667TIP3    H2 1947   0.581   5.050   4.564 -0.8395  0.8588 -1.3452
  668TIP3   OH2 1948   8.411   2.927   2.381  0.2335 -0.8292 -0.2027
  668TIP3    H1 1949   8.327   2.924   2.426  0.2973  3.7331  0.4544
  668TIP3    H2 1950   8.476   2.908   2.449 -0.0575 -0.5569  0.1509
  669TIP3   OH2 1951   0.504   4.704   2.970  0.2267  0.0073 -0.0336
  669TIP3    H1 1952   0.500   4.634   3.035 -0.8994  0.6567  0.6009
  669TIP3    H2 1953   0.423   4.695   2.920  0.0867  0.8573  0.0466
  670TIP3   OH2 1954   4.870   6.987   6.409  0.7195 -0.1043  0.1818
  670TIP3    H1 1955   4.876   6.901   6.450  0.7927  0.2197  0.8538
  670TIP3    H2 1956   4.885   7.049   6.480 -0.2859  0.4867 -0.1069
  671TIP3   OH2 1957   1.524   6.255   0.629 -0.1735 -0.4765 -0.2154
  671TIP3    H1 1958   1.571   6.286   0.551 -1.2048 -1.1108 -1.1050
  671TIP3    H2 1959   1.502   6.164   0.609 -1.0491 -0.4394  0.5317
  672TIP3   OH2 1960   8.356   3.387   2.822 -0.0329 -0.5729  0.2400
  672TIP3    H1 1961   8.318   3.446   2.756 -0.5520 -1.4360 -0.2431
  672TIP3    H2 1962   8.437   3.355   2.781  1.7367  1.9353  1.6102
  673TIP3   OH2 1963   7.769   2.341   4.282 -0.8565  0.1731  0.1598
  673TIP3    H1 1964   7.737   2.252   4.300  0.1827 -0.0168  1.1967
  673TIP3    H2 1965   7.822   2.363   4.359 -0.9707  1.6304 -0.1673
  674TIP3   OH2 1966   8.466   1.922   3.327  0.0515 -0.2815 -0.7212
  674TIP3    H1 1967   8.498   1.832   3.331  0.1209 -0.2041  0.7998
  674TIP3    H2 1968   8.511   1.961   3.252  1.7945 -0.8201  0.0399
  675TIP3   OH2 1969   0.615   2.595   2.756  0.1329  0.9988  0.3455
  675TIP3    H1 1970   0.654   2.641   2.682  0.3321 -0.9675 -0.8202
  675TIP3    H2 1971   0.566   2.523   2.716  2.5016 -1.7563  2.2611
  676TIP3   OH2 1972   0.484   4.352   4.381  0.2909  0.0363  0.2083
  676TIP3    H1 1973   0.478   4.376   4.474  1.2597 -0.1696  0.3327
  676TIP3    H2 1974   0.431   4.273   4.374  0.7717 -0.3447  0.7428
  677TIP3   OH2 1975   1.203   4.332   2.778 -0.6360 -0.2516 -0.3766
  677TIP3    H1 1976   1.195   4.413   2.728 -0.1206 -0.3609 -0.6465
  677TIP3    H2 1977   1.280   4.345   2.833 -1.2564 -0.0983  0.4568
  678TIP3   OH2 1978   1.661   4.536   1.525 -0.3847 -0.4829  0.0550
  678TIP3    H1 1979   1.680   4.450   1.561  0.2803 -0.3923 -0.0604
  678TIP3    H2 1980   1.683   4.597   1.596 -0.7735 -0.4081  0.1084
  679TIP3   OH2 1981   1.851   1.479   3.845  0.2100  0.0066  0.0558
  679TIP3    H1 1982   1.858   1.559   3.896  1.1203  0.5548 -0.9100
  679TIP3    H2 1983   1.938   1.467   3.806 -0.3926 -0.5160 -1.1638
  680TIP3   OH2 1984   5.672   0.026   6.262 -0.4782 -0.6463  0.1951
  680TIP3    H1 1985   5.742  -0.005   6.205 -0.6873 -2.3243  0.8284
  680TIP3    H2 1986   5.699  -0.000   6.350 -0.5314  1.2406  0.8020
  681TIP3   OH2 1987   4.493   0.011   0.382 -0.1662  0.1111  0.0438
  681TIP3    H1 1988   4.526   0.067   0.452 -0.0608  0.1534 -0.0390
  681TIP3    H2 1989   4.563  -0.052   0.367 -0.2141  0.0650  0.0174
  682TIP3   OH2 1990   8.280   5.363   3.787 -0.5231  0.3683  0.3291
  682TIP3    H1 1991   8.210   5.327   3.733 -0.2976 -3.0547  2.1926
  682TIP3    H2 1992   8.236   5.397   3.865 -0.3459  0.5550  0.3492
  683TIP3   OH2 1993   1.183   2.946   1.263 -0.0625  0.2916  0.5011
  683TIP3    H1 1994   1.264   2.948   1.212  0.1209  0.6773  0.8026
  683TIP3    H2 1995   1.211   2.917   1.350 -0.4533 -0.8668  0.2377
  684TIP3   OH2 1996   8.036   4.962   2.207 -0.6119 -0.6568 -0.5235
  684TIP3    H1 1997   7.996   4.877   2.227  0.0111 -0.7987  0.1241
  684TIP3    H2 1998   7.970   5.026   2.233 -0.9756 -0.9280 -0.7659
  685TIP3   OH2 1999   0.543   2.840   3.728  0.2290 -0.1023  0.0784
  685TIP3    H1 2000   0.622   2.817   3.680  0.2133 -2.3311  1.0540
  685TIP3    H2 2001   0.484   2.766   3.714  0.1310 -0.7013  3.2444
  686TIP3   OH2 2002   2.482   7.288   6.545 -0.4131 -0.0803  0.6648
  686TIP3    H1 2003   2.573   7.316   6.543 -0.4127 -0.0609  0.8884
  686TIP3    H2 2004   2.486   7.193   6.558 -0.4160 -0.1731  0.0189
  687TIP3   OH2 2005   1.751   3.136   2.104  0.7615 -0.2443 -0.0583
  687TIP3    H1 2006   1.757   3.222   2.144 -0.9332 -0.6775  1.2050
  687TIP3    H2 2007   1.804   3.079   2.160 -0.7734 -0.6441  1.0345
  688TIP3   OH2 2008   1.736   4.416   0.486 -0.2528 -0.2651  0.0945
  688TIP3    H1 2009   1.782   4.342   0.447  2.0210  0.9673  0.2778
  688TIP3    H2 2010   1.706   4.467   0.411 -1.4106 -1.1333 -0.0313
  689TIP3   OH2 2011   7.431   3.517   1.819  0.3136 -0.1099  0.4901
  689TIP3    H1 2012   7.513   3.518   1.868  1.2812  0.5663 -1.1212
  689TIP3    H2 2013   7.428   3.430   1.779 -0.7103 -0.8392  2.0951
  690TIP3   OH2 2014   0.979   3.141   3.060 -0.6049 -0.6786  0.0101
  690TIP3    H1 2015   0.904   3.139   3.118  0.1394 -0.5503  0.9835
  690TIP3    H2 2016   0.979   3.228   3.021  0.1459 -0.0094  1.4797
  691TIP3   OH2 2017   1.465   5.080   4.277 -0.0348 -0.0068 -0.3352
  691TIP3    H1 2018   1.499   5.017   4.213  2.6557  0.0039  0.9865
  691TIP3    H2 2019   1.443   5.026   4.354  2.3369  0.6149  0.8226
  692TIP3   OH2 2020   8.462   1.943   2.274 -0.4113  0.2149  0.1310
  692TIP3    H1 2021   8.465   1.951   2.178 -0.7482 -0.7787  0.0351
  692TIP3    H2 2022   8.369   1.949   2.296 -0.5842 -2.0926  0.1542
  693TIP3   OH2 2023   6.754   5.282   5.728  0.4552  0.2908  0.0495
  693TIP3    H1 2024   6.770   5.248   5.815  0.4755  0.8908  0.2825
  693TIP3    H2 2025   6.661   5.266   5.712  0.8584 -1.5432 -0.5827
  694TIP3   OH2 2026   0.222   4.861   1.894 -0.3447 -0.1031  0.0002
  694TIP3    H1 2027   0.310   4.876   1.862 -0.0386 -0.3208  0.7318
  694TIP3    H2 2028   0.211   4.766   1.891 -0.8316 -0.0278 -0.8114
  695TIP3   OH2 2029   3.370   2.563   1.329 -0.2421  1.1417 -0.3764
  695TIP3    H1 2030   3.284   2.602   1.346 -0.1357  1.5535 -0.7767
  695TIP3    H2 2031   3.350   2.479   1.287 -0.4504  1.1362 -0.2730
  696TIP3   OH2 2032   2.122   3.185   1.955 -0.3963 -0.4269 -0.3728
  696TIP3    H1 2033   2.039   3.219   1.921 -0.8973 -0.7727  0.5111
  696TIP3    H2 2034   2.187   3.212   1.889 -1.2594 -0.4884 -1.2605
  697TIP3   OH2 2035   1.815   4.379   2.168  0.3950  0.1438  0.5466
  697TIP3    H1 2036   1.743   4.317   2.153  2.6251 -1.5637 -3.7182
  697TIP3    H2 2037   1.881   4.328   2.214  1.8484 -0.4583 -2.1328
  698TIP3   OH2 2038   1.796   5.361   0.332 -0.3149 -0.6865 -0.1219
  698TIP3    H1 2039   1.717   5.309   0.343  1.0608 -3.0349 -0.8900
  698TIP3    H2 2040   1.840   5.355   0.417 -1.6662  1.9285  0.8167
  699TIP3   OH2 2041   7.201   0.951   2.719 -0.0186 -0.1418  0.0129
  699TIP3    H1 2042   7.279   0.996   2.753 -0.1931 -0.6700  1.1116
  699TIP3    H2 2043   7.232   0.864   2.696 -0.3744 -0.5010  0.8699
  700TIP3   OH2 2044   1.832   4.063   0.983 -0.0500 -1.0382  0.3604
  700TIP3    H1 2045   1.874   4.069   0.897 -0.7474 -0.3269  0.0637
  700TIP3    H2 2046   1.760   4.126   0.979 -0.6247 -1.6359  1.1594
  701TIP3   OH2 2047   1.423   2.918   0.178 -0.0921  0.3496  0.3453
  701TIP3    H1 2048   1.496   2.888   0.124 -0.4132  0.4661 -0.1557
  701TIP3    H2 2049   1.366   2.964   0.117 -1.4580 -1.2571  0.3982
  702TIP3   OH2 2050   4.387   3.207   2.312  0.5351  0.4796  0.2589
  702TIP3    H1 2051   4.344   3.284   2.274 -1.0235 -1.0630 -1.1549
  702TIP3    H2 2052   4.481   3.225   2.300  0.2853  2.9181  1.5022
  703TIP3   OH2 2053   2.317   4.620   1.385  0.0337 -0.1754  0.3699
  703TIP3    H1 2054   2.239   4.566   1.372  0.5219 -0.7504 -0.2316
  703TIP3    H2 2055   2.390   4.564   1.358  0.4745  1.0801 -1.1191
  704TIP3   OH2 2056   1.906   3.163   2.478 -0.0167 -0.4311 -0.1466
  704TIP3    H1 2057   1.992   3.126   2.500  0.2884 -0.3127 -1.0907
  704TIP3    H2 2058   1.859   3.091   2.437 -0.3301 -0.4586  0.2567
  705TIP3   OH2 2059   1.368   4.973   0.478  0.2259 -0.7310  0.0563
  705TIP3    H1 2060   1.414   4.889   0.472  0.4059 -0.6614  0.4270
  705TIP3    H2 2061   1.435   5.035   0.510 -0.2747 -0.7691  1.2255
  706TIP3   OH2 2062   1.211   1.479   2.831 -0.0481  0.1341  0.1370
  706TIP3    H1 2063   1.273   1.550   2.816  1.7374 -1.4209 -0.1300
  706TIP3    H2 2064   1.239   1.439   2.913 -0.2636 -1.0089 -0.3295
  707TIP3   OH2 2065   3.070   3.481   0.227  0.4048  0.2942  0.0155
  707TIP3    H1 2066   2.985   3.440   0.237 -0.1831  1.2080 -1.1178
  707TIP3    H2 2067   3.127   3.411   0.194  0.8699 -1.1090  3.5473
  708TIP3   OH2 2068   4.769   2.299   6.905  0.1850 -0.2293 -0.5315
  708TIP3    H1 2069   4.724   2.300   6.989  2.1458  0.5132  0.5260
  708TIP3    H2 2070   4.739   2.379   6.860  0.4996  0.3074  0.2057
  709TIP3   OH2 2071   2.197   2.531   1.502 -0.6775 -0.3892 -0.5341
  709TIP3    H1 2072   2.212   2.607   1.558 -2.7608 -1.1109  1.0434
  709TIP3    H2 2073   2.104   2.533   1.482 -0.3885 -1.4415 -2.0897
  710TIP3   OH2 2074   1.748   2.284   3.281 -0.1132  0.1238  0.4051
  710TIP3    H1 2075   1.739   2.368   3.326 -0.7549 -0.2830  1.0462
  710TIP3    H2 2076   1.662   2.243   3.290 -0.1855 -0.0627 -1.0063
  711TIP3   OH2 2077   7.820   2.235   3.147  0.0760 -0.0140 -0.0344
  711TIP3    H1 2078   7.759   2.161   3.151  0.2901 -0.2345 -0.7503
  711TIP3    H2 2079   7.904   2.195   3.126  0.7992  0.1224  2.4970
  712TIP3   OH2 2080   2.386   6.144   0.960  0.1662 -0.2566  0.6609
  712TIP3    H1 2081   2.391   6.235   0.932  2.0749  0.6476  3.7201
  712TIP3    H2 2082   2.395   6.147   1.055  0.2911 -3.6465  0.8353
  713TIP3   OH2 2083   2.988   1.559   3.740 -0.0938 -0.0128  0.2750
  713TIP3    H1 2084   2.952   1.643   3.768 -1.0327  0.6316 -2.6716
  713TIP3    H2 2085   2.911   1.503   3.727  0.3503 -0.4959 -0.3089
  714TIP3   OH2 2086   6.455   7.729   4.746 -0.5481 -0.2506 -0.1001
  714TIP3    H1 2087   6.452   7.637   4.773 -0.1892  0.0039  0.8526
  714TIP3    H2 2088   6.534   7.763   4.789 -1.1732  0.7261  0.2864
  715TIP3   OH2 2089   7.001   1.172   6.561  0.2787 -0.5715  0.4218
  715TIP3    H1 2090   7.041   1.178   6.648 -1.5024  0.3545  1.2084
  715TIP3    H2 2091   6.931   1.238   6.562  0.4382 -0.3288 -1.8352
  716TIP3   OH2 2092   1.111   4.057   0.678 -0.3952 -0.3406  0.1045
  716TIP3    H1 2093   1.173   3.990   0.708 -1.9892 -2.3067 -0.8740
  716TIP3    H2 2094   1.155   4.140   0.694  1.5478 -1.6229  1.5476
  717TIP3   OH2 2095   2.694   3.832   2.221  0.3274  0.3095 -0.1931
  717TIP3    H1 2096   2.700   3.927   2.234  0.8144  0.1389  0.9004
  717TIP3    H2 2097   2.785   3.803   2.216  0.2010 -0.2993  1.0037
  718TIP3   OH2 2098   1.863   3.334   3.482 -0.6812  0.3723 -0.5972
  718TIP3    H1 2099   1.878   3.241   3.500  0.3999  0.6831  0.1699
  718TIP3    H2 2100   1.816   3.366   3.559  0.0696  0.7341 -0.2842
  719TIP3   OH2 2101   0.364   5.129   1.519 -0.3956  0.7952 -0.7791
  719TIP3    H1 2102   0.442   5.173   1.552 -0.9644  0.8005  0.5719
  719TIP3    H2 2103   0.387   5.102   1.430  1.2623  0.4789 -0.2561
  720TIP3   OH2 2104   0.791   5.553   1.134  0.1902  0.0199 -0.0969
  720TIP3    H1 2105   0.869   5.564   1.188  0.8810  0.5909 -1.1880
  720TIP3    H2 2106   0.814   5.593   1.050 -1.1824 -0.0387 -0.5189
  721TIP3   OH2 2107   6.301   1.282   6.676 -0.6284 -1.1500  0.1043
  721TIP3    H1 2108   6.384   1.259   6.717  0.8320  2.2544 -0.7625
  721TIP3    H2 2109   6.318   1.272   6.582 -0.8416  0.5198 -0.1271
  722TIP3   OH2 2110   1.259   2.109   2.610  0.1167  0.2485 -0.0395
  722TIP3    H1 2111   1.313   2.153   2.676  0.2883 -0.1839  0.1133
  722TIP3    H2 2112   1.243   2.022   2.647  0.2320 -0.0040 -0.5737
  723TIP3   OH2 2113   1.673   5.467   2.951 -0.2061 -0.0673  0.0919
  723TIP3    H1 2114   1.619   5.404   2.998 -1.1063 -0.1367 -1.0009
  723TIP3    H2 2115   1.680   5.431   2.862 -1.2301  1.6332 -0.7150
  724TIP3   OH2 2116   0.438   1.192   0.174 -0.3971 -0.1184  0.1837
  724TIP3    H1 2117   0.386   1.270   0.190  0.6032  0.4093  0.8287
  724TIP3    H2 2118   0.509   1.195   0.238  1.2182 -0.1406 -1.5680
  725TIP3   OH2 2119   8.374   4.531   1.930  0.1099 -0.4803 -0.6601
  725TIP3    H1 2120   8.451   4.514   1.875  0.3963  0.3775 -0.5422
  725TIP3    H2 2121   8.381   4.468   2.001  0.5460 -0.6062 -0.8103
  726TIP3   OH2 2122   3.774   7.390   6.247  0.0218 -0.1906 -0.9122
  726TIP3    H1 2123   3.814   7.323   6.191 -0.5527 -2.0980  0.9059
  726TIP3    H2 2124   3.843   7.415   6.308 -0.5462 -1.0649  0.1005
  727TIP3   OH2 2125   2.081   4.775   1.952  0.1263  0.6503  0.0916
  727TIP3    H1 2126   2.055   4.687   1.925 -0.0318  0.1339  1.8676
  727TIP3    H2 2127   2.169   4.765   1.988  0.5103  1.3962 -0.6217
  728TIP3   OH2 2128   0.864   2.892   1.925 -0.4530 -0.0755 -0.3293
  728TIP3    H1 2129   0.910   2.952   1.867 -1.7525  0.8992 -0.3946
  728TIP3    H2 2130   0.773   2.923   1.923 -0.8228 -1.0446  0.9204
  729TIP3   OH2 2131   0.460   5.388   2.039  0.1604  0.1841 -0.3112
  729TIP3    H1 2132   0.366   5.369   2.040  0.0716  0.6550  0.9925
  729TIP3    H2 2133   0.475   5.429   1.954 -0.9317  0.6760 -0.2744
  730TIP3   OH2 2134   3.086   3.821   1.975 -0.4930 -0.0450 -0.3217
  730TIP3    H1 2135   3.023   3.880   2.016 -0.0064  0.3366 -0.1236
  730TIP3    H2 2136   3.170   3.866   1.982 -0.3386 -0.1611 -1.3744
  731TIP3   OH2 2137   1.629   6.639   1.579 -0.5489 -0.4899 -0.2641
  731TIP3    H1 2138   1.587   6.717   1.616  0.0497 -0.1997 -0.1995
  731TIP3    H2 2139   1.657   6.589   1.656 -1.8661 -1.2883 -0.2801
  732TIP3   OH2 2140   7.936   1.229   5.565  0.0555 -0.2081 -0.2621
  732TIP3    H1 2141   7.941   1.321   5.590  0.5837 -0.4674  0.5944
  732TIP3    H2 2142   7.877   1.190   5.628  1.2466 -0.8261  0.4836
  733TIP3   OH2 2143   8.045   5.697   0.212  0.5422  0.1629  0.7356
  733TIP3    H1 2144   8.003   5.642   0.278  0.4031  0.7128  1.1086
  733TIP3    H2 2145   8.131   5.716   0.248  0.0874  1.3357  1.2659
  734TIP3   OH2 2146   1.499   4.093   0.505 -0.0670  0.0529  0.1879
  734TIP3    H1 2147   1.511   4.002   0.476  1.2299  0.0506  0.6960
  734TIP3    H2 2148   1.559   4.102   0.579  1.2230  1.8766 -1.0581
  735TIP3   OH2 2149   0.069   4.241   1.495 -0.0780 -0.2777 -0.5865
  735TIP3    H1 2150   0.110   4.194   1.422  0.0602 -0.0706 -0.6447
  735TIP3    H2 2151   0.051   4.328   1.460 -2.5671 -1.0283 -1.2318
  736TIP3   OH2 2152   1.046   2.434   2.928 -0.3922  0.9901 -0.3421
  736TIP3    H1 2153   1.095   2.466   3.004 -1.0486  1.8022 -0.2666
  736TIP3    H2 2154   0.956   2.463   2.942 -0.5802  0.8851 -1.2876
  737TIP3   OH2 2155   1.230   3.065   0.024  0.3696  0.1228 -0.3685
  737TIP3    H1 2156   1.177   3.063   0.104 -0.9434 -0.4153 -1.2271
  737TIP3    H2 2157   1.211   2.981  -0.018  1.2043  0.3284 -1.1413
  738TIP3   OH2 2158   2.602   2.130   1.075 -0.4463  0.0860 -0.1902
  738TIP3    H1 2159   2.550   2.130   1.156  0.8303 -0.0461  0.6342
  738TIP3    H2 2160   2.693   2.124   1.104 -0.0100 -0.7290 -1.6648
  739TIP3   OH2 2161   7.792   2.285   1.468  0.0571  0.1236  0.2173
  739TIP3    H1 2162   7.886   2.299   1.456 -0.1159 -1.9042 -4.7464
  739TIP3    H2 2163   7.786   2.197   1.505  0.1031 -0.3875 -0.9666
  740TIP3   OH2 2164   1.744   2.717   0.313 -0.2377 -0.4500 -0.0586
  740TIP3    H1 2165   1.800   2.677   0.246  0.0759  1.5475 -1.0385
  740TIP3    H2 2166   1.803   2.771   0.364 -0.8218 -0.4165  0.5860
  741TIP3   OH2 2167   2.561   4.478   1.616 -0.3599  0.7078 -0.3373
  741TIP3    H1 2168   2.620   4.552   1.632 -0.2761  1.2859 -3.0820
  741TIP3    H2 2169   2.607   4.403   1.653  0.2187  1.7833  1.1798
  742TIP3   OH2 2170   6.480   7.575   1.538 -0.5176 -0.3558 -0.1903
  742TIP3    H1 2171   6.429   7.584   1.458 -1.4718 -0.1052  0.4465
  742TIP3    H2 2172   6.419   7.540   1.602 -0.2132  1.1102  0.9250
  743TIP3   OH2 2173   0.968   5.125   2.810 -0.0270 -0.0137 -0.1798
  743TIP3    H1 2174   0.913   5.088   2.878 -0.2504  2.3507  0.9730
  743TIP3    H2 2175   0.912   5.129   2.733 -0.5613 -0.3335  0.1908
  744TIP3   OH2 2176   4.876   7.148   6.632 -0.1844  0.3063 -0.3344
  744TIP3    H1 2177   4.842   7.077   6.686  1.0107 -0.7780 -0.9822
  744TIP3    H2 2178   4.858   7.228   6.683  0.8467 -0.6873  1.6242
  745TIP3   OH2 2179   4.938   4.224   1.682  0.0282 -0.2310 -0.1485
  745TIP3    H1 2180   4.981   4.252   1.764 -0.9614 -2.3770  1.1554
  745TIP3    H2 2181   5.007   4.180   1.633  0.2890 -0.1653  0.1566
  746TIP3   OH2 2182   2.725   4.103   2.320  0.1970  0.0158 -0.4101
  746TIP3    H1 2183   2.714   4.098   2.415  0.4578  0.3103 -0.3640
  746TIP3    H2 2184   2.666   4.173   2.293  1.5052  1.2329 -0.2282
  747TIP3   OH2 2185   3.164   2.807   3.408  0.4176  0.3980 -0.2034
  747TIP3    H1 2186   3.179   2.774   3.497 -1.5292 -2.1394 -0.7408
  747TIP3    H2 2187   3.093   2.871   3.417  0.2862  0.2107  0.0970
  748TIP3   OH2 2188   2.146   5.260   0.730  0.3386 -0.5679  0.3910
  748TIP3    H1 2189   2.211   5.285   0.796  1.0312  0.1471 -0.5416
  748TIP3    H2 2190   2.147   5.164   0.730  0.6395 -0.5682  1.1115
  749TIP3   OH2 2191   0.257   3.583   0.884  0.4033 -0.4130 -0.3217
  749TIP3    H1 2192   0.286   3.493   0.901  0.3254 -0.7987 -2.1439
  749TIP3    H2 2193   0.309   3.636   0.944 -0.3524 -1.7554  1.5844
  750TIP3   OH2 2194   0.818   3.264   1.938 -0.3647  0.1205 -0.2768
  750TIP3    H1 2195   0.852   3.279   2.027 -1.3617 -1.2703  0.3566
  750TIP3    H2 2196   0.763   3.340   1.921  0.8146  1.0187 -0.2159
  751TIP3   OH2 2197   1.321   4.829   2.797  0.1990  0.2309 -0.0275
  751TIP3    H1 2198   1.265   4.890   2.844 -0.0005 -1.1578  1.5671
  751TIP3    H2 2199   1.300   4.844   2.704 -0.4871  1.9264  0.3780
  752TIP3   OH2 2200   1.397   1.849   4.182 -0.3178  0.0212 -0.2464
  752TIP3    H1 2201   1.454   1.772   4.188  0.4503  0.5861 -0.1542
  752TIP3    H2 2202   1.447   1.911   4.129 -0.9855  0.4122 -0.4244
  753TIP3   OH2 2203   1.499   3.404   1.071  0.2530  0.0099  0.3562
  753TIP3    H1 2204   1.471   3.490   1.039  0.7130  1.0242  2.5728
  753TIP3    H2 2205   1.445   3.342   1.022  0.1921  1.5344 -1.5770
  754TIP3   OH2 2206   7.530   1.247   6.025 -0.0474  0.8557  0.0207
  754TIP3    H1 2207   7.500   1.305   6.095 -1.5532 -1.4374  1.3236
  754TIP3    H2 2208   7.451   1.226   5.975  0.5463  0.1955 -0.6547
  755TIP3   OH2 2209   1.979   2.906   2.856  0.0083  0.1859  0.6899
  755TIP3    H1 2210   1.956   2.859   2.776 -0.3656  1.8779 -0.2284
  755TIP3    H2 2211   2.062   2.867   2.884  0.8391  0.4790 -1.2784
  756TIP3   OH2 2212   0.201   3.924   0.505 -0.7453 -0.1983 -0.3078
  756TIP3    H1 2213   0.237   4.012   0.495 -0.7290 -0.3590 -1.7102
  756TIP3    H2 2214   0.213   3.904   0.598 -1.0031  1.3844  0.0828
  757TIP3   OH2 2215   1.426   2.775   3.259  0.3229  0.0441 -0.0112
  757TIP3    H1 2216   1.513   2.786   3.220  1.2190 -0.4324  1.7839
  757TIP3    H2 2217   1.417   2.681   3.273  0.4659  0.2743  1.8268
  758TIP3   OH2 2218   1.644   4.256   1.022 -0.4860  0.2828  0.1322
  758TIP3    H1 2219   1.633   4.323   1.089 -2.6312  0.9066 -0.7971
  758TIP3    H2 2220   1.619   4.299   0.940  1.2129 -0.7274 -0.9594
  759TIP3   OH2 2221   0.871   2.531   2.266  0.6452 -0.0782 -0.5956
  759TIP3    H1 2222   0.887   2.618   2.229  0.0779  0.5417  0.5999
  759TIP3    H2 2223   0.888   2.471   2.194  0.3283  1.0710 -1.6393
  760TIP3   OH2 2224   1.679   4.053   3.896  0.6065  0.3955 -0.2532
  760TIP3    H1 2225   1.760   4.057   3.844  1.4420 -1.0136  0.8852
  760TIP3    H2 2226   1.612   4.025   3.834  1.2355  0.4619 -0.9709
  761TIP3   OH2 2227   6.993   0.274   6.354 -0.6741  0.4098 -0.1982
  761TIP3    H1 2228   6.970   0.366   6.339  2.0023  1.2640  0.5308
  761TIP3    H2 2229   7.048   0.277   6.433  0.6301 -1.6305 -1.0156
  762TIP3   OH2 2230   1.429   4.686   0.828 -0.6569  0.5572 -0.7077
  762TIP3    H1 2231   1.496   4.745   0.794 -0.5625  0.9187  0.1013
  762TIP3    H2 2232   1.414   4.715   0.918 -0.4955 -0.7523 -0.2432
  763TIP3   OH2 2233   8.246   3.095   0.475 -0.8088 -0.3559 -0.1900
  763TIP3    H1 2234   8.217   3.155   0.406  0.6294  3.5827  2.4677
  763TIP3    H2 2235   8.167   3.079   0.527 -1.2006 -0.7564 -0.9106
  764TIP3   OH2 2236   1.498   5.143   1.631  0.2494  0.2569  0.2491
  764TIP3    H1 2237   1.424   5.182   1.583  0.4978 -1.2911 -1.4307
  764TIP3    H2 2238   1.575   5.170   1.582  0.5377 -0.9967  0.0056
  765TIP3   OH2 2239   3.203   3.272   0.101  0.0672  0.0924  0.4317
  765TIP3    H1 2240   3.230   3.182   0.082  1.2299  0.5911 -0.3985
  765TIP3    H2 2241   3.282   3.313   0.136  0.1053  1.3005 -1.0032
  766TIP3   OH2 2242   2.106   2.001   1.469 -0.4644  0.1196 -0.2142
  766TIP3    H1 2243   2.118   2.051   1.389 -0.5247  0.3089 -0.1051
  766TIP3    H2 2244   2.012   2.004   1.486 -0.2410  1.5525  0.8099
  767TIP3   OH2 2245   2.786   3.337   1.272 -0.2426 -0.1385 -0.3499
  767TIP3    H1 2246   2.698   3.299   1.264  0.9212 -2.7976 -1.1608
  767TIP3    H2 2247   2.810   3.324   1.364 -0.7241  0.6593 -0.1108
  768TIP3   OH2 2248   7.738   3.541   1.571  0.0867  0.0006 -0.1945
  768TIP3    H1 2249   7.798   3.470   1.547 -0.8833 -0.5669 -1.0149
  768TIP3    H2 2250   7.788   3.621   1.557  0.6205 -0.4651 -0.9804
  769TIP3   OH2 2251   2.187   4.380   1.276 -1.0827 -0.0864  0.2044
  769TIP3    H1 2252   2.160   4.355   1.187 -0.2725  1.1177 -0.3917
  769TIP3    H2 2253   2.280   4.360   1.279 -0.9196  0.7178  0.4845
  770TIP3   OH2 2254   4.940   0.604   6.908 -0.1531 -0.0425 -0.5309
  770TIP3    H1 2255   4.904   0.524   6.869 -3.4071  1.7144 -1.3846
  770TIP3    H2 2256   4.935   0.589   7.002  1.6831 -1.8111 -0.6812
  771TIP3   OH2 2257   1.406   3.668   3.133  0.4649 -0.3979  0.1722
  771TIP3    H1 2258   1.417   3.577   3.162 -1.3722 -0.6955 -0.0245
  771TIP3    H2 2259   1.394   3.661   3.038 -2.4568 -0.2298  0.4846
  772TIP3   OH2 2260   3.319   4.113   1.584  0.2522  0.3673  0.1062
  772TIP3    H1 2261   3.360   4.035   1.547  0.5409 -0.1385  1.4684
  772TIP3    H2 2262   3.386   4.180   1.580  0.1333  0.4432 -0.6980
  773TIP3   OH2 2263   0.590   0.226   6.553  0.3747 -0.2462  0.3497
  773TIP3    H1 2264   0.508   0.215   6.600 -0.9742 -2.2428 -2.3675
  773TIP3    H2 2265   0.644   0.152   6.581  0.8692  0.4507  1.2845
  774TIP3   OH2 2266   0.810   2.755   3.587 -0.2829  0.0064 -0.1811
  774TIP3    H1 2267   0.797   2.816   3.515  0.0630  0.1101 -0.1555
  774TIP3    H2 2268   0.878   2.795   3.641  1.3880 -1.3572 -1.2276
  775TIP3   OH2 2269   1.745   4.476   1.926 -0.1138  0.2693 -0.4369
  775TIP3    H1 2270   1.776   4.475   2.017 -0.0328 -0.8651 -0.4740
  775TIP3    H2 2271   1.674   4.541   1.927  1.4044  1.9540 -0.0857
  776TIP3   OH2 2272   1.211   4.864   1.760 -0.1355 -0.6427 -0.0662
  776TIP3    H1 2273   1.134   4.820   1.724 -0.0181  0.1832 -1.3556
  776TIP3    H2 2274   1.178   4.948   1.793  0.1505 -0.4477 -0.2744
  777TIP3   OH2 2275   2.387   3.512   0.695 -0.5060 -0.2377 -0.0766
  777TIP3    H1 2276   2.435   3.591   0.669  1.7452 -0.8570  2.0053
  777TIP3    H2 2277   2.446   3.440   0.675 -1.3744 -1.1675  0.6652
  778TIP3   OH2 2278   0.907   3.731   4.394  0.7620 -0.3273 -0.4087
  778TIP3    H1 2279   0.870   3.715   4.307  0.3091  1.5609 -0.5772
  778TIP3    H2 2280   0.836   3.772   4.443  1.3435 -0.4561  0.5428
  779TIP3   OH2 2281   0.919   3.218   4.544 -0.1845  0.5046 -0.8024
  779TIP3    H1 2282   0.976   3.293   4.563  1.7380 -0.8415 -1.1364
  779TIP3    H2 2283   0.885   3.235   4.456  1.5453  0.2240 -1.5503
  780TIP3   OH2 2284   8.350   5.867   0.149  0.1563 -0.1109  0.4882
  780TIP3    H1 2285   8.352   5.845   0.242  0.1450  0.4743  0.6266
  780TIP3    H2 2286   8.386   5.790   0.105  0.7646 -0.1256  1.0191
  781TIP3   OH2 2287   0.579   3.695   2.172  0.1773 -0.6245 -0.2865
  781TIP3    H1 2288   0.649   3.759   2.178  0.2424 -0.7585  0.4175
  781TIP3    H2 2289   0.515   3.734   2.113 -0.0092  0.3045  0.5225
  782TIP3   OH2 2290   2.408   2.176   4.401  0.1435 -0.6127 -0.9121
  782TIP3    H1 2291   2.402   2.088   4.437  3.0881 -1.0152 -1.2763
  782TIP3    H2 2292   2.494   2.207   4.428 -0.7906  2.1148 -0.9197
  783TIP3   OH2 2293   2.636   4.049   3.487 -0.2716  0.0571  0.2920
  783TIP3    H1 2294   2.559   4.084   3.531 -0.1014 -0.4539  0.9945
  783TIP3    H2 2295   2.614   3.958   3.468  0.3787 -0.2496  1.0051
  784TIP3   OH2 2296   0.532   1.712   1.787 -0.7564  0.2044  0.5085
  784TIP3    H1 2297   0.556   1.641   1.847 -0.5817 -0.8263 -0.7629
  784TIP3    H2 2298   0.603   1.714   1.723 -0.6954  1.6296  0.6175
  785TIP3   OH2 2299   2.879   7.119   6.681  0.2257 -0.5614  0.3024
  785TIP3    H1 2300   2.837   7.038   6.652 -1.2228  0.2314  0.1595
  785TIP3    H2 2301   2.818   7.156   6.744  0.4672  0.8861 -0.3057
  786TIP3   OH2 2302   0.372   2.962   2.381  0.0979  0.5614  0.1344
  786TIP3    H1 2303   0.400   3.043   2.340 -1.1260  0.6221 -0.6166
  786TIP3    H2 2304   0.294   2.986   2.431  0.9050  0.2493  1.5702
  787TIP3   OH2 2305   3.393   3.762   3.123  0.3981 -0.5139  0.0008
  787TIP3    H1 2306   3.343   3.805   3.193  0.0935  1.0439 -1.1644
  787TIP3    H2 2307   3.484   3.788   3.138  0.1771  0.7687 -0.8657
  788TIP3   OH2 2308   6.390   7.554   6.749 -0.4187 -0.6368  0.0903
  788TIP3    H1 2309   6.458   7.520   6.808  0.4964  0.0798 -0.5344
  788TIP3    H2 2310   6.369   7.640   6.783 -1.3814 -1.0615  0.5749
  789TIP3   OH2 2311   2.144   1.220   1.623  0.2682 -0.2861  0.6053
  789TIP3    H1 2312   2.173   1.311   1.629 -0.3329 -0.0958  0.6806
  789TIP3    H2 2313   2.063   1.217   1.675  0.9257 -1.1324  1.5906
  790TIP3   OH2 2314   0.264   3.454   0.330  0.5683 -0.0803 -0.3442
  790TIP3    H1 2315   0.302   3.424   0.247 -0.1513  0.0154 -0.7143
  790TIP3    H2 2316   0.312   3.535   0.350 -0.2041  0.6479 -1.3860
  791TIP3   OH2 2317   1.778   2.448   2.970  0.7472 -0.0833  0.0574
  791TIP3    H1 2318   1.712   2.448   3.040  0.3977  1.0123 -0.2591
  791TIP3    H2 2319   1.759   2.527   2.920  1.7389 -0.2463 -0.5835
  792TIP3   OH2 2320   1.268   3.451   2.553 -0.2255  0.3044 -0.2749
  792TIP3    H1 2321   1.353   3.438   2.594 -0.1160 -1.2793 -0.9709
  792TIP3    H2 2322   1.288   3.488   2.467  0.0993 -4.1551 -2.2532
  793TIP3   OH2 2323   1.404   0.204   3.359 -0.4784  0.5720 -0.5143
  793TIP3    H1 2324   1.421   0.297   3.372 -0.0228  0.2438  1.4563
  793TIP3    H2 2325   1.313   0.192   3.385 -0.7006  0.5643 -1.2938
  794TIP3   OH2 2326   1.115   2.811   2.594 -0.1814  0.4108  0.1212
  794TIP3    H1 2327   1.144   2.725   2.625 -0.1291  0.6855  0.8501
  794TIP3    H2 2328   1.065   2.847   2.668 -1.1193  0.5524 -0.5812
  795TIP3   OH2 2329   2.825   0.773   1.876  0.6807  0.3497 -0.1482
  795TIP3    H1 2330   2.803   0.785   1.968  0.7731  1.0917 -0.2202
  795TIP3    H2 2331   2.832   0.678   1.865 -1.6425  0.1387  0.0690
  796TIP3   OH2 2332   1.632   3.843   2.709 -0.1276 -0.7350  0.1182
  796TIP3    H1 2333   1.559   3.812   2.655  1.0700 -0.8944 -1.4132
  796TIP3    H2 2334   1.697   3.873   2.647  1.1068 -0.5256  1.4903
  797TIP3   OH2 2335   1.397   2.684   2.905 -0.1296 -0.1099  0.8136
  797TIP3    H1 2336   1.473   2.742   2.902  0.8289 -1.4204 -0.8425
  797TIP3    H2 2337   1.376   2.667   2.813 -1.6180 -0.7934  1.2743
  798TIP3   OH2 2338   1.756   4.127   1.631  0.2066 -0.0939 -0.1247
  798TIP3    H1 2339   1.666   4.128   1.663 -0.3487 -0.3750 -1.6241
  798TIP3    H2 2340   1.808   4.159   1.705 -1.4454  2.9037 -0.1559
  799TIP3   OH2 2341   1.666   3.692   0.972 -0.3768  0.4991  0.0133
  799TIP3    H1 2342   1.761   3.684   0.975 -0.5692 -1.7227  1.1329
  799TIP3    H2 2343   1.643   3.741   1.052 -0.2666 -0.1297  0.4344
  800TIP3   OH2 2344   4.958   2.819   4.822 -0.5998 -0.4047 -0.0551
  800TIP3    H1 2345   4.893   2.817   4.892 -1.3363 -0.2667 -0.7365
  800TIP3    H2 2346   5.019   2.749   4.845  0.5770  1.2331  2.0752
  801TIP3   OH2 2347   2.163   2.187   1.659  0.1728  0.1419 -0.0882
  801TIP3    H1 2348   2.086   2.156   1.612  0.6128 -1.1300  0.0125
  801TIP3    H2 2349   2.237   2.164   1.603  0.6958 -1.3559  1.1780
  802TIP3   OH2 2350   1.459   3.401   3.068 -0.3167  0.5107 -0.0566
  802TIP3    H1 2351   1.545   3.400   3.026  0.1387 -0.7485  0.8621
  802TIP3    H2 2352   1.400   3.364   3.003 -0.3607  2.3197 -1.0709
  803TIP3   OH2 2353   1.899   4.668   0.751 -0.3006 -0.6802  0.0577
  803TIP3    H1 2354   1.918   4.694   0.841 -1.4236 -0.5884  0.2735
  803TIP3    H2 2355   1.904   4.573   0.752 -0.6767 -0.6986  0.3029
  804TIP3   OH2 2356   3.048   3.135   3.169 -0.5691  0.5521 -0.0992
  804TIP3    H1 2357   3.134   3.166   3.140  0.0519  0.5583  1.6898
  804TIP3    H2 2358   2.986   3.183   3.114  0.5288  1.5272 -0.5073
  805TIP3   OH2 2359   1.584   2.860   1.958 -0.4922  0.3443  0.1025
  805TIP3    H1 2360   1.587   2.908   1.876  0.7635  0.5008  0.2220
  805TIP3    H2 2361   1.675   2.837   1.976 -0.7207  0.4753  1.5455
  806TIP3   OH2 2362   1.758   3.090   1.070 -0.1598  0.0492  0.2420
  806TIP3    H1 2363   1.665   3.092   1.089 -0.3028  1.4719 -0.5486
  806TIP3    H2 2364   1.787   3.180   1.082  1.2546 -0.4978  1.1203
  807TIP3   OH2 2365   0.497   2.723   2.336 -0.2929  0.5572 -0.7736
  807TIP3    H1 2366   0.544   2.687   2.412 -2.1254 -1.6447 -0.6297
  807TIP3    H2 2367   0.470   2.810   2.364  1.0439  0.6748  0.2393
  808TIP3   OH2 2368   1.330   4.039   0.914  0.6804  0.1788 -0.2419
  808TIP3    H1 2369   1.403   3.982   0.890  1.0156  0.9471 -1.1073
  808TIP3    H2 2370   1.354   4.124   0.878  0.2026  0.8715  1.0582
  809TIP3   OH2 2371   1.517   3.115   1.241 -0.2449  0.0774 -0.4127
  809TIP3    H1 2372   1.458   3.162   1.299 -2.0430 -2.6757  0.1139
  809TIP3    H2 2373   1.590   3.089   1.296  1.2118  2.9661 -0.9213
  810TIP3   OH2 2374   2.311   2.047   2.541  0.4341 -0.6010  0.1088
  810TIP3    H1 2375   2.260   1.967   2.529 -0.9606  0.1491  0.9014
  810TIP3    H2 2376   2.332   2.047   2.635  1.5273 -0.6820 -0.1305
  811TIP3   OH2 2377   1.756   1.898   0.254 -0.0008  0.3658  0.4038
  811TIP3    H1 2378   1.786   1.966   0.194  0.4268  0.3652  0.6148
  811TIP3    H2 2379   1.738   1.823   0.198 -0.5605  0.6803  0.1587
  812TIP3   OH2 2380   2.968   4.296   2.114  0.0542  0.5767  0.5624
  812TIP3    H1 2381   2.998   4.387   2.115 -0.9242  0.9785 -1.6980
  812TIP3    H2 2382   2.872   4.303   2.120 -0.0910 -0.2350 -0.5705
  813TIP3   OH2 2383   1.780   4.829  -0.027 -0.5804  0.7276  0.2167
  813TIP3    H1 2384   1.782   4.734  -0.035 -1.4018  0.5767  1.6621
  813TIP3    H2 2385   1.809   4.846   0.063 -1.4033  1.7861  0.2823
  814TIP3   OH2 2386   1.539   2.912   3.524  0.0285 -0.0444  0.1708
  814TIP3    H1 2387   1.492   2.887   3.445  0.6031  0.1021 -0.2201
  814TIP3    H2 2388   1.524   3.006   3.533  0.8211  0.1342 -0.3429
  815TIP3   OH2 2389   1.177   2.965   1.554 -0.1208 -0.1862  0.3261
  815TIP3    H1 2390   1.098   3.016   1.571 -0.5044 -0.0437 -1.7128
  815TIP3    H2 2391   1.249   3.029   1.560 -0.3690  0.1117  0.1637
  816TIP3   OH2 2392   0.702   5.149   1.146 -0.4549  0.5156  0.2467
  816TIP3    H1 2393   0.737   5.232   1.113 -1.1692  0.0937 -1.6352
  816TIP3    H2 2394   0.752   5.132   1.225  1.2791  1.6151 -0.5747
  817TIP3   OH2 2395   2.298   5.785   0.954  0.3170 -0.0059 -0.1300
  817TIP3    H1 2396   2.314   5.829   1.038 -2.2458  0.2943  0.2420
  817TIP3    H2 2397   2.330   5.696   0.967  0.3552  0.1683  1.0241
  818TIP3   OH2 2398   2.936   4.564   2.058 -0.2214 -0.2942  0.1264
  818TIP3    H1 2399   2.911   4.505   1.986 -2.1020  0.4158  0.1749
  818TIP3    H2 2400   2.909   4.651   2.028 -1.2387 -0.0255  1.7703
  819TIP3   OH2 2401   1.876   3.048   3.357 -0.3383  0.2851 -0.1721
  819TIP3    H1 2402   1.800   3.090   3.318 -0.0370  0.9877 -0.0137
  819TIP3    H2 2403   1.914   2.995   3.286  0.9532  2.5606 -1.2402
  820TIP3   OH2 2404   0.571   0.837   4.126  0.0244  0.5571  0.0397
  820TIP3    H1 2405   0.645   0.814   4.182  1.8266  2.4779 -1.4655
  820TIP3    H2 2406   0.540   0.753   4.091  0.7464 -0.3673  1.5779
  821TIP3   OH2 2407   0.730   7.638   2.175 -0.4573  0.1561 -0.5226
  821TIP3    H1 2408   0.811   7.689   2.174 -0.2091 -0.1403  1.6496
  821TIP3    H2 2409   0.661   7.704   2.162  0.1589  0.1389 -4.6936
  822TIP3   OH2 2410   0.824   3.777   1.038  0.2370 -0.7891  0.2005
  822TIP3    H1 2411   0.826   3.689   1.000  0.1031 -0.7348  0.0660
  822TIP3    H2 2412   0.898   3.822   0.997 -0.2298 -0.5642 -0.4087
  823TIP3   OH2 2413   1.080   4.454   2.361  0.5217 -0.0911  0.1767
  823TIP3    H1 2414   1.032   4.440   2.279 -0.8562  0.4224  0.8768
  823TIP3    H2 2415   1.130   4.374   2.373 -0.9281 -1.0580 -0.0830
  824TIP3   OH2 2416   2.968   4.184   0.738  0.7206  0.1200 -0.1912
  824TIP3    H1 2417   2.960   4.148   0.649  0.3250  0.6655 -0.3830
  824TIP3    H2 2418   2.883   4.166   0.779  1.0900 -0.5987  0.2520
  825TIP3   OH2 2419   0.212   1.947   3.095 -0.0453 -0.1300  0.0556
  825TIP3    H1 2420   0.291   2.000   3.103 -0.5487  0.5592  0.5347
  825TIP3    H2 2421   0.235   1.863   3.136  1.1406 -0.7239 -1.7711
  826TIP3   OH2 2422   0.809   4.743   1.153 -0.3099  0.3961  0.5898
  826TIP3    H1 2423   0.811   4.684   1.077 -1.4330  1.2156 -0.0824
  826TIP3    H2 2424   0.719   4.775   1.156 -0.0292  1.0991  1.7241
  827TIP3   OH2 2425   0.834   2.584   1.634 -0.6433 -0.2915 -0.1372
  827TIP3    H1 2426   0.822   2.674   1.604 -1.9119 -0.8597 -1.3933
  827TIP3    H2 2427   0.848   2.533   1.554  0.9307 -1.1078  0.6159
  828TIP3   OH2 2428   3.062   3.380   2.467  0.1526 -0.1174 -0.2778
  828TIP3    H1 2429   3.098   3.465   2.443  2.0779 -1.0241 -0.7677
  828TIP3    H2 2430   3.107   3.357   2.548 -0.3780 -0.6461 -0.1297
  829TIP3   OH2 2431   2.740   1.993   2.132  0.0665 -0.0204 -0.6786
  829TIP3    H1 2432   2.746   2.058   2.202  0.0852  0.1860 -0.8703
  829TIP3    H2 2433   2.662   1.941   2.154  1.1966 -1.2201  0.5477
  830TIP3   OH2 2434   1.071   4.200   2.574 -0.0345  0.4842  0.1847
  830TIP3    H1 2435   0.981   4.228   2.591 -0.1546 -1.2433  2.6605
  830TIP3    H2 2436   1.125   4.274   2.601 -0.6841  1.2410 -0.5917
  831TIP3   OH2 2437   1.753   3.766   3.689 -0.7109  0.1712 -0.1506
  831TIP3    H1 2438   1.845   3.749   3.708 -0.1127  1.4774 -1.7716
  831TIP3    H2 2439   1.711   3.772   3.775  0.6104 -0.9810  0.5771
  832TIP3   OH2 2440   4.717   7.703   5.912 -0.1631 -1.0313 -0.1727
  832TIP3    H1 2441   4.671   7.623   5.939  0.8563 -1.0386  1.5584
  832TIP3    H2 2442   4.660   7.740   5.844 -1.3121 -2.5287 -0.0681
  833TIP3   OH2 2443   1.236   4.649   0.160  0.4093  0.0244  0.4141
  833TIP3    H1 2444   1.273   4.573   0.205  1.4185  0.6314  0.6144
  833TIP3    H2 2445   1.275   4.725   0.203  0.1735  0.6400 -0.4353
  834TIP3   OH2 2446   0.533   2.661   1.493 -0.3324  0.1868  0.0110
  834TIP3    H1 2447   0.499   2.744   1.460 -2.3912 -0.4135  0.5843
  834TIP3    H2 2448   0.561   2.681   1.582  1.6785  0.8891 -0.7549
  835TIP3   OH2 2449   1.767   1.582   4.304 -0.1823 -0.1511  0.1806
  835TIP3    H1 2450   1.815   1.501   4.289  3.3807  1.5762  1.4467
  835TIP3    H2 2451   1.736   1.575   4.394 -0.6863 -0.4965 -0.0204
  836TIP3   OH2 2452   1.118   2.973   3.504 -0.5918  0.6066  0.1261
  836TIP3    H1 2453   1.045   3.024   3.468  0.3336  1.3191 -0.7835
  836TIP3    H2 2454   1.159   2.933   3.428 -0.7493 -0.7891  0.7526
  837TIP3   OH2 2455   1.175   4.138   1.641  0.0941  0.2756 -0.4073
  837TIP3    H1 2456   1.220   4.222   1.639 -0.7075  0.7023 -0.8840
  837TIP3    H2 2457   1.113   4.146   1.713 -0.3127  0.2648 -0.7543
  838TIP3   OH2 2458   5.780   7.375   5.353  0.3429  0.3152  0.1219
  838TIP3    H1 2459   5.732   7.448   5.393 -1.0003  0.5893 -1.9415
  838TIP3    H2 2460   5.716   7.304   5.347  0.9408 -0.1950 -0.2166
  839TIP3   OH2 2461   4.614   4.344   3.287 -0.0600  0.4579  0.1738
  839TIP3    H1 2462   4.589   4.322   3.198 -1.1161 -2.6317  1.1884
  839TIP3    H2 2463   4.532   4.344   3.336  0.3921  2.9847  1.0290
  840TIP3   OH2 2464   0.671   3.464   1.486 -0.1369 -0.1873  0.5698
  840TIP3    H1 2465   0.671   3.467   1.390 -0.6776  0.9331  0.6076
  840TIP3    H2 2466   0.591   3.417   1.509  0.3683 -1.1258  0.4642
  841TIP3   OH2 2467   6.742   5.793   6.814 -0.6554  0.1583  0.2145
  841TIP3    H1 2468   6.677   5.842   6.763 -0.2151 -0.9462 -1.4416
  841TIP3    H2 2469   6.815   5.854   6.826 -1.3678  0.9069  0.7999
  842TIP3   OH2 2470   4.153   6.702   0.086 -0.2761  0.1297  0.0661
  842TIP3    H1 2471   4.075   6.693   0.141  0.4141 -0.2558  1.0047
  842TIP3    H2 2472   4.119   6.722  -0.001 -1.4334 -0.3664  0.3934
  843TIP3   OH2 2473   2.923   4.020   2.135 -0.2249 -0.2880  0.4291
  843TIP3    H1 2474   2.872   4.041   2.213  0.8914  1.4469  0.7061
  843TIP3    H2 2475   2.953   4.104   2.102  0.8421 -1.1414 -0.8349
  844TIP3   OH2 2476   1.343   3.578   2.310  0.5206  0.3054 -0.5568
  844TIP3    H1 2477   1.260   3.625   2.304  1.1733  1.4858 -0.6538
  844TIP3    H2 2478   1.350   3.530   2.228 -0.4159 -0.4069 -0.2284
  845TIP3   OH2 2479   3.486   3.191   1.822 -0.4334  0.0543 -0.2403
  845TIP3    H1 2480   3.531   3.111   1.797 -0.1143  0.2913 -0.4276
  845TIP3    H2 2481   3.531   3.219   1.902  0.2584  0.7046 -0.8507
  846TIP3   OH2 2482   3.504   2.998   1.479 -0.8121 -0.0217 -0.2195
  846TIP3    H1 2483   3.571   2.992   1.547 -3.2113 -0.2278  2.2131
  846TIP3    H2 2484   3.460   2.913   1.481 -0.5241 -0.2469 -2.4814
  847TIP3   OH2 2485   3.783   4.480   1.327 -0.4711 -0.8236 -0.0432
  847TIP3    H1 2486   3.774   4.472   1.422  0.0007 -0.4583  0.0359
  847TIP3    H2 2487   3.693   4.488   1.295 -0.6137 -0.6030  0.4075
  848TIP3   OH2 2488   3.833   2.279   1.375  0.0593  0.0005 -0.1848
  848TIP3    H1 2489   3.830   2.186   1.399  0.0723 -0.0693 -0.4542
  848TIP3    H2 2490   3.918   2.291   1.333 -0.2433 -0.0283 -0.8122
  849TIP3   OH2 2491   3.974   3.015   0.366  0.0629  0.1668 -0.2094
  849TIP3    H1 2492   4.040   2.959   0.407 -1.0547  0.4724  2.0989
  849TIP3    H2 2493   3.926   2.956   0.307  0.8708 -0.5954 -0.1111
  850TIP3   OH2 2494   5.298   4.406   1.233  0.2038  0.2702 -0.0589
  850TIP3    H1 2495   5.369   4.344   1.217  0.3714  0.9490 -2.0832
  850TIP3    H2 2496   5.310   4.433   1.324  0.2537 -2.4725  0.7970
  851TIP3   OH2 2497   3.320   3.245   0.492  0.3713  0.0459  0.0009
  851TIP3    H1 2498   3.385   3.215   0.555  0.3230  0.6108  0.3181
  851TIP3    H2 2499   3.344   3.336   0.474 -0.7850  0.4967  0.7068
  852TIP3   OH2 2500   2.993   3.434   1.035 -1.0079 -0.4871 -0.1599
  852TIP3    H1 2501   3.079   3.421   1.074 -1.4467  0.4330  1.1128
  852TIP3    H2 2502   3.008   3.420   0.941  0.6777  0.4141 -0.0498
  853TIP3   OH2 2503   3.779   3.077   1.923  0.0075  0.0770 -0.3224
  853TIP3    H1 2504   3.745   3.081   2.013 -0.1067 -0.9159 -0.3163
  853TIP3    H2 2505   3.829   2.995   1.920  1.6527  1.0712 -0.6054
  854TIP3   OH2 2506   2.412   2.183   1.282  0.3984  0.0533 -0.5345
  854TIP3    H1 2507   2.442   2.261   1.328 -2.5241  1.0960 -0.3452
  854TIP3    H2 2508   2.405   2.116   1.350  1.8731 -0.1088 -0.5207
  855TIP3   OH2 2509   4.199   2.013   0.566 -0.1368 -0.0801 -0.0334
  855TIP3    H1 2510   4.198   1.965   0.483 -0.9684  0.6125 -0.4442
  855TIP3    H2 2511   4.134   1.968   0.621  0.0761 -0.2563  0.0733
  856TIP3   OH2 2512   5.037   4.563   3.069  0.2688  0.1673 -0.1647
  856TIP3    H1 2513   4.979   4.597   3.137 -0.7466 -3.3254  0.7674
  856TIP3    H2 2514   5.122   4.604   3.087 -1.0341  2.6616  0.5169
  857TIP3   OH2 2515   3.738   4.449   1.593 -0.6997  0.3609 -0.0563
  857TIP3    H1 2516   3.645   4.465   1.573 -0.9056  0.7664  1.1694
  857TIP3    H2 2517   3.736   4.396   1.673  0.1310  1.1757  0.5166
  858TIP3   OH2 2518   4.121   3.012   1.515 -0.5068  0.1917 -0.0833
  858TIP3    H1 2519   4.162   2.930   1.489 -1.6727 -0.6312  0.6125
  858TIP3    H2 2520   4.107   3.060   1.433  0.2397 -0.2714 -0.4806
  859TIP3   OH2 2521   1.674   5.494   2.363 -0.0240 -0.0092 -0.2106
  859TIP3    H1 2522   1.705   5.470   2.275  0.6221  2.0464 -0.5686
  859TIP3    H2 2523   1.602   5.555   2.347  2.0578  2.7692  0.6546
  860TIP3   OH2 2524   3.555   2.836   1.817  0.0511 -0.1509  0.6968
  860TIP3    H1 2525   3.629   2.870   1.768 -0.2388  0.0157  0.3703
  860TIP3    H2 2526   3.510   2.778   1.756  0.8034 -1.4893  1.3980
  861TIP3   OH2 2527   5.864   2.932   4.448  0.2987  0.1170 -0.1423
  861TIP3    H1 2528   5.844   2.855   4.501 -0.3817  0.0054 -0.5610
  861TIP3    H2 2529   5.781   2.980   4.445  0.1174 -0.2927 -1.8136
  862TIP3   OH2 2530   5.410   3.421   0.775  0.1912  0.0211 -0.0623
  862TIP3    H1 2531   5.322   3.393   0.750  0.3584 -1.0753  0.5415
  862TIP3    H2 2532   5.425   3.380   0.860  1.6961 -0.6568 -0.6357
  863TIP3   OH2 2533   2.593   6.367   2.039 -0.2716  0.4189  0.0097
  863TIP3    H1 2534   2.637   6.331   1.962 -1.9829 -2.1730  0.1718
  863TIP3    H2 2535   2.648   6.338   2.112 -0.2558  0.3390 -0.0334
  864TIP3   OH2 2536   4.221   4.891   1.248  0.7714 -0.6607  0.0214
  864TIP3    H1 2537   4.245   4.821   1.309  0.4846 -1.2644 -0.5437
  864TIP3    H2 2538   4.125   4.893   1.252  0.8350  0.7291  1.1618
  865TIP3   OH2 2539   6.245   6.864   6.269 -0.2469 -0.6522 -0.4052
  865TIP3    H1 2540   6.320   6.804   6.271  0.0211 -0.3001  0.0189
  865TIP3    H2 2541   6.196   6.842   6.349  0.3720  0.3612  0.2664
  866TIP3   OH2 2542   1.411   2.701   1.325 -0.4760 -0.2815  0.8277
  866TIP3    H1 2543   1.388   2.740   1.241  0.7198 -1.6995 -0.1613
  866TIP3    H2 2544   1.389   2.609   1.317  0.0529 -0.5187  1.9303
  867TIP3   OH2 2545   4.515   7.776   5.704  0.1712 -0.0212 -0.0223
  867TIP3    H1 2546   4.587   7.778   5.641 -0.2884  1.3496 -0.5071
  867TIP3    H2 2547   4.473   7.691   5.690 -0.1682  0.4394 -1.8522
  868TIP3   OH2 2548   2.251   1.064   0.388  0.2053 -0.5047  0.1410
  868TIP3    H1 2549   2.186   1.087   0.321  0.4247 -1.3956 -0.3909
  868TIP3    H2 2550   2.251   0.968   0.388  1.1773 -0.5043  0.4736
  869TIP3   OH2 2551   3.357   3.492   1.559 -0.3306  0.2251 -0.2114
  869TIP3    H1 2552   3.446   3.460   1.576  0.3269  2.0281 -0.1862
  869TIP3    H2 2553   3.308   3.414   1.533  1.3664 -0.7139 -0.6328
  870TIP3   OH2 2554   4.220   2.694   2.422 -0.2945 -0.1672  0.3374
  870TIP3    H1 2555   4.242   2.622   2.362  0.0921 -0.0336  0.3208
  870TIP3    H2 2556   4.283   2.762   2.402 -1.0723  0.4348 -0.0964
  871TIP3   OH2 2557   4.562   4.508   1.836  0.8067 -0.5575 -0.0309
  871TIP3    H1 2558   4.547   4.461   1.918  3.4885 -0.7513  0.3832
  871TIP3    H2 2559   4.619   4.450   1.785  0.8977  0.5069 -1.1738
  872TIP3   OH2 2560   1.533   2.278   2.285 -0.2427  0.4362  0.2837
  872TIP3    H1 2561   1.447   2.316   2.269 -0.5498 -0.6799 -0.7639
  872TIP3    H2 2562   1.574   2.272   2.199  0.5366  0.1231  0.6670
  873TIP3   OH2 2563   8.008   2.022   6.289 -0.0575  0.2953  0.6616
  873TIP3    H1 2564   8.090   2.038   6.335 -0.8504  0.4073  2.0658
  873TIP3    H2 2565   7.965   1.953   6.340  1.9028 -4.3005 -3.4740
  874TIP3   OH2 2566   2.915   4.980   1.102 -0.0070 -0.0893 -0.2380
  874TIP3    H1 2567   2.962   5.018   1.028  1.7719  1.8215  1.8120
  874TIP3    H2 2568   2.833   5.030   1.106  1.5378  2.4237  1.3387
  875TIP3   OH2 2569   1.433   0.223   6.408 -0.3037  0.0769  0.0051
  875TIP3    H1 2570   1.410   0.310   6.442 -0.1854  0.3611 -0.6194
  875TIP3    H2 2571   1.425   0.164   6.483  1.1470  0.8746  0.8082
  876TIP3   OH2 2572   1.871   3.184   4.488  0.4192  0.0514 -0.2034
  876TIP3    H1 2573   1.843   3.248   4.423 -0.8605 -0.2909  0.0056
  876TIP3    H2 2574   1.945   3.138   4.446 -0.5808 -0.3765 -1.5366
  877TIP3   OH2 2575   2.928   5.079   2.327  0.0189  0.4099  0.8059
  877TIP3    H1 2576   2.929   5.087   2.231  0.3911  1.2583  0.8740
  877TIP3    H2 2577   2.851   5.128   2.354 -0.6352 -0.6404  0.8822
  878TIP3   OH2 2578   2.507   3.265   0.614  0.8315 -0.5779  0.7020
  878TIP3    H1 2579   2.466   3.216   0.685  1.3988 -0.1354  1.3416
  878TIP3    H2 2580   2.589   3.218   0.597  0.2592 -1.2184 -0.2857
  879TIP3   OH2 2581   1.017   3.911   2.515 -0.5232 -0.9202  0.4268
  879TIP3    H1 2582   0.934   3.901   2.562 -0.7136  0.0168  0.2952
  879TIP3    H2 2583   1.036   4.005   2.519 -0.9909 -0.6766 -2.1211
  880TIP3   OH2 2584   2.475   4.390   0.146 -0.2212  0.1706  0.1790
  880TIP3    H1 2585   2.407   4.398   0.213  1.0905  1.0142  1.4142
  880TIP3    H2 2586   2.521   4.309   0.168 -0.5219 -0.1645 -0.3995
  881TIP3   OH2 2587   4.632   2.432   2.355 -0.2602  0.4605 -0.2926
  881TIP3    H1 2588   4.654   2.525   2.350  1.3184  0.1224  0.0733
  881TIP3    H2 2589   4.714   2.389   2.379 -1.4033 -0.8426  1.3610
  882TIP3   OH2 2590   3.601   3.323   1.564  0.2404  0.2112 -0.6182
  882TIP3    H1 2591   3.634   3.282   1.484 -0.1465 -0.4151 -0.4586
  882TIP3    H2 2592   3.609   3.255   1.631  0.5645  0.7319 -0.1203
  883TIP3   OH2 2593   8.178   0.850   6.116  0.3418  0.1896  0.7564
  883TIP3    H1 2594   8.160   0.855   6.022  0.7161  1.4708  0.7458
  883TIP3    H2 2595   8.185   0.756   6.134 -1.7382 -0.1499 -0.1060
  884TIP3   OH2 2596   3.505   4.240   1.875  0.1860 -0.3248  0.1269
  884TIP3    H1 2597   3.478   4.301   1.805  1.7676 -1.0252 -1.1347
  884TIP3    H2 2598   3.561   4.292   1.932  0.5075 -0.2628 -0.2438
  885TIP3   OH2 2599   4.372   3.248   3.017 -0.5856  0.2258 -0.0834
  885TIP3    H1 2600   4.387   3.215   2.928 -0.3932  1.9223 -0.7034
  885TIP3    H2 2601   4.281   3.226   3.035 -1.0200  1.0069 -1.2270
  886TIP3   OH2 2602   7.604   1.608   6.597  0.3195 -0.6612  0.1400
  886TIP3    H1 2603   7.615   1.703   6.592 -0.0297 -0.6154  0.2255
  886TIP3    H2 2604   7.522   1.596   6.644 -0.1939 -0.9874 -0.8169
  887TIP3   OH2 2605   5.150   3.211   1.801 -0.2957 -0.3863 -0.5740
  887TIP3    H1 2606   5.135   3.129   1.754 -1.9991  0.7308 -2.0332
  887TIP3    H2 2607   5.177   3.273   1.733 -0.6607  0.6965  0.2549
  888TIP3   OH2 2608   0.436   5.271   0.824 -0.0366  0.2402 -0.3346
  888TIP3    H1 2609   0.532   5.278   0.826 -0.1099  1.3553 -0.6263
  888TIP3    H2 2610   0.416   5.236   0.738  0.0887  0.3913 -0.4255
  889TIP3   OH2 2611   3.354   4.625   0.208  0.1977  0.0802  0.3562
  889TIP3    H1 2612   3.366   4.537   0.244  0.0340 -0.3817 -0.7220
  889TIP3    H2 2613   3.260   4.632   0.193  0.5891 -0.8243 -2.7453
  890TIP3   OH2 2614   2.826   2.959   0.363  0.1211 -0.5733  0.6155
  890TIP3    H1 2615   2.793   2.942   0.275 -1.6557 -0.9224  1.3279
  890TIP3    H2 2616   2.886   3.033   0.352  1.7057 -2.0573 -1.2384
  891TIP3   OH2 2617   4.735   3.010   3.408 -0.2677 -1.1363  0.0892
  891TIP3    H1 2618   4.760   3.060   3.330  0.5655 -1.0315  0.4319
  891TIP3    H2 2619   4.793   3.041   3.477 -1.0289 -1.2094  0.7701
  892TIP3   OH2 2620   5.831   6.215   6.409  0.3004 -0.2685 -0.4075
  892TIP3    H1 2621   5.741   6.185   6.421  0.7609 -1.0272  1.4175
  892TIP3    H2 2622   5.846   6.210   6.315 -1.4757 -0.3787 -0.7030
  893TIP3   OH2 2623   3.697   4.018   0.818  0.6475 -0.5246  0.1400
  893TIP3    H1 2624   3.712   3.925   0.833  0.5191 -0.8622 -1.7815
  893TIP3    H2 2625   3.633   4.042   0.886  2.6990 -1.1817  2.3694
  894TIP3   OH2 2626   5.816   3.051   1.977 -0.1154  0.2893  0.0491
  894TIP3    H1 2627   5.779   3.031   2.063 -0.8018  2.6648  0.3598
  894TIP3    H2 2628   5.890   3.109   1.996  0.3036  0.0695 -0.9102
  895TIP3   OH2 2629   3.829   3.020   0.593 -0.3680 -0.5872  0.1219
  895TIP3    H1 2630   3.742   2.985   0.572 -0.3257 -0.4902 -0.2216
  895TIP3    H2 2631   3.874   3.023   0.509 -0.2572 -0.0231  0.2017
  896TIP3   OH2 2632   5.141   5.752   6.927  0.6110 -0.6315 -0.2198
  896TIP3    H1 2633   5.143   5.672   6.979  0.1023 -1.0366 -0.8170
  896TIP3    H2 2634   5.176   5.726   6.841  0.3512 -0.2375 -0.4468
  897TIP3   OH2 2635   5.650   6.551   6.280 -0.3470  0.1496 -0.1100
  897TIP3    H1 2636   5.658   6.501   6.199 -0.3739 -2.1913  1.3135
  897TIP3    H2 2637   5.559   6.538   6.308 -0.7427  2.0796 -0.3887
  898TIP3   OH2 2638   0.686   4.321   4.653 -0.4646  0.1297 -0.0577
  898TIP3    H1 2639   0.692   4.395   4.713 -0.6395  2.1775 -2.5165
  898TIP3    H2 2640   0.746   4.343   4.582 -0.7259 -1.9688 -0.9628
  899TIP3   OH2 2641   6.957   5.030   6.339  0.2620 -0.2988 -0.0647
  899TIP3    H1 2642   6.907   5.110   6.352  0.1116 -0.5318  0.8031
  899TIP3    H2 2643   7.033   5.038   6.396  0.9947 -0.1513 -1.0399
  900TIP3   OH2 2644   4.408   2.434   1.330  0.2368 -0.2496  0.2641
  900TIP3    H1 2645   4.330   2.489   1.323  1.7764  2.2774  1.9543
  900TIP3    H2 2646   4.421   2.398   1.242 -1.5997  1.0221 -0.5449
  901TIP3   OH2 2647   4.067   1.474   1.701  0.7319  0.0274  0.6099
  901TIP3    H1 2648   4.078   1.394   1.753 -1.6534 -0.3614  0.5947
  901TIP3    H2 2649   4.017   1.533   1.759 -1.3609 -0.1577 -0.9361
  902TIP3   OH2 2650   7.422   5.750   6.801 -0.2994  0.0386 -0.4593
  902TIP3    H1 2651   7.397   5.659   6.784 -0.6069  0.2067 -0.9300
  902TIP3    H2 2652   7.495   5.766   6.742  0.1710 -0.0951  0.0836
  903TIP3   OH2 2653   4.409   3.086   1.811  0.7343 -0.5226  0.1564
  903TIP3    H1 2654   4.475   3.087   1.741  1.2341  2.0349  0.6051
  903TIP3    H2 2655   4.340   3.144   1.779  0.6928  0.1932  1.5313
  904TIP3   OH2 2656   7.119   3.798   5.784 -0.0468  0.4163 -0.3274
  904TIP3    H1 2657   7.071   3.825   5.706  0.4280 -2.2233 -1.5747
  904TIP3    H2 2658   7.166   3.719   5.757  0.9534  0.0589  2.3398
  905TIP3   OH2 2659   2.361   3.262   1.790  0.3409  0.1537  0.0196
  905TIP3    H1 2660   2.306   3.330   1.749 -0.0525 -0.1264  0.0779
  905TIP3    H2 2661   2.403   3.218   1.716  0.1537  0.0929 -0.0524
  906TIP3   OH2 2662   0.884   1.713   0.096  0.6310 -0.1725  0.2681
  906TIP3    H1 2663   0.870   1.782   0.030 -1.6066 -0.2928  0.5895
  906TIP3    H2 2664   0.918   1.760   0.172  0.2614  0.4077  0.0813
  907TIP3   OH2 2665   3.460   3.882   1.146 -0.1654 -0.2416 -0.1023
  907TIP3    H1 2666   3.443   3.858   1.055  0.6681 -1.0547 -0.0491
  907TIP3    H2 2667   3.471   3.799   1.191  2.0070  0.1816  0.2284
  908TIP3   OH2 2668   4.023   2.135   2.224  0.1374 -0.0554 -0.5980
  908TIP3    H1 2669   4.018   2.050   2.180  2.6613  0.7755 -2.6337
  908TIP3    H2 2670   4.024   2.199   2.153 -1.0055  1.6748  0.8843
  909TIP3   OH2 2671   2.892   0.609   0.345 -0.0692 -0.0187 -0.5414
  909TIP3    H1 2672   2.922   0.631   0.257 -0.2153 -0.3143 -0.6677
  909TIP3    H2 2673   2.917   0.518   0.357 -1.6512 -0.5325 -0.9802
  910TIP3   OH2 2674   3.119   3.696   0.432  0.3169 -0.4914  0.1868
  910TIP3    H1 2675   3.098   3.641   0.356 -0.2435  0.6966 -0.5320
  910TIP3    H2 2676   3.034   3.732   0.460  0.6398 -0.2189  0.8232
  911TIP3   OH2 2677   4.711   2.929   1.548 -0.0340  0.0357  0.0550
  911TIP3    H1 2678   4.645   2.993   1.574 -1.4342 -1.4165  0.1292
  911TIP3    H2 2679   4.761   2.973   1.479 -1.3922  0.9823 -0.3508
  912TIP3   OH2 2680   3.888   3.107   1.059  0.0085  0.3094  0.4924
  912TIP3    H1 2681   3.880   3.012   1.068 -0.1339  0.2379 -0.3239
  912TIP3    H2 2682   3.826   3.130   0.990  0.1995  0.9671  0.5361
  913TIP3   OH2 2683   5.189   5.671   0.161  0.0051 -0.0375  0.0038
  913TIP3    H1 2684   5.180   5.584   0.122  1.2469 -0.0222 -0.3338
  913TIP3    H2 2685   5.099   5.696   0.184 -0.2453 -1.9452  1.2868
  914TIP3   OH2 2686   1.313   4.018   2.753 -0.9358 -0.6085 -0.1383
  914TIP3    H1 2687   1.282   4.109   2.761 -2.0387 -0.9978  0.2478
  914TIP3    H2 2688   1.355   4.000   2.837 -0.3907 -0.3415 -0.3517
  915TIP3   OH2 2689   2.349   3.748   3.853  0.1215  0.2755 -0.2604
  915TIP3    H1 2690   2.412   3.721   3.786  0.5190  1.4293 -0.3650
  915TIP3    H2 2691   2.292   3.673   3.864  0.2605 -0.0492 -1.6647
  916TIP3   OH2 2692   1.190   3.874   1.607 -0.3695  0.2971 -0.0292
  916TIP3    H1 2693   1.272   3.877   1.558 -1.4401  0.9165 -1.8241
  916TIP3    H2 2694   1.170   3.966   1.625 -0.4110  0.1176  0.8611
  917TIP3   OH2 2695   2.867   4.409   1.809 -0.4068  0.1272 -0.7705
  917TIP3    H1 2696   2.901   4.340   1.751  1.5472 -0.4164  0.9720
  917TIP3    H2 2697   2.821   4.362   1.878  0.0479  0.6155 -0.1290
  918TIP3   OH2 2698   6.433   8.045   6.671 -0.0596  0.0505 -0.7104
  918TIP3    H1 2699   6.374   7.979   6.707  0.2205  1.2972  2.1909
  918TIP3    H2 2700   6.508   7.996   6.640 -0.6509 -1.1590 -0.2470
  919TIP3   OH2 2701   5.570   3.143   1.895  0.2648 -0.6324 -0.3699
  919TIP3    H1 2702   5.641   3.098   1.939  1.3563  1.3751 -0.0262
  919TIP3    H2 2703   5.511   3.171   1.965 -0.3330 -1.3718 -0.5683
  920TIP3   OH2 2704   0.381   7.668   3.680  0.1817  0.0224 -1.1266
  920TIP3    H1 2705   0.390   7.574   3.690 -0.9985 -0.2694 -2.7080
  920TIP3    H2 2706   0.469   7.699   3.659  0.6476 -0.6682 -0.1856
  921TIP3   OH2 2707   2.480   3.298   1.123 -0.0611 -0.4484 -0.2936
  921TIP3    H1 2708   2.508   3.227   1.181  0.4009 -1.4183 -1.6866
  921TIP3    H2 2709   2.386   3.283   1.110  0.0463 -0.8368 -0.6281
  922TIP3   OH2 2710   5.258   5.416   1.451 -0.0103  0.1856  0.6464
  922TIP3    H1 2711   5.351   5.403   1.433 -0.0214  0.7001  0.2053
  922TIP3    H2 2712   5.218   5.433   1.365 -0.1504  2.1138  1.0698
  923TIP3   OH2 2713   4.924   7.897   6.627  0.2062  0.1390  0.5565
  923TIP3    H1 2714   4.944   7.990   6.636  2.5225 -0.1743 -0.8360
  923TIP3    H2 2715   4.858   7.893   6.558 -0.1759  0.7575  0.8789
  924TIP3   OH2 2716   2.882   4.991   0.352 -0.1609 -0.0051  0.0921
  924TIP3    H1 2717   2.825   4.938   0.296  0.8079 -0.6820 -0.2687
  924TIP3    H2 2718   2.897   4.938   0.430  0.9219 -0.3333 -0.3294
  925TIP3   OH2 2719   4.575   6.980   6.370 -0.0857  0.2975 -0.0792
  925TIP3    H1 2720   4.666   6.958   6.389 -0.4007 -2.3612 -1.3023
  925TIP3    H2 2721   4.531   6.975   6.455  0.5483 -0.4478  0.2158
  926TIP3   OH2 2722   2.261   3.769   2.626  0.1519  0.4486 -0.1976
  926TIP3    H1 2723   2.186   3.817   2.661  0.1649  1.1238 -1.0943
  926TIP3    H2 2724   2.331   3.784   2.689 -0.2495  0.4491  0.2480
  927TIP3   OH2 2725   3.749   3.111   0.009  0.2832 -0.0691 -0.2168
  927TIP3    H1 2726   3.699   3.142   0.084  1.5526  1.6566 -0.0505
  927TIP3    H2 2727   3.801   3.038   0.044 -0.3054 -0.3136  0.1737
  928TIP3   OH2 2728   3.327   3.957   2.041  0.3460  0.6840  0.1760
  928TIP3    H1 2729   3.321   4.047   2.073  0.5637  0.4681  0.8332
  928TIP3    H2 2730   3.379   3.963   1.962 -1.7170  1.4883 -1.1744
  929TIP3   OH2 2731   3.481   3.338   0.181  0.0410 -0.3225  0.3249
  929TIP3    H1 2732   3.498   3.424   0.217  0.7093  0.3832 -1.5846
  929TIP3    H2 2733   3.528   3.337   0.097 -1.5634 -1.8219 -0.6039
  930TIP3   OH2 2734   1.567   0.417   6.901 -0.4591  0.0999 -0.0172
  930TIP3    H1 2735   1.528   0.454   6.822 -1.5291  0.2572  0.5755
  930TIP3    H2 2736   1.531   0.469   6.972  0.3270 -0.1827  0.5957
  931TIP3   OH2 2737   2.558   3.357   2.190 -0.1097 -0.0185  0.1610
  931TIP3    H1 2738   2.582   3.397   2.274 -0.9701 -0.7063  0.7367
  931TIP3    H2 2739   2.469   3.390   2.173 -0.8505 -1.7189  0.6678
  932TIP3   OH2 2740   0.888   2.804   2.175  0.1101  0.3798  0.0219
  932TIP3    H1 2741   0.891   2.844   2.088 -1.7803  0.6599  0.0570
  932TIP3    H2 2742   0.811   2.842   2.216  0.3734 -0.5641  1.4304
  933TIP3   OH2 2743   0.150   2.266   0.290  0.2320  0.1992 -1.1793
  933TIP3    H1 2744   0.196   2.235   0.212  0.3138 -0.0956 -1.0121
  933TIP3    H2 2745   0.151   2.361   0.281  0.9233  0.1977 -1.1485
  934TIP3   OH2 2746   2.537   3.861   1.612 -0.0923  0.0385 -0.0883
  934TIP3    H1 2747   2.618   3.862   1.663 -0.9559 -0.5823  1.3342
  934TIP3    H2 2748   2.546   3.785   1.554  0.1962 -0.2500  0.3290
  935TIP3   OH2 2749   1.019   3.637   2.834  0.2831 -0.3659 -0.1983
  935TIP3    H1 2750   0.980   3.698   2.897  0.0868 -0.8847  0.1852
  935TIP3    H2 2751   1.069   3.693   2.775 -0.3162  0.2233 -0.1599
  936TIP3   OH2 2752   6.301   6.910   5.484  0.1771 -0.0190  0.1717
  936TIP3    H1 2753   6.367   6.840   5.483 -1.1547 -1.2776 -0.2575
  936TIP3    H2 2754   6.338   6.978   5.427  0.9937 -0.8187 -0.2573
  937TIP3   OH2 2755   4.838   4.295   3.148 -0.1878  0.0850  0.0892
  937TIP3    H1 2756   4.796   4.254   3.224  0.2985 -0.3459  0.1251
  937TIP3    H2 2757   4.855   4.385   3.177 -2.2046  0.6257 -0.3593
  938TIP3   OH2 2758   0.300   0.844   6.795  0.0701 -0.1174 -0.3403
  938TIP3    H1 2759   0.359   0.898   6.742  1.4553 -0.7597  0.5031
  938TIP3    H2 2760   0.319   0.868   6.885 -1.2751 -0.0409 -0.0685
  939TIP3   OH2 2761   3.753   5.238   2.027 -0.4447  0.6091 -0.2423
  939TIP3    H1 2762   3.801   5.176   1.973  0.3593  2.0598 -1.2390
  939TIP3    H2 2763   3.661   5.226   2.003 -0.5840 -1.8887  1.3708
  940TIP3   OH2 2764   3.118   2.528   1.526 -0.0169  0.2784  0.0245
  940TIP3    H1 2765   3.182   2.570   1.585 -1.1040  0.8984  0.7907
  940TIP3    H2 2766   3.136   2.435   1.534 -0.2065  0.3482  1.4319
  941TIP3   OH2 2767   6.711   7.360   4.949 -0.5187  0.3987  0.5940
  941TIP3    H1 2768   6.681   7.295   4.886  0.6392  0.7673 -0.3520
  941TIP3    H2 2769   6.804   7.342   4.960 -0.8608 -0.1740  2.8241
  942TIP3   OH2 2770   0.815   3.408   2.492  0.0337 -0.2119  0.1141
  942TIP3    H1 2771   0.906   3.397   2.521  1.2529  0.5684 -3.2083
  942TIP3    H2 2772   0.794   3.499   2.515  0.0435 -0.4124  0.9454
  943TIP3   OH2 2773   8.304   0.477   6.888  0.0289  0.1776 -0.0533
  943TIP3    H1 2774   8.254   0.432   6.956 -1.5211  0.0203 -1.2559
  943TIP3    H2 2775   8.292   0.570   6.906  0.4342  0.1261  0.4672
  944TIP3   OH2 2776   0.238   0.032   5.093  0.6721 -0.0533  0.0593
  944TIP3    H1 2777   0.328   0.039   5.060  1.3709  1.7494  2.1951
  944TIP3    H2 2778   0.200   0.118   5.075 -0.6015 -0.7620 -0.7019
  945TIP3   OH2 2779   2.989   2.395   1.249  0.1676  0.1258  0.4823
  945TIP3    H1 2780   3.056   2.369   1.312 -0.3683  0.3787  1.1675
  945TIP3    H2 2781   3.028   2.468   1.200 -0.5506  2.0334  2.6591
  946TIP3   OH2 2782   2.870   3.373   2.174 -0.0707  0.0457  0.1268
  946TIP3    H1 2783   2.776   3.393   2.168 -0.5236 -1.9243  0.5587
  946TIP3    H2 2784   2.891   3.386   2.266  0.9006  3.8685 -0.5292
  947TIP3   OH2 2785   3.522   2.691   1.493 -0.1533  0.0407  0.5417
  947TIP3    H1 2786   3.545   2.611   1.540  2.2609 -0.3687 -1.2251
  947TIP3    H2 2787   3.458   2.663   1.427  2.0861 -0.8880 -1.3330
  948TIP3   OH2 2788   3.582   2.506   1.846 -0.6872  0.2324 -0.2501
  948TIP3    H1 2789   3.607   2.469   1.762 -0.4453  0.7639 -0.4112
  948TIP3    H2 2790   3.486   2.500   1.846 -0.6850  0.1659 -0.5279
  949TIP3   OH2 2791   4.393   2.751   1.073  0.0140 -0.0313 -0.8770
  949TIP3    H1 2792   4.363   2.731   1.162  0.1612 -0.3378 -0.8946
  949TIP3    H2 2793   4.446   2.830   1.083  1.6915 -1.2037 -0.3774
  950TIP3   OH2 2794   4.714   4.377   1.607  0.3795 -0.2876  0.3006
  950TIP3    H1 2795   4.746   4.437   1.540  0.2540 -1.5091 -0.8779
  950TIP3    H2 2796   4.793   4.337   1.643  0.5471  1.4317  1.9416
  951TIP3   OH2 2797   3.585   2.557   2.126  0.1770  0.3230  0.6103
  951TIP3    H1 2798   3.601   2.526   2.037  0.2436 -2.8384  1.6568
  951TIP3    H2 2799   3.501   2.602   2.122  0.0532 -0.0406 -0.9877
  952TIP3   OH2 2800   2.874   2.683   0.961 -0.3177  0.7141  0.0146
  952TIP3    H1 2801   2.843   2.772   0.942 -1.2795  0.6777  1.3129
  952TIP3    H2 2802   2.959   2.696   1.004 -1.2449  1.1178  1.7950
  953TIP3   OH2 2803   3.558   1.934   1.240  0.3986 -0.1324  0.2139
  953TIP3    H1 2804   3.477   1.968   1.277  0.2024  0.3846 -0.6960
  953TIP3    H2 2805   3.546   1.938   1.146  1.1663 -0.8206  0.0767
  954TIP3   OH2 2806   6.730   2.223   2.355  0.0786  0.3372 -0.1304
  954TIP3    H1 2807   6.817   2.262   2.357 -0.3551  1.3933 -1.1991
  954TIP3    H2 2808   6.689   2.258   2.276 -0.8182 -1.2521 -0.4018
  955TIP3   OH2 2809   3.047   1.487   1.428  0.4283  0.2873 -0.0950
  955TIP3    H1 2810   3.078   1.402   1.459 -1.7510 -0.2757  0.6666
  955TIP3    H2 2811   2.988   1.517   1.497  0.6381  2.0971 -0.6857
  956TIP3   OH2 2812   2.527   4.132   1.969  0.2545 -0.1309  0.0403
  956TIP3    H1 2813   2.555   4.042   1.956 -0.0128 -0.3430  0.9045
  956TIP3    H2 2814   2.433   4.125   1.988 -0.1034  0.4539 -1.4247
  957TIP3   OH2 2815   2.246   3.581   0.960 -0.4225  0.3295  0.4484
  957TIP3    H1 2816   2.277   3.538   0.880  1.4744  0.5635  1.0481
  957TIP3    H2 2817   2.224   3.670   0.932 -1.4020 -0.0950 -0.1539
  958TIP3   OH2 2818   4.768   3.638   2.447  0.0199 -0.2566 -0.2116
  958TIP3    H1 2819   4.812   3.719   2.472  0.1457 -0.4961  0.3593
  958TIP3    H2 2820   4.677   3.664   2.432  0.6040  0.4715 -2.6453
  959TIP3   OH2 2821   3.265   3.452   4.139 -0.6560 -0.6890 -0.5040
  959TIP3    H1 2822   3.261   3.539   4.099 -0.2162  0.0783  1.0710
  959TIP3    H2 2823   3.191   3.450   4.200 -0.8803 -1.5640 -0.7958
  960TIP3   OH2 2824   0.315   2.865   3.399  0.4801  0.6257 -0.2773
  960TIP3    H1 2825   0.300   2.770   3.391 -0.4980  0.7114  0.4690
  960TIP3    H2 2826   0.296   2.899   3.312 -1.5554  0.4353  0.0655
  961TIP3   OH2 2827   3.830   4.586   2.510  0.0050  0.1009 -0.3233
  961TIP3    H1 2828   3.917   4.626   2.505  0.0132  0.0547 -0.5517
  961TIP3    H2 2829   3.845   4.492   2.503 -0.1533  0.1580 -1.5074
  962TIP3   OH2 2830   7.909   5.722   1.247  0.3160  0.9574  0.4780
  962TIP3    H1 2831   7.914   5.639   1.295 -3.0630 -0.1871 -1.0317
  962TIP3    H2 2832   7.853   5.778   1.300  1.3155  1.7518  0.7124
  963TIP3   OH2 2833   6.116   7.103   5.229 -0.7438  0.0579 -0.1617
  963TIP3    H1 2834   6.202   7.135   5.200 -0.7400  1.1517  1.0238
  963TIP3    H2 2835   6.055   7.171   5.202 -0.9619  0.2666  0.8482
  964TIP3   OH2 2836   3.024   2.777   4.532 -0.4510 -0.2707  0.1852
  964TIP3    H1 2837   2.932   2.761   4.511 -0.6610 -0.0707  0.9501
  964TIP3    H2 2838   3.071   2.754   4.452 -1.1057 -0.9727 -0.0019
  965TIP3   OH2 2839   3.792   3.993   3.100  0.7254  0.4224  0.0218
  965TIP3    H1 2840   3.759   3.930   3.164  0.8420  0.6680  0.3241
  965TIP3    H2 2841   3.778   4.079   3.140  1.7240  0.5348  0.1567
  966TIP3   OH2 2842   4.045   6.080   5.965  0.4095  0.0373  0.2248
  966TIP3    H1 2843   4.038   6.174   5.947  1.2037  0.2444  0.9645
  966TIP3    H2 2844   3.981   6.040   5.906  0.8867  0.9431 -0.9409
  967TIP3   OH2 2845   7.591   0.535   6.458 -0.0173 -0.1913 -0.6298
  967TIP3    H1 2846   7.624   0.614   6.415  1.0673 -1.8093 -2.8976
  967TIP3    H2 2847   7.654   0.519   6.528  0.4791  0.2578 -0.9643
  968TIP3   OH2 2848   5.350   1.916   2.222 -0.0137  1.0765  0.1237
  968TIP3    H1 2849   5.382   1.916   2.312  0.3162 -1.9509  0.0645
  968TIP3    H2 2850   5.430   1.921   2.169 -0.1133  1.2810 -0.0051
  969TIP3   OH2 2851   1.912   0.782   5.184  0.4952  0.2366 -0.3774
  969TIP3    H1 2852   1.961   0.801   5.264  0.1325  0.3586 -0.1838
  969TIP3    H2 2853   1.910   0.687   5.179  1.9881  0.2268 -1.1470
  970TIP3   OH2 2854   2.746   3.594   0.513 -0.0049 -0.0070 -0.0893
  970TIP3    H1 2855   2.794   3.670   0.481  0.3736 -0.4751 -0.6357
  970TIP3    H2 2856   2.807   3.521   0.505  0.3585 -0.0195  2.3761
  971TIP3   OH2 2857   3.723   4.804   2.637 -0.0535 -0.6558  0.5406
  971TIP3    H1 2858   3.704   4.839   2.550 -1.2067 -2.2325  0.1213
  971TIP3    H2 2859   3.751   4.714   2.620 -0.4297 -1.0201  1.7942
  972TIP3   OH2 2860   5.471   3.434   1.454  0.0246  0.5034 -0.0927
  972TIP3    H1 2861   5.533   3.393   1.514 -1.0088  1.7322  1.8536
  972TIP3    H2 2862   5.496   3.527   1.454 -1.1228  0.8213 -0.1464
  973TIP3   OH2 2863   5.822   7.294   6.872 -0.7064  0.0945 -0.0229
  973TIP3    H1 2864   5.762   7.344   6.926 -0.9871  1.1392 -1.2703
  973TIP3    H2 2865   5.904   7.293   6.922 -1.1892  0.3242  0.7824
  974TIP3   OH2 2866   4.891   3.397   3.094  0.4873 -0.1938  0.0052
  974TIP3    H1 2867   4.922   3.482   3.124 -0.6037  0.8218 -1.6331
  974TIP3    H2 2868   4.801   3.391   3.125  0.3646 -0.4764 -0.3895
  975TIP3   OH2 2869   2.283   2.044   1.881  0.2214  0.1012 -0.5627
  975TIP3    H1 2870   2.242   2.066   1.798  0.6065 -0.4074 -0.8846
  975TIP3    H2 2871   2.372   2.080   1.874  0.7252 -1.1982 -0.9355
  976TIP3   OH2 2872   4.051   3.291   3.111  0.1709 -0.0051  0.6673
  976TIP3    H1 2873   4.036   3.354   3.041 -0.1442  1.4960  2.0550
  976TIP3    H2 2874   3.992   3.319   3.181  0.2759 -1.6463  1.4342
  977TIP3   OH2 2875   2.517   3.152   2.398 -0.3635 -0.1373 -0.1773
  977TIP3    H1 2876   2.568   3.202   2.335 -2.8422  1.5731 -0.9210
  977TIP3    H2 2877   2.494   3.072   2.353 -1.0838  0.5389 -1.0282
  978TIP3   OH2 2878   1.741   3.475   1.695 -0.0064 -0.0927  0.3773
  978TIP3    H1 2879   1.819   3.526   1.673  0.3007  0.1020  1.8628
  978TIP3    H2 2880   1.717   3.505   1.783 -1.7890 -0.1201 -0.0895
  979TIP3   OH2 2881   3.839   3.525   2.570  0.1597 -0.1136 -0.0717
  979TIP3    H1 2882   3.788   3.603   2.591 -0.0638 -0.2322 -0.1737
  979TIP3    H2 2883   3.820   3.507   2.478  1.3040  0.5333 -0.4485
  980TIP3   OH2 2884   3.235   3.065   2.147 -0.1490 -0.2362 -0.8193
  980TIP3    H1 2885   3.280   2.997   2.097 -0.4523 -2.0057  1.2708
  980TIP3    H2 2886   3.303   3.104   2.202 -0.5131 -0.6858 -0.0488
  981TIP3   OH2 2887   4.111   2.268   1.247  0.1217  0.0893 -0.1178
  981TIP3    H1 2888   4.149   2.355   1.235  1.1818 -0.2598  0.6077
  981TIP3    H2 2889   4.108   2.230   1.159 -0.4792  0.9028 -0.4584
  982TIP3   OH2 2890   2.857   6.132   1.402  0.4399  0.1865  0.3545
  982TIP3    H1 2891   2.911   6.210   1.394  1.2616 -0.4356 -0.3015
  982TIP3    H2 2892   2.834   6.128   1.495  1.6460  0.3922  0.6752
  983TIP3   OH2 2893   3.251   3.623   0.966 -0.2683 -0.3149  0.2992
  983TIP3    H1 2894   3.276   3.588   1.051 -2.1567 -3.0323 -0.2035
  983TIP3    H2 2895   3.171   3.673   0.983 -0.0009  0.1249  0.2864
  984TIP3   OH2 2896   6.275   3.812   1.534  0.1596 -0.1810  0.1809
  984TIP3    H1 2897   6.367   3.817   1.559  0.0778 -1.0746  0.7078
  984TIP3    H2 2898   6.244   3.730   1.574 -0.3724 -0.8597 -1.5608
  985TIP3   OH2 2899   4.672   2.716   2.585 -0.0766  0.0327 -0.6272
  985TIP3    H1 2900   4.673   2.811   2.573  1.3489  0.2225  0.8457
  985TIP3    H2 2901   4.653   2.682   2.497 -1.5571  1.6786 -0.9944
  986TIP3   OH2 2902   5.150   4.072   1.874 -0.2808  0.1132 -0.0678
  986TIP3    H1 2903   5.208   4.048   1.946 -0.5545  1.0448  0.4761
  986TIP3    H2 2904   5.102   4.148   1.907 -0.1937  0.7301 -1.3409
  987TIP3   OH2 2905   5.150   4.842   2.245 -0.5093  0.5083 -0.3707
  987TIP3    H1 2906   5.118   4.929   2.267  0.0259  0.7498 -0.5437
  987TIP3    H2 2907   5.212   4.821   2.315  0.9877  1.1630 -1.4901
  988TIP3   OH2 2908   5.546   7.739   5.856 -0.3287 -0.5431  0.3562
  988TIP3    H1 2909   5.458   7.746   5.894  0.3703 -1.6052  2.2806
  988TIP3    H2 2910   5.565   7.645   5.856 -0.4469 -0.6287 -3.1087
  989TIP3   OH2 2911   4.181   2.582   1.335  0.0180  0.0031 -0.7071
  989TIP3    H1 2912   4.113   2.545   1.390 -1.2319  0.9495 -1.5724
  989TIP3    H2 2913   4.146   2.667   1.308  2.0243  0.9985 -0.2589
  990TIP3   OH2 2914   1.424   6.424   0.840 -0.0715 -0.2375  0.0336
  990TIP3    H1 2915   1.453   6.374   0.764  0.7364 -0.0244  0.1941
  990TIP3    H2 2916   1.436   6.516   0.815  0.1094 -0.1630  0.3879
  991TIP3   OH2 2917   1.813   3.752   3.030 -0.0299  0.5023  0.3672
  991TIP3    H1 2918   1.784   3.822   2.973 -1.9402 -0.9181 -0.4863
  991TIP3    H2 2919   1.888   3.714   2.986 -1.1603 -0.2350 -0.9701
  992TIP3   OH2 2920   2.568   0.660   6.735  0.4463  0.3496 -0.1522
  992TIP3    H1 2921   2.592   0.649   6.643  1.3199  1.2165 -0.0413
  992TIP3    H2 2922   2.476   0.635   6.739  0.7086 -0.8152 -1.0353
  993TIP3   OH2 2923   2.953   2.904   2.617 -0.2865 -0.5570 -0.1375
  993TIP3    H1 2924   3.041   2.890   2.584 -0.2718  0.2334 -0.4512
  993TIP3    H2 2925   2.947   2.999   2.631 -0.6398 -0.7576  1.1428
  994TIP3   OH2 2926   5.144   3.615   2.907  0.1341 -0.1259  0.8302
  994TIP3    H1 2927   5.178   3.577   2.826  2.5972  1.5555  1.0415
  994TIP3    H2 2928   5.056   3.645   2.884  0.3939 -0.6715 -0.9133
  995TIP3   OH2 2929   4.126   5.060   0.548  0.3337 -0.0754  0.1135
  995TIP3    H1 2930   4.151   5.093   0.462 -0.9972  0.7534  0.0408
  995TIP3    H2 2931   4.095   4.971   0.531 -0.6690  0.3610 -0.3868
  996TIP3   OH2 2932   4.767   4.658   0.126  0.1339 -0.1063  0.2723
  996TIP3    H1 2933   4.795   4.744   0.158 -1.6740  0.2424  1.0069
  996TIP3    H2 2934   4.843   4.602   0.136  1.7651  1.7160 -1.4630
  997TIP3   OH2 2935   4.194   4.506   0.942 -0.2993  0.2995 -0.1575
  997TIP3    H1 2936   4.122   4.445   0.924  0.5846 -0.6486 -0.5475
  997TIP3    H2 2937   4.172   4.584   0.890 -0.7441 -0.2017 -0.7310
  998TIP3   OH2 2938   3.268   4.919   1.688  0.0246 -0.1087 -0.3004
  998TIP3    H1 2939   3.233   5.004   1.660  2.3010  1.4557  1.4172
  998TIP3    H2 2940   3.317   4.887   1.612  0.9253  1.1260 -0.2484
  999TIP3   OH2 2941   2.894   2.233   1.636 -0.3103  0.3626  0.8069
  999TIP3    H1 2942   2.871   2.282   1.715 -1.9232  0.9860 -0.0296
  999TIP3    H2 2943   2.836   2.267   1.569 -0.0095 -1.2343 -0.2948
 1000TIP3   OH2 2944   2.964   2.927   2.265  0.3054 -0.1642  0.3972
 1000TIP3    H1 2945   3.031   2.949   2.201  0.3204  0.1499  0.5186
 1000TIP3    H2 2946   2.907   2.865   2.220 -0.1559  0.6837 -0.2084
 1001TIP3   OH2 2947   2.952   4.388   1.460  0.0486  0.2317 -0.7308
 1001TIP3    H1 2948   2.993   4.465   1.498 -0.3239  0.4558 -0.7835
 1001TIP3    H2 2949   2.981   4.315   1.516  1.2169  0.2633 -1.2839
 1002TIP3   OH2 2950   4.369   4.156   2.686  0.2193 -0.2140  0.0332
 1002TIP3    H1 2951   4.447   4.210   2.671  0.1473 -0.2674 -0.5560
 1002TIP3    H2 2952   4.320   4.202   2.754 -0.0220  0.6442 -0.7251
 1003TIP3   OH2 2953   5.016   3.008   3.056  0.1155 -0.5279  0.0810
 1003TIP3    H1 2954   5.068   2.952   2.998  1.9198 -0.1106  1.2646
 1003TIP3    H2 2955   4.997   2.953   3.132 -1.1115 -0.6372 -0.2844
 1004TIP3   OH2 2956   6.070   7.410   6.399  0.1838 -0.4729  0.3799
 1004TIP3    H1 2957   6.022   7.347   6.347  1.1183 -0.7468 -0.1596
 1004TIP3    H2 2958   6.080   7.369   6.485 -0.8606 -0.2570  0.6040
 1005TIP3   OH2 2959   5.914   4.423   1.367  0.0722  0.1157  1.0080
 1005TIP3    H1 2960   5.884   4.465   1.448 -0.5400  1.3531  0.1614
 1005TIP3    H2 2961   5.969   4.489   1.325 -0.4766 -0.1224 -0.1027
 1006TIP3   OH2 2962   3.628   5.730   1.561  0.0503 -0.7259 -0.6941
 1006TIP3    H1 2963   3.681   5.718   1.482 -0.5509  2.1290 -1.5788
 1006TIP3    H2 2964   3.557   5.667   1.551  0.1558 -0.6155 -2.2779
 1007TIP3   OH2 2965   4.811   3.372   2.833  0.7401 -0.4071 -0.0910
 1007TIP3    H1 2966   4.845   3.394   2.920  0.5566 -1.0019  0.1375
 1007TIP3    H2 2967   4.805   3.276   2.834  2.7127 -0.5791 -1.4943
 1008TIP3   OH2 2968   4.144   2.411   0.804 -0.1774  0.1479 -0.1419
 1008TIP3    H1 2969   4.188   2.330   0.779 -0.9655  0.1551 -1.6258
 1008TIP3    H2 2970   4.054   2.386   0.822 -0.2333  0.5696  0.1776
 1009TIP3   OH2 2971   1.922   2.911   4.758 -0.1544 -0.2888  0.8790
 1009TIP3    H1 2972   1.924   2.980   4.691 -1.9382 -1.1716 -0.1073
 1009TIP3    H2 2973   1.967   2.837   4.717 -2.2510 -1.2103  0.1910
 1010TIP3   OH2 2974   5.778   3.477   1.961 -0.0789  0.2267  0.4918
 1010TIP3    H1 2975   5.849   3.464   2.024  1.1308  2.1994 -0.4264
 1010TIP3    H2 2976   5.798   3.417   1.889 -0.1932 -0.3287  0.9155
 1011TIP3   OH2 2977   6.643   6.194   6.872 -0.2128 -0.1364 -0.1605
 1011TIP3    H1 2978   6.578   6.183   6.942  0.1294 -1.8656 -0.1161
 1011TIP3    H2 2979   6.593   6.183   6.791 -0.3388  0.4750 -0.1706
 1012TIP3   OH2 2980   4.081   4.814   1.748 -0.3798 -0.4779 -0.6195
 1012TIP3    H1 2981   4.071   4.722   1.722  0.0452 -0.8194  0.4057
 1012TIP3    H2 2982   4.163   4.841   1.706  0.7317 -1.2661  0.9920
 1013TIP3   OH2 2983   3.828   2.131   0.743  0.1805 -0.2734 -0.5331
 1013TIP3    H1 2984   3.765   2.133   0.671 -1.4051  2.7166  0.8437
 1013TIP3    H2 2985   3.904   2.177   0.709  1.2905 -2.9543 -1.8327
 1014TIP3   OH2 2986   5.492   3.699   2.673  0.3832 -0.0165  0.0329
 1014TIP3    H1 2987   5.557   3.632   2.655  0.9938  0.5780  0.0233
 1014TIP3    H2 2988   5.511   3.768   2.609  1.2802  1.2235  1.6142
 1015TIP3   OH2 2989   4.791   2.655   1.567  0.3169 -0.2168  0.2272
 1015TIP3    H1 2990   4.784   2.644   1.662 -0.0734 -0.2224  0.1970
 1015TIP3    H2 2991   4.722   2.718   1.545  0.2063 -0.4535 -0.0955
 1016TIP3   OH2 2992   3.057   4.225   1.658 -0.5275 -0.3936 -0.4035
 1016TIP3    H1 2993   3.130   4.174   1.624  1.2740  2.7369 -1.4366
 1016TIP3    H2 2994   3.084   4.253   1.745  0.0455  1.7173 -1.2245
 1017TIP3   OH2 2995   6.511   2.719   1.219  0.2747  0.3676  0.0795
 1017TIP3    H1 2996   6.502   2.698   1.312 -0.6614 -2.2687 -0.5570
 1017TIP3    H2 2997   6.593   2.678   1.193  0.7706  1.5075 -0.1548
 1018TIP3   OH2 2998   3.236   3.966   3.283  0.0975  0.7091 -0.5986
 1018TIP3    H1 2999   3.235   4.007   3.197  2.3270  0.6807 -0.6685
 1018TIP3    H2 3000   3.229   4.040   3.344  0.4420  0.8969 -0.7812
 1019TIP3   OH2 3001   3.590   5.346   1.741  0.1486  0.4931  0.2837
 1019TIP3    H1 3002   3.565   5.272   1.685  1.4072 -0.3524  0.8193
 1019TIP3    H2 3003   3.557   5.322   1.828  2.3337 -0.4192  0.9014
 1020TIP3   OH2 3004   3.627   2.411   1.548 -0.5681  0.1480 -0.2598
 1020TIP3    H1 3005   3.569   2.340   1.522 -0.3935 -0.3469  0.6835
 1020TIP3    H2 3006   3.714   2.383   1.519 -0.6637  0.5294 -0.9530
 1021TIP3   OH2 3007   4.706   5.177   2.146 -0.1066 -0.2113 -0.2831
 1021TIP3    H1 3008   4.708   5.235   2.070  0.9345  1.1375  0.7438
 1021TIP3    H2 3009   4.798   5.154   2.161 -0.4401 -1.6450 -0.2961
 1022TIP3   OH2 3010   5.344   3.755   3.363 -0.4324 -0.5965 -0.4311
 1022TIP3    H1 3011   5.363   3.695   3.435 -1.6769 -2.2222 -1.4219
 1022TIP3    H2 3012   5.249   3.748   3.351 -0.2188 -0.3928 -2.2708
 1023TIP3   OH2 3013   7.085   4.589   6.747  0.3200  0.2891  0.1057
 1023TIP3    H1 3014   7.035   4.629   6.675  0.4100  0.8993  0.3792
 1023TIP3    H2 3015   7.076   4.651   6.819 -1.0151 -1.0379  1.1048
 1024TIP3   OH2 3016   0.389   3.377   0.978 -0.7622 -0.4347  0.0394
 1024TIP3    H1 3017   0.476   3.338   0.965  0.2725  1.9364 -0.4056
 1024TIP3    H2 3018   0.371   3.365   1.071  0.3995 -0.2305  0.2983
 1025TIP3   OH2 3019   3.297   4.905   1.181 -0.4702 -0.2515 -0.1146
 1025TIP3    H1 3020   3.328   4.872   1.097  1.8499  0.6628  0.3462
 1025TIP3    H2 3021   3.251   4.986   1.160 -1.7321 -1.1021 -0.7015
 1026TIP3   OH2 3022   0.856   1.620   5.629  0.2561  1.3032  0.2617
 1026TIP3    H1 3023   0.771   1.576   5.619  0.7393  0.4199 -0.0040
 1026TIP3    H2 3024   0.888   1.590   5.714  1.0219  0.3731 -0.3446
 1027TIP3   OH2 3025   2.645   3.607   1.794 -0.1209  0.0415  0.1311
 1027TIP3    H1 3026   2.576   3.566   1.741 -0.3483  1.1799 -0.4614
 1027TIP3    H2 3027   2.722   3.552   1.780 -0.6414 -0.6569 -0.0076
 1028TIP3   OH2 3028   2.489   5.667   2.881  0.1472  0.6626  0.0811
 1028TIP3    H1 3029   2.568   5.617   2.901 -0.5297 -0.1429  0.7501
 1028TIP3    H2 3030   2.418   5.619   2.924 -0.8401  0.8870 -1.2748
 1029TIP3   OH2 3031   2.597   3.957   0.567  0.9440 -0.4608 -0.1184
 1029TIP3    H1 3032   2.646   4.035   0.593 -0.7688  1.2281 -1.8166
 1029TIP3    H2 3033   2.505   3.982   0.577  0.3380 -1.5740 -2.5679
 1030TIP3   OH2 3034   0.330   2.757   6.164  0.1391 -0.5976  0.4136
 1030TIP3    H1 3035   0.414   2.761   6.117  0.0037  0.1194  0.2320
 1030TIP3    H2 3036   0.354   2.751   6.256  0.3834  1.5962  0.5081
 1031TIP3   OH2 3037   3.688   3.963   0.544  0.7263  0.3911 -0.1052
 1031TIP3    H1 3038   3.685   3.989   0.636 -1.2455  0.1924 -0.0913
 1031TIP3    H2 3039   3.667   4.042   0.495  2.3430  0.6389 -0.4388
 1032TIP3   OH2 3040   5.460   4.265   1.547 -0.4988 -0.6236 -0.3927
 1032TIP3    H1 3041   5.426   4.355   1.548 -1.1598 -0.8407  3.0703
 1032TIP3    H2 3042   5.383   4.210   1.560  0.1781 -1.5617 -0.3605
 1033TIP3   OH2 3043   7.807   5.744   5.592 -0.3119  0.2570  0.2070
 1033TIP3    H1 3044   7.845   5.657   5.579 -0.9571 -0.0131  0.0941
 1033TIP3    H2 3045   7.729   5.728   5.645 -0.7481  0.6986 -0.2954
 1034TIP3   OH2 3046   3.794   3.609   0.013  0.6727 -0.3995 -0.3160
 1034TIP3    H1 3047   3.809   3.674  -0.055 -2.8719  0.5076 -0.3101
 1034TIP3    H2 3048   3.821   3.652   0.094 -1.2157  0.9552 -0.3744
 1035TIP3   OH2 3049   3.090   2.853   1.057  0.3342  0.0237  0.5496
 1035TIP3    H1 3050   3.057   2.938   1.028  0.3718  0.0382  0.5491
 1035TIP3    H2 3051   3.127   2.870   1.143  0.7508  0.1035  0.3566
 1036TIP3   OH2 3052   1.999   0.624   0.065 -0.4286 -0.1814 -0.3300
 1036TIP3    H1 3053   2.032   0.584   0.145 -1.0620  0.1608  0.1023
 1036TIP3    H2 3054   2.005   0.555  -0.001  2.9568  0.4098 -0.7357
 1037TIP3   OH2 3055   3.533   2.421   2.340  0.0523 -0.0101  0.2470
 1037TIP3    H1 3056   3.545   2.462   2.254  0.0617  0.0006  0.2536
 1037TIP3    H2 3057   3.588   2.342   2.337 -0.4998 -0.3846 -0.0089
 1038TIP3   OH2 3058   8.226   4.674   6.848  0.2219 -0.0755  0.4821
 1038TIP3    H1 3059   8.219   4.768   6.861 -0.4758 -0.1811  0.9065
 1038TIP3    H2 3060   8.143   4.649   6.807 -0.5352 -0.8258  2.4068
 1039TIP3   OH2 3061   4.667   3.965   0.627  0.4556 -1.0631  0.3662
 1039TIP3    H1 3062   4.689   3.993   0.716 -0.2585 -1.1305  0.5694
 1039TIP3    H2 3063   4.604   3.894   0.640 -1.3103  0.3655 -0.2154
 1040TIP3   OH2 3064   1.165   3.236   0.529  0.0865  0.5322 -0.0648
 1040TIP3    H1 3065   1.093   3.196   0.578  0.3060 -0.2447 -0.3698
 1040TIP3    H2 3066   1.206   3.296   0.592 -0.5428  0.6396  0.2455
 1041TIP3   OH2 3067   4.246   3.579   1.516  0.6929  0.1988  0.1720
 1041TIP3    H1 3068   4.164   3.594   1.561  0.8079  0.5337  0.2747
 1041TIP3    H2 3069   4.242   3.488   1.487 -0.8279  0.9297 -2.0875
 1042TIP3   OH2 3070   3.655   3.709   1.860  0.6811  0.6950  0.1917
 1042TIP3    H1 3071   3.571   3.749   1.837 -0.6314 -1.8329  0.4857
 1042TIP3    H2 3072   3.721   3.770   1.826 -1.2544  1.6512 -1.9227
 1043TIP3   OH2 3073   2.321   3.605   0.253 -0.3378 -0.3692  0.0170
 1043TIP3    H1 3074   2.385   3.662   0.296 -0.5830 -0.8397  1.0335
 1043TIP3    H2 3075   2.322   3.525   0.306  0.2201 -1.4235 -1.5763
 1044TIP3   OH2 3076   2.609   1.621   6.394  0.4555  0.3057 -0.4821
 1044TIP3    H1 3077   2.561   1.581   6.322  0.8631 -0.0511 -0.5623
 1044TIP3    H2 3078   2.650   1.547   6.439  1.5638  0.6608 -0.8900
 1045TIP3   OH2 3079   3.282   4.087   2.718 -0.3287  0.0821 -0.4152
 1045TIP3    H1 3080   3.207   4.030   2.701 -0.0066 -0.4641  0.0095
 1045TIP3    H2 3081   3.244   4.175   2.723 -0.8155 -0.0818 -1.1247
 1046TIP3   OH2 3082   2.914   2.190   2.283 -0.4156 -0.0618 -0.0172
 1046TIP3    H1 3083   3.008   2.175   2.282 -0.3870 -0.1071  1.5167
 1046TIP3    H2 3084   2.904   2.281   2.312 -0.8427 -0.0576 -0.1686
 1047TIP3   OH2 3085   8.365   0.215   5.683  0.1549  0.2253  0.0301
 1047TIP3    H1 3086   8.344   0.134   5.729  0.3997  0.4152  0.4767
 1047TIP3    H2 3087   8.408   0.270   5.749 -0.3514  0.8679 -0.1664
 1048TIP3   OH2 3088   2.939   2.141   4.229 -0.5202  0.1898  0.1038
 1048TIP3    H1 3089   2.972   2.118   4.316 -0.1030  0.8591  0.1260
 1048TIP3    H2 3090   2.863   2.085   4.217 -0.4459 -0.0715  0.8086
 1049TIP3   OH2 3091   1.154   5.031   0.882  0.2444 -0.4497  0.1100
 1049TIP3    H1 3092   1.131   5.005   0.792  0.4896  0.2413 -0.1605
 1049TIP3    H2 3093   1.082   4.998   0.935  0.0242 -0.7438 -0.3626
 1050TIP3   OH2 3094   5.140   5.316   0.837 -0.3255  0.4183 -0.0070
 1050TIP3    H1 3095   5.076   5.289   0.772  0.1587  1.4738 -0.9357
 1050TIP3    H2 3096   5.211   5.253   0.829  0.0353  0.9425 -0.9737
 1051TIP3   OH2 3097   1.416   0.391   5.032  0.0379 -0.7076  0.4023
 1051TIP3    H1 3098   1.482   0.340   5.080 -0.8117  0.6347  3.1230
 1051TIP3    H2 3099   1.342   0.396   5.092 -0.5449  2.2277 -0.4966
 1052TIP3   OH2 3100   4.000   3.799   1.153 -0.4337 -0.1470  0.1336
 1052TIP3    H1 3101   3.929   3.861   1.170 -0.6730 -0.2326 -0.5162
 1052TIP3    H2 3102   4.063   3.848   1.101 -0.3169 -0.2545  0.1757
 1053TIP3   OH2 3103   2.133   1.009   6.384 -0.2041  0.2089  0.0266
 1053TIP3    H1 3104   2.166   1.091   6.346  0.4060 -0.3311 -0.6160
 1053TIP3    H2 3105   2.177   0.940   6.334 -2.7287 -0.5258 -1.2467
 1054TIP3   OH2 3106   3.760   5.165   1.386  0.3797  0.1727  0.4497
 1054TIP3    H1 3107   3.824   5.153   1.456 -1.2643  0.8982  2.1278
 1054TIP3    H2 3108   3.678   5.186   1.432 -0.9143 -0.1112 -1.6643
 1055TIP3   OH2 3109   5.250   3.684   0.853 -0.3588  0.0862 -0.0659
 1055TIP3    H1 3110   5.175   3.629   0.828  0.0882 -0.2292 -0.7368
 1055TIP3    H2 3111   5.327   3.630   0.833  0.1151  1.2459 -1.4536
 1056TIP3   OH2 3112   6.170   3.348   0.358  0.1429 -0.3366 -0.0355
 1056TIP3    H1 3113   6.165   3.277   0.294 -1.0773 -0.8263  0.5952
 1056TIP3    H2 3114   6.128   3.313   0.437 -1.0998  1.3274  0.0707
 1057TIP3   OH2 3115   5.373   3.172   1.503  0.6173 -0.0815 -0.2433
 1057TIP3    H1 3116   5.438   3.103   1.487  1.2167  0.4023  0.0903
 1057TIP3    H2 3117   5.417   3.253   1.478 -0.0310  0.2001 -0.4829
 1058TIP3   OH2 3118   6.618   6.334   6.270  0.7280 -0.0276 -0.0909
 1058TIP3    H1 3119   6.655   6.345   6.357  0.1967  0.1061  0.1197
 1058TIP3    H2 3120   6.686   6.288   6.220  0.8623 -0.4796  0.5088
 1059TIP3   OH2 3121   3.507   2.315   3.521 -0.2013  0.7432 -0.6127
 1059TIP3    H1 3122   3.463   2.344   3.441 -1.1794  0.4563 -0.1889
 1059TIP3    H2 3123   3.436   2.307   3.586 -0.2022 -3.7490 -1.0073
 1060TIP3   OH2 3124   5.317   3.261   2.043 -0.0709 -0.0289  0.1824
 1060TIP3    H1 3125   5.273   3.229   1.964  0.3558  1.0742 -0.5060
 1060TIP3    H2 3126   5.295   3.354   2.047  0.5736  0.0922  0.9263
 1061TIP3   OH2 3127   4.940   5.003   2.268 -0.1942  0.3703 -0.0607
 1061TIP3    H1 3128   4.987   5.034   2.190  1.5225  1.5420  1.3962
 1061TIP3    H2 3129   4.923   4.911   2.251  0.3240  0.5675 -1.7347
 1062TIP3   OH2 3130   6.724   1.103   0.412 -0.2067  0.0263 -0.1375
 1062TIP3    H1 3131   6.662   1.165   0.372 -3.0054 -1.4629  1.7318
 1062TIP3    H2 3132   6.685   1.082   0.497  2.2136 -2.0094  0.5133
 1063TIP3   OH2 3133   3.867   1.596   1.005  0.4070  0.3451  0.0488
 1063TIP3    H1 3134   3.782   1.619   1.042  0.8699  0.8018  0.8380
 1063TIP3    H2 3135   3.926   1.593   1.080  1.5960  2.3029 -0.7581
 1064TIP3   OH2 3136   4.357   2.436   6.145 -0.0531 -0.5212  0.3178
 1064TIP3    H1 3137   4.396   2.378   6.210 -2.2029 -2.9515 -0.4507
 1064TIP3    H2 3138   4.405   2.418   6.064 -1.4512 -2.1333 -0.1867
 1065TIP3   OH2 3139   6.191   4.694   0.795 -0.1233  0.1816 -0.0606
 1065TIP3    H1 3140   6.117   4.636   0.780 -0.0349 -0.2999  1.2754
 1065TIP3    H2 3141   6.151   4.775   0.828 -0.0230 -0.2449  1.1099
 1066TIP3   OH2 3142   6.442   5.137   1.435  0.2633 -0.5986  0.5954
 1066TIP3    H1 3143   6.380   5.077   1.394  1.6483 -1.5831 -0.1068
 1066TIP3    H2 3144   6.505   5.080   1.478  0.5834  0.3908  1.4416
 1067TIP3   OH2 3145   6.866   3.903   0.759 -0.0897 -0.1504  0.7165
 1067TIP3    H1 3146   6.795   3.961   0.785  0.3820  0.3605  0.8734
 1067TIP3    H2 3147   6.882   3.850   0.838  0.1421  0.1809  0.8933
 1068TIP3   OH2 3148   4.448   6.521   0.431  0.5701 -0.1797 -0.1463
 1068TIP3    H1 3149   4.459   6.576   0.508  1.1092 -1.5124  0.7468
 1068TIP3    H2 3150   4.520   6.545   0.373 -0.4878  1.6402 -0.7696
 1069TIP3   OH2 3151   6.044   3.194   1.576  0.2332 -0.3072  0.4154
 1069TIP3    H1 3152   6.038   3.181   1.482 -0.1336  0.3647  0.3426
 1069TIP3    H2 3153   6.137   3.207   1.593  0.3057 -0.4845  0.1572
 1070TIP3   OH2 3154   2.060   5.237   6.076  0.6574  0.4952 -0.4989
 1070TIP3    H1 3155   2.007   5.283   6.011 -1.0793  1.4455  1.5347
 1070TIP3    H2 3156   2.129   5.299   6.098 -0.4130  1.3146  0.6299
 1071TIP3   OH2 3157   5.606   4.544   0.883 -0.2754 -0.4098 -0.1926
 1071TIP3    H1 3158   5.555   4.472   0.846 -1.2796  0.5612 -0.7412
 1071TIP3    H2 3159   5.558   4.572   0.960 -2.1848  2.3536 -2.2617
 1072TIP3   OH2 3160   1.700   5.843   6.884  0.2710  0.0942  1.0581
 1072TIP3    H1 3161   1.685   5.866   6.792 -0.9952 -2.1028  0.6821
 1072TIP3    H2 3162   1.774   5.898   6.911  1.4969 -0.1542 -1.6503
 1073TIP3   OH2 3163   7.300   0.345   0.155 -0.0173 -0.2479  0.1091
 1073TIP3    H1 3164   7.284   0.423   0.103  1.5988 -0.0207 -0.0657
 1073TIP3    H2 3165   7.374   0.302   0.112  1.4562  0.0220  2.2517
 1074TIP3   OH2 3166   6.081   1.299   0.627  0.0626  0.1617  0.3024
 1074TIP3    H1 3167   6.019   1.231   0.603 -1.3436  1.3272  0.5675
 1074TIP3    H2 3168   6.164   1.253   0.640 -1.1316 -1.6464  1.6304
 1075TIP3   OH2 3169   6.159   6.837   0.058 -0.2062  0.4212  0.2982
 1075TIP3    H1 3170   6.124   6.925   0.071  1.0783  0.8128  1.1328
 1075TIP3    H2 3171   6.193   6.812   0.144  2.2562  0.3567 -0.6652
 1076TIP3   OH2 3172   6.453   2.377   0.353  0.1967 -0.0994  0.2265
 1076TIP3    H1 3173   6.514   2.357   0.282  2.9658  0.7745  2.2707
 1076TIP3    H2 3174   6.418   2.464   0.331  1.5234  0.4465  0.2364
 1077TIP3   OH2 3175   7.307   2.221   1.879 -0.8252  0.0156 -0.0535
 1077TIP3    H1 3176   7.267   2.149   1.831  0.2684 -0.9585  0.4856
 1077TIP3    H2 3177   7.308   2.294   1.816 -1.9314 -0.4173 -0.5960
 1078TIP3   OH2 3178   5.985   3.393   2.188  0.3096 -0.3671  0.0047
 1078TIP3    H1 3179   6.070   3.402   2.231  0.4230 -0.9479 -0.0952
 1078TIP3    H2 3180   5.936   3.332   2.244  0.2478 -0.6601 -0.3686
 1079TIP3   OH2 3181   4.902   4.469   2.029 -0.1085  0.3697  0.1092
 1079TIP3    H1 3182   4.986   4.438   1.996 -0.0257  0.8184 -0.0937
 1079TIP3    H2 3183   4.888   4.553   1.985 -0.1020  0.8606  1.0419
 1080TIP3   OH2 3184   5.853   4.435   2.304 -0.6171  0.4151  0.1480
 1080TIP3    H1 3185   5.758   4.419   2.304 -0.7409  0.8781  2.8478
 1080TIP3    H2 3186   5.888   4.368   2.245 -2.5860  0.1085 -0.7338
 1081TIP3   OH2 3187   3.163   3.013   0.130 -0.2001 -0.2511 -0.2044
 1081TIP3    H1 3188   3.084   2.963   0.109 -0.5251  0.6380 -1.2023
 1081TIP3    H2 3189   3.231   2.974   0.075  0.2292 -1.4456  1.1398
 1082TIP3   OH2 3190   5.513   4.864   0.525  0.1654 -0.0006  0.0385
 1082TIP3    H1 3191   5.572   4.789   0.517  2.1670  1.2942  2.0617
 1082TIP3    H2 3192   5.533   4.919   0.450 -0.9785 -1.2048 -1.1928
 1083TIP3   OH2 3193   1.479   1.021   5.908 -0.1611  0.5221  0.0098
 1083TIP3    H1 3194   1.486   0.996   6.000  0.4468 -0.2696 -0.2455
 1083TIP3    H2 3195   1.566   1.004   5.871 -0.3503  0.9824 -0.6801
 1084TIP3   OH2 3196   7.886   3.410   0.377  0.2656 -0.8604 -0.5849
 1084TIP3    H1 3197   7.903   3.504   0.370 -0.6038 -0.7272 -0.8988
 1084TIP3    H2 3198   7.818   3.402   0.443  1.2583 -1.3730  0.3913
 1085TIP3   OH2 3199   3.493   4.429   1.322  0.2658  0.0444  0.0811
 1085TIP3    H1 3200   3.454   4.346   1.297  0.2477 -1.0842  3.6382
 1085TIP3    H2 3201   3.420   4.481   1.355  0.6682  0.5462  0.1961
 1086TIP3   OH2 3202   5.879   7.910   6.664 -0.0084  0.3984  0.2769
 1086TIP3    H1 3203   5.837   7.879   6.585 -0.3978 -0.3723  0.7794
 1086TIP3    H2 3204   5.866   8.005   6.663 -2.1127  0.1280  0.6289
 1087TIP3   OH2 3205   4.879   3.748   1.991  0.4870  0.2545  0.3685
 1087TIP3    H1 3206   4.913   3.716   2.074  0.9499  1.6360  0.7304
 1087TIP3    H2 3207   4.880   3.672   1.933 -1.2526 -1.0963  2.0341
 1088TIP3   OH2 3208   6.437   4.608   0.872 -0.2950 -1.2512  0.2403
 1088TIP3    H1 3209   6.441   4.516   0.848 -2.0061 -1.4653  0.6686
 1088TIP3    H2 3210   6.346   4.633   0.853  0.2047  0.3890 -0.0548
 1089TIP3   OH2 3211   3.735   0.800   2.969 -0.1775  0.3769  0.3895
 1089TIP3    H1 3212   3.665   0.865   2.964 -0.7311 -0.2071  0.4730
 1089TIP3    H2 3213   3.807   0.845   3.013 -0.9805  0.5715  1.5306
 1090TIP3   OH2 3214   5.473   2.890   1.004 -0.4739  0.2533  0.0775
 1090TIP3    H1 3215   5.392   2.838   1.005 -0.6893  0.5837 -0.4171
 1090TIP3    H2 3216   5.443   2.981   1.011 -0.1130  0.3401  0.5140
 1091TIP3   OH2 3217   5.032   2.802   2.337  0.6569 -0.0677 -0.1159
 1091TIP3    H1 3218   4.953   2.853   2.357  0.4076 -0.3810 -0.2949
 1091TIP3    H2 3219   5.069   2.845   2.261  0.5839  0.0014 -0.1125
 1092TIP3   OH2 3220   2.829   1.790   1.001 -0.2562  0.1049  0.0598
 1092TIP3    H1 3221   2.740   1.799   0.966 -0.1903 -0.0550 -0.1489
 1092TIP3    H2 3222   2.822   1.820   1.092 -0.9442 -1.7829  0.6514
 1093TIP3   OH2 3223   5.389   2.638   1.369 -0.1436 -0.3835 -0.1235
 1093TIP3    H1 3224   5.457   2.664   1.431  2.4900 -0.5694 -2.8538
 1093TIP3    H2 3225   5.337   2.573   1.417 -0.2298  1.8760  3.0018
 1094TIP3   OH2 3226   5.717   5.276   0.735 -0.6176  0.9603 -0.2791
 1094TIP3    H1 3227   5.755   5.299   0.819 -2.5836  3.3173  0.0335
 1094TIP3    H2 3228   5.781   5.306   0.670  1.4679 -1.9758  0.3402
 1095TIP3   OH2 3229   4.174   5.441   2.412 -0.0283  0.5963 -1.0366
 1095TIP3    H1 3230   4.248   5.497   2.433 -1.0594  1.4416  0.4464
 1095TIP3    H2 3231   4.181   5.426   2.317  2.0592  0.5903 -0.9034
 1096TIP3   OH2 3232   4.803   4.675   1.897 -0.1692 -0.2788  0.2912
 1096TIP3    H1 3233   4.748   4.628   1.834 -1.5979  1.1982  0.4062
 1096TIP3    H2 3234   4.795   4.767   1.872 -0.7344  0.3228  2.5694
 1097TIP3   OH2 3235   7.108   5.531   5.099  0.0655 -0.3080  0.1734
 1097TIP3    H1 3236   7.155   5.578   5.168 -0.0565  1.3835 -0.8745
 1097TIP3    H2 3237   7.034   5.491   5.145  0.8375 -0.4912  1.2988
 1098TIP3   OH2 3238   4.913   6.827   5.768 -0.3140  0.0683 -0.0826
 1098TIP3    H1 3239   4.895   6.783   5.851  1.4206  0.1933  0.3950
 1098TIP3    H2 3240   4.921   6.756   5.704  0.7894 -0.2081  0.3516
 1099TIP3   OH2 3241   4.335   3.724   2.878 -0.1054  0.6784 -0.3568
 1099TIP3    H1 3242   4.375   3.810   2.862 -2.3798  1.3964 -2.5534
 1099TIP3    H2 3243   4.320   3.688   2.791  0.5482 -1.8643  0.5388
 1100TIP3   OH2 3244   2.813   3.751   1.529  0.6390  0.0545 -0.4824
 1100TIP3    H1 3245   2.906   3.741   1.509  0.7987 -0.1209  0.3558
 1100TIP3    H2 3246   2.809   3.823   1.591  0.2681 -0.2957 -0.0956
 1101TIP3   OH2 3247   4.321   2.455   1.044  0.5571  0.0819  0.0608
 1101TIP3    H1 3248   4.268   2.448   0.964  0.4913  0.5198  0.0661
 1101TIP3    H2 3249   4.328   2.549   1.060 -1.8044 -0.0546  2.1844
 1102TIP3   OH2 3250   6.766   7.761   4.208  0.0792 -0.0559 -0.0305
 1102TIP3    H1 3251   6.772   7.739   4.115 -0.9498  0.5367 -0.2545
 1102TIP3    H2 3252   6.848   7.807   4.228 -0.6948  1.9603 -1.2566
 1103TIP3   OH2 3253   7.741   2.841   1.371  0.1958 -0.4795  0.1540
 1103TIP3    H1 3254   7.808   2.853   1.304 -0.6726  0.1601 -0.6098
 1103TIP3    H2 3255   7.663   2.814   1.322 -0.1554 -1.0552  1.0186
 1104TIP3   OH2 3256   2.198   0.090   0.087  0.1670 -0.0818  0.1607
 1104TIP3    H1 3257   2.231   0.044   0.010  1.1867  1.5358 -0.3970
 1104TIP3    H2 3258   2.276   0.131   0.125 -1.1222  3.8080 -1.1825
 1105TIP3   OH2 3259   2.808   1.545   6.839 -0.4192 -0.5286 -0.7134
 1105TIP3    H1 3260   2.789   1.524   6.748 -0.4667 -0.7184 -0.6615
 1105TIP3    H2 3261   2.723   1.537   6.883 -0.5901  0.5663 -0.8362
 1106TIP3   OH2 3262   7.503   3.099   1.829 -0.8046 -0.0641 -0.3289
 1106TIP3    H1 3263   7.560   3.173   1.808 -0.3513 -0.0254  0.9953
 1106TIP3    H2 3264   7.455   3.082   1.747 -1.7818  2.4408 -0.3203
 1107TIP3   OH2 3265   6.519   5.907   6.144 -0.5496 -0.6540 -0.9327
 1107TIP3    H1 3266   6.449   5.898   6.079 -4.6998 -0.0778  3.1834
 1107TIP3    H2 3267   6.507   5.832   6.203  0.7527  0.7431  1.1944
 1108TIP3   OH2 3268   7.337   3.593   3.293 -0.5232  0.5752  0.7821
 1108TIP3    H1 3269   7.255   3.616   3.249 -0.6125  0.8930  1.1082
 1108TIP3    H2 3270   7.317   3.511   3.338 -0.3406  0.0917 -0.0121
 1109TIP3   OH2 3271   4.874   3.180   3.265  0.6200  0.3880  0.4007
 1109TIP3    H1 3272   4.922   3.217   3.190  2.2663  2.0813  2.2383
 1109TIP3    H2 3273   4.855   3.255   3.321 -2.2408 -0.6072  0.8137
 1110TIP3   OH2 3274   7.403   2.756   2.255 -0.2330 -0.8576  0.3149
 1110TIP3    H1 3275   7.352   2.820   2.206  0.1755 -0.3363  0.5694
 1110TIP3    H2 3276   7.338   2.712   2.310 -0.5320 -0.7436  0.0562
 1111TIP3   OH2 3277   5.420   0.800   0.305 -0.5641 -0.4673  0.4780
 1111TIP3    H1 3278   5.434   0.705   0.311  2.4536 -0.3399 -2.8707
 1111TIP3    H2 3279   5.475   0.836   0.374  2.5756 -0.9441 -1.6874
 1112TIP3   OH2 3280   3.502   3.446   2.911  0.0888 -0.4359 -0.4922
 1112TIP3    H1 3281   3.456   3.387   2.970  0.9486 -1.0477 -0.4273
 1112TIP3    H2 3282   3.554   3.389   2.854 -0.5529  0.1508 -1.7060
 1113TIP3   OH2 3283   5.588   5.010   0.823 -0.3420 -0.6632 -0.1792
 1113TIP3    H1 3284   5.645   4.943   0.784  2.3428  1.7114 -0.4638
 1113TIP3    H2 3285   5.609   5.090   0.775 -2.1832  0.7870  1.3819
 1114TIP3   OH2 3286   4.405   2.144   5.773 -0.6497 -1.0764  0.2860
 1114TIP3    H1 3287   4.318   2.109   5.794 -0.5125 -1.8256 -0.3447
 1114TIP3    H2 3288   4.461   2.066   5.766 -0.4559 -0.7867 -1.6567
 1115TIP3   OH2 3289   3.035   0.865   6.210 -0.2828  0.1893 -0.0290
 1115TIP3    H1 3290   3.120   0.900   6.237 -0.0471 -0.9306  0.7592
 1115TIP3    H2 3291   2.999   0.930   6.150  1.0996  0.7063 -0.3058
 1116TIP3   OH2 3292   6.554   5.130   0.175 -0.5607 -0.0799 -0.0617
 1116TIP3    H1 3293   6.487   5.161   0.115 -1.5687 -0.2765  0.9471
 1116TIP3    H2 3294   6.602   5.209   0.201 -0.0225 -0.0141 -1.2236
 1117TIP3   OH2 3295   6.620   4.778   1.368 -0.5435  0.3150 -0.4140
 1117TIP3    H1 3296   6.535   4.822   1.363 -0.8069 -0.2759 -1.2387
 1117TIP3    H2 3297   6.602   4.696   1.415 -0.2945  0.5093  0.0221
 1118TIP3   OH2 3298   5.841   4.415   0.274 -0.1112  0.1316 -0.0329
 1118TIP3    H1 3299   5.852   4.421   0.179 -1.4779  1.2820 -0.1432
 1118TIP3    H2 3300   5.824   4.322   0.291  0.4999 -0.1382 -0.8570
 1119TIP3   OH2 3301   3.903   1.560   0.125 -0.2150  0.1057 -0.3020
 1119TIP3    H1 3302   3.967   1.498   0.161 -0.8584  0.3134  1.2269
 1119TIP3    H2 3303   3.905   1.544   0.030 -0.3043 -2.1933  0.0484
 1120TIP3   OH2 3304   4.613   4.144   1.819 -0.8312  0.2544  0.1896
 1120TIP3    H1 3305   4.553   4.070   1.827 -0.4481 -0.2455 -1.5122
 1120TIP3    H2 3306   4.556   4.220   1.809 -1.2492  0.3464  2.8348
 1121TIP3   OH2 3307   6.065   4.008   1.563  0.4253 -0.1016  0.0616
 1121TIP3    H1 3308   6.156   4.033   1.581  0.4259 -0.5722  0.7372
 1121TIP3    H2 3309   6.067   3.970   1.475  0.8161  0.2422 -0.0792
 1122TIP3   OH2 3310   4.702   3.995   0.335  0.2100 -0.4214  0.3701
 1122TIP3    H1 3311   4.791   3.980   0.302  0.6434  1.4911  0.6290
 1122TIP3    H2 3312   4.712   4.003   0.430  0.1158  2.0571  0.2056
 1123TIP3   OH2 3313   4.872   5.436   3.657  0.0262 -0.4105  0.2408
 1123TIP3    H1 3314   4.873   5.504   3.723  0.4053 -0.5499  0.3796
 1123TIP3    H2 3315   4.929   5.469   3.587  0.4336 -0.7111  0.4335
 1124TIP3   OH2 3316   4.845   7.998   6.352  0.0667  0.3331 -0.2543
 1124TIP3    H1 3317   4.833   7.955   6.267 -0.5966 -0.0823  0.0485
 1124TIP3    H2 3318   4.937   8.026   6.351  0.0808  0.2943 -1.0878
 1125TIP3   OH2 3319   4.100   3.843   1.784  0.3061  0.1041 -0.7393
 1125TIP3    H1 3320   4.169   3.806   1.730  1.0700  1.1825 -0.5198
 1125TIP3    H2 3321   4.145   3.874   1.863 -0.4677  0.5306 -0.4538
 1126TIP3   OH2 3322   6.575   4.116   1.083 -0.3367 -0.1601  0.6520
 1126TIP3    H1 3323   6.577   4.076   1.170 -1.0110 -0.8832  0.3466
 1126TIP3    H2 3324   6.485   4.149   1.074  0.1889  1.3575  0.8658
 1127TIP3   OH2 3325   7.848   3.404   1.210  0.1603 -0.1918 -0.2079
 1127TIP3    H1 3326   7.828   3.380   1.300  1.6023 -2.0732 -0.3556
 1127TIP3    H2 3327   7.883   3.492   1.215 -1.1871  0.2936  0.8855
 1128TIP3   OH2 3328   3.482   0.331   1.289  0.0654 -0.1942 -0.0724
 1128TIP3    H1 3329   3.401   0.360   1.330 -1.1083 -2.2077 -0.8985
 1128TIP3    H2 3330   3.461   0.325   1.196  1.2983 -0.2757 -0.3513
 1129TIP3   OH2 3331   4.740   3.577   0.818  0.0377 -0.0581 -0.5995
 1129TIP3    H1 3332   4.801   3.631   0.767  2.7980  0.1131  2.6987
 1129TIP3    H2 3333   4.670   3.637   0.844  1.3574  1.1644  0.2090
 1130TIP3   OH2 3334   5.974   3.156   0.490  0.7257 -0.0802 -0.5510
 1130TIP3    H1 3335   5.964   3.224   0.557 -1.4347  0.0097 -0.9377
 1130TIP3    H2 3336   5.906   3.092   0.511  0.1984 -0.1914 -2.5063
 1131TIP3   OH2 3337   3.497   4.606   0.996 -0.4447 -0.0683 -0.0860
 1131TIP3    H1 3338   3.544   4.554   1.061 -2.2708  0.9695  2.1617
 1131TIP3    H2 3339   3.563   4.664   0.959  0.6005 -0.5245  1.0144
 1132TIP3   OH2 3340   5.496   7.327   4.932  0.5370  0.1836  0.4660
 1132TIP3    H1 3341   5.582   7.330   4.973  0.5736  1.8160  0.3266
 1132TIP3    H2 3342   5.435   7.349   5.003  0.2305 -0.9744  0.5679
 1133TIP3   OH2 3343   1.737   3.907   2.138 -0.1068  1.1694 -0.2023
 1133TIP3    H1 3344   1.749   3.923   2.044  0.3852  0.8036 -0.2030
 1133TIP3    H2 3345   1.824   3.882   2.169 -0.1670  1.7716  0.4494
 1134TIP3   OH2 3346   6.750   6.429   6.513 -0.1156 -0.7807 -0.4560
 1134TIP3    H1 3347   6.792   6.440   6.598 -0.5265 -0.1961 -0.3239
 1134TIP3    H2 3348   6.716   6.516   6.492 -1.2407 -1.2497 -0.5697
 1135TIP3   OH2 3349   4.683   4.135   2.972 -0.2296  0.8841  0.3793
 1135TIP3    H1 3350   4.707   4.123   3.064 -0.5529  0.8583  0.4634
 1135TIP3    H2 3351   4.765   4.151   2.927  0.0351 -0.0422  0.5255
 1136TIP3   OH2 3352   3.935   4.395   0.480 -0.3786 -0.2436 -0.3022
 1136TIP3    H1 3353   3.894   4.359   0.560 -1.0214 -0.5375 -0.7570
 1136TIP3    H2 3354   4.028   4.399   0.501 -0.5037 -0.5966  0.3665
 1137TIP3   OH2 3355   4.250   0.915   6.308 -0.3185  0.4980 -0.0574
 1137TIP3    H1 3356   4.342   0.939   6.294 -0.0313 -0.1966  0.6097
 1137TIP3    H2 3357   4.210   0.993   6.347 -0.3434  1.2818 -1.5944
 1138TIP3   OH2 3358   4.017   4.982   0.808  0.8115 -0.4651 -0.6759
 1138TIP3    H1 3359   4.050   5.017   0.726 -2.0392  2.1318 -0.8052
 1138TIP3    H2 3360   4.014   5.058   0.867 -1.8784 -1.2455  0.2598
 1139TIP3   OH2 3361   5.375   2.638   1.841 -0.2126  0.1130 -0.3051
 1139TIP3    H1 3362   5.385   2.726   1.805 -0.2357  0.4641  0.5400
 1139TIP3    H2 3363   5.282   2.618   1.829 -0.7669  1.2654  1.9063
 1140TIP3   OH2 3364   3.972   5.327   1.794  0.4866 -0.0747  0.7942
 1140TIP3    H1 3365   3.979   5.307   1.887  0.5899  1.3558  1.0923
 1140TIP3    H2 3366   3.888   5.372   1.785  0.1571 -0.8147  0.0875
 1141TIP3   OH2 3367   4.480   2.568   3.333 -0.5004 -0.2595  0.1140
 1141TIP3    H1 3368   4.551   2.628   3.358 -0.5076 -0.0408 -0.3816
 1141TIP3    H2 3369   4.469   2.582   3.239 -1.1378 -0.3618  0.1701
 1142TIP3   OH2 3370   7.161   2.625   0.732 -0.7547  0.2570 -0.5314
 1142TIP3    H1 3371   7.132   2.536   0.712  1.0888 -0.3727 -0.5902
 1142TIP3    H2 3372   7.173   2.666   0.646 -2.4811  0.8771 -0.4888
 1143TIP3   OH2 3373   2.423   6.188   2.592 -0.5932  0.3523  0.4103
 1143TIP3    H1 3374   2.441   6.239   2.513 -0.6239  0.5718  0.5458
 1143TIP3    H2 3375   2.507   6.148   2.614 -0.4674  0.6967  0.5547
 1144TIP3   OH2 3376   6.385   3.005   0.543  0.0904  0.2043 -0.6449
 1144TIP3    H1 3377   6.350   2.930   0.494 -1.0518  0.1610  0.2155
 1144TIP3    H2 3378   6.431   3.057   0.477 -0.4814 -0.4249 -1.5559
 1145TIP3   OH2 3379   3.881   2.002   1.187  0.2231  0.0961 -0.1701
 1145TIP3    H1 3380   3.952   2.032   1.130  0.0943 -2.3158 -1.6426
 1145TIP3    H2 3381   3.804   2.051   1.157  0.4588 -0.1172 -1.1411
 1146TIP3   OH2 3382   5.988   3.498   0.931  0.5408  0.4606  0.1934
 1146TIP3    H1 3383   6.064   3.478   0.986  0.9051  0.6249 -0.2513
 1146TIP3    H2 3384   5.917   3.447   0.970  1.3478 -1.3381 -0.6436
 1147TIP3   OH2 3385   6.376   4.628   3.469 -0.3176  0.2364 -0.2251
 1147TIP3    H1 3386   6.316   4.692   3.430 -0.1901  0.6322  0.2280
 1147TIP3    H2 3387   6.429   4.597   3.395 -2.4798 -1.6881 -1.0338
 1148TIP3   OH2 3388   6.870   3.688   2.728  0.1541 -0.3091 -0.5468
 1148TIP3    H1 3389   6.900   3.608   2.686 -0.2831 -0.6062 -0.2919
 1148TIP3    H2 3390   6.836   3.661   2.813 -2.5694 -0.2780 -1.5553
 1149TIP3   OH2 3391   2.826   2.425   1.808  0.0370  0.1147 -0.0697
 1149TIP3    H1 3392   2.855   2.508   1.770  0.1845  0.9006  1.7290
 1149TIP3    H2 3393   2.856   2.428   1.898 -1.2559 -1.2662  0.4219
 1150TIP3   OH2 3394   6.776   6.142   5.569  0.2791 -0.1861 -0.6213
 1150TIP3    H1 3395   6.685   6.164   5.550 -0.6176 -1.1800  2.1923
 1150TIP3    H2 3396   6.817   6.225   5.591 -0.0536  0.2076 -1.4666
 1151TIP3   OH2 3397   6.423   2.350   0.888 -0.1347 -0.1521  0.2669
 1151TIP3    H1 3398   6.473   2.425   0.858  0.8216 -1.5916 -1.8502
 1151TIP3    H2 3399   6.489   2.282   0.903 -1.3068 -1.7728 -1.6576
 1152TIP3   OH2 3400   0.619   0.269   4.688 -0.7659  0.4271 -0.3908
 1152TIP3    H1 3401   0.553   0.199   4.683  0.0356 -0.3177 -0.7164
 1152TIP3    H2 3402   0.624   0.304   4.599 -1.2141  0.9387 -0.2116
 1153TIP3   OH2 3403   7.337   5.303   0.760 -0.3881  0.1006 -0.2848
 1153TIP3    H1 3404   7.383   5.346   0.832 -0.1034  1.3024 -1.1631
 1153TIP3    H2 3405   7.341   5.210   0.781  3.6516  0.0212 -0.9974
 1154TIP3   OH2 3406   5.558   2.931   3.630  0.2034  0.0221  0.0887
 1154TIP3    H1 3407   5.492   2.863   3.622 -1.4282  1.6042 -0.1098
 1154TIP3    H2 3408   5.631   2.889   3.676 -1.6331 -1.2345  1.8930
 1155TIP3   OH2 3409   7.715   3.937   0.957 -0.4423 -0.4633 -0.4443
 1155TIP3    H1 3410   7.751   3.997   1.022 -0.5118  1.4607 -2.1281
 1155TIP3    H2 3411   7.791   3.903   0.911 -0.4995 -0.0846 -0.8263
 1156TIP3   OH2 3412   5.278   2.434   1.523  0.3515  0.3623  0.0965
 1156TIP3    H1 3413   5.200   2.445   1.577  0.4456  0.4328  0.2182
 1156TIP3    H2 3414   5.271   2.345   1.489  0.0055  0.5076 -0.2305
 1157TIP3   OH2 3415   4.076   2.421   6.401  0.1199  0.5241 -0.4462
 1157TIP3    H1 3416   4.086   2.474   6.322 -2.1138  4.5173  1.7651
 1157TIP3    H2 3417   3.984   2.396   6.401  0.4675 -0.7947  0.1099
 1158TIP3   OH2 3418   6.359   3.970   1.311  0.1840 -0.0209  0.5377
 1158TIP3    H1 3419   6.398   4.050   1.347 -1.2498  0.0954  1.8747
 1158TIP3    H2 3420   6.328   3.922   1.387  0.5695 -1.6279 -0.2953
 1159TIP3   OH2 3421   6.662   4.252   0.173  0.1307 -0.2571 -0.1048
 1159TIP3    H1 3422   6.597   4.182   0.187  0.6970 -0.5450  1.1766
 1159TIP3    H2 3423   6.612   4.333   0.184  0.0045 -0.4783  1.0249
 1160TIP3   OH2 3424   5.467   3.178   3.655  0.4122  0.4553 -0.3749
 1160TIP3    H1 3425   5.375   3.153   3.663  0.4487  0.0939 -1.0477
 1160TIP3    H2 3426   5.513   3.095   3.642  0.6374  0.7848 -1.7274
 1161TIP3   OH2 3427   7.273   4.697   1.147  0.6122 -0.5066  0.0987
 1161TIP3    H1 3428   7.193   4.678   1.097  0.9019  1.2214 -1.0757
 1161TIP3    H2 3429   7.244   4.755   1.217  0.6398 -0.8542  0.4000
 1162TIP3   OH2 3430   2.318   4.340   1.653 -0.6944  0.2397 -0.2974
 1162TIP3    H1 3431   2.375   4.412   1.679 -2.2349  0.6263  2.1710
 1162TIP3    H2 3432   2.355   4.308   1.571  1.7671  1.8854  0.1358
 1163TIP3   OH2 3433   7.155   4.196   0.667 -0.7041  0.1822 -0.2692
 1163TIP3    H1 3434   7.122   4.132   0.605 -1.0192  0.7372 -0.6774
 1163TIP3    H2 3435   7.145   4.280   0.623 -0.7708  0.5651  0.4600
 1164TIP3   OH2 3436   7.171   2.393   1.465  0.2540  0.3071  0.3268
 1164TIP3    H1 3437   7.199   2.392   1.557 -0.0572 -2.0330  0.4126
 1164TIP3    H2 3438   7.234   2.336   1.420  0.1130  1.0582 -0.8512
 1165TIP3   OH2 3439   5.970   2.799   1.972  0.0407 -0.2516  0.5553
 1165TIP3    H1 3440   5.963   2.787   2.067  0.6340 -2.3329  0.3712
 1165TIP3    H2 3441   5.932   2.885   1.956 -0.2668  0.0432  2.6576
 1166TIP3   OH2 3442   6.325   4.592   1.329  0.1508  0.1214  0.0124
 1166TIP3    H1 3443   6.315   4.518   1.389 -0.8893 -1.9298 -2.5967
 1166TIP3    H2 3444   6.419   4.594   1.310  0.2422 -0.3023  0.3989
 1167TIP3   OH2 3445   5.009   3.121   1.995  0.5674  0.2970  0.4368
 1167TIP3    H1 3446   4.923   3.149   1.963  0.2777 -0.9081  0.1086
 1167TIP3    H2 3447   5.072   3.161   1.935  0.1053 -0.7232 -0.7478
 1168TIP3   OH2 3448   2.105   7.045   6.521 -0.4395 -0.4321 -0.3080
 1168TIP3    H1 3449   2.074   6.988   6.592 -2.0978  1.2058  0.3209
 1168TIP3    H2 3450   2.077   7.132   6.547 -0.5068  0.2693 -2.6976
 1169TIP3   OH2 3451   8.033   0.687   5.903  0.7101  0.4790 -0.6779
 1169TIP3    H1 3452   8.019   0.608   5.849 -4.0353  0.6293  0.0680
 1169TIP3    H2 3453   8.032   0.655   5.993 -1.5957  1.3699 -0.3562
 1170TIP3   OH2 3454   5.727   3.060   0.944 -0.1112 -0.1305  0.3781
 1170TIP3    H1 3455   5.670   3.077   1.019 -2.7381  0.2607 -1.6274
 1170TIP3    H2 3456   5.689   2.982   0.903  2.5522 -1.6138  0.6327
 1171TIP3   OH2 3457   6.408   4.096   0.174 -0.2273 -0.1107  0.1987
 1171TIP3    H1 3458   6.391   4.073   0.265  0.0140  1.2215  0.5843
 1171TIP3    H2 3459   6.336   4.154   0.149  0.2821  0.3964 -0.1192
 1172TIP3   OH2 3460   6.788   3.087   0.704 -0.6719 -0.4607  0.3186
 1172TIP3    H1 3461   6.774   3.148   0.631  0.8799  1.4052  1.5488
 1172TIP3    H2 3462   6.792   3.001   0.662 -2.1830  0.3173 -1.5278
 1173TIP3   OH2 3463   7.409   6.688   5.233 -0.2355 -0.2648 -0.3153
 1173TIP3    H1 3464   7.445   6.755   5.174 -1.0245  1.6887  1.3669
 1173TIP3    H2 3465   7.353   6.635   5.177 -1.1529  1.7007 -1.3215
 1174TIP3   OH2 3466   1.659   6.226   0.076  0.4712 -0.1077 -0.0448
 1174TIP3    H1 3467   1.655   6.143   0.123 -0.7940  0.6882  1.2622
 1174TIP3    H2 3468   1.580   6.225   0.021  0.9232 -0.1562 -0.6982
 1175TIP3   OH2 3469   4.612   3.825   1.451 -0.1213  0.6249 -0.0335
 1175TIP3    H1 3470   4.582   3.782   1.531 -1.4969 -0.8715 -1.3183
 1175TIP3    H2 3471   4.673   3.892   1.481 -0.9612  0.3824  2.2950
 1176TIP3   OH2 3472   4.195   6.394   0.676 -0.2812 -0.1551 -0.6108
 1176TIP3    H1 3473   4.166   6.472   0.723 -0.4326 -1.3799  1.3962
 1176TIP3    H2 3474   4.170   6.321   0.733  2.9628 -1.5006 -0.7774
 1177TIP3   OH2 3475   4.520   4.719   1.646 -0.1397  0.1827 -0.4300
 1177TIP3    H1 3476   4.490   4.792   1.700  1.3775 -1.1560  2.3204
 1177TIP3    H2 3477   4.518   4.643   1.705 -0.5768 -1.7864 -2.9001
 1178TIP3   OH2 3478   6.192   3.440   1.089  0.1540  0.5384  0.2740
 1178TIP3    H1 3479   6.224   3.505   1.152  1.6762  0.5131 -0.4729
 1178TIP3    H2 3480   6.174   3.362   1.141  2.5328  0.1311  0.5218
 1179TIP3   OH2 3481   3.648   4.511   1.945  0.3802  0.4415 -0.3457
 1179TIP3    H1 3482   3.707   4.585   1.960  0.6743  0.5342 -1.8942
 1179TIP3    H2 3483   3.573   4.549   1.899 -0.5070  0.1662  0.8393
 1180TIP3   OH2 3484   6.236   5.333   1.408  0.1416 -0.7092 -0.5253
 1180TIP3    H1 3485   6.305   5.273   1.434  1.5001  1.4596  1.0361
 1180TIP3    H2 3486   6.177   5.336   1.484  0.1590  0.0446 -0.5431
 1181TIP3   OH2 3487   2.787   3.993   2.625 -0.0121  0.4103  0.4229
 1181TIP3    H1 3488   2.733   4.072   2.631  0.0270  0.3687  1.3606
 1181TIP3    H2 3489   2.741   3.928   2.678 -0.7944 -0.6421 -1.4914
 1182TIP3   OH2 3490   2.164   0.432   6.548 -0.2430 -0.4704  0.0975
 1182TIP3    H1 3491   2.242   0.460   6.596 -0.2570 -0.7197  0.2618
 1182TIP3    H2 3492   2.130   0.358   6.597  0.3482 -1.4105 -0.8865
 1183TIP3   OH2 3493   4.974   7.811   5.494 -0.3644  0.0818  0.0535
 1183TIP3    H1 3494   4.954   7.771   5.409 -0.5196 -1.2897  0.7305
 1183TIP3    H2 3495   4.935   7.898   5.489  1.6402  0.9245 -2.1847
 1184TIP3   OH2 3496   4.785   4.392   2.267 -0.1535 -0.2128  0.3005
 1184TIP3    H1 3497   4.767   4.437   2.184  0.4419  0.6550  0.6328
 1184TIP3    H2 3498   4.879   4.400   2.279  0.2702 -3.2076 -0.5512
 1185TIP3   OH2 3499   5.525   3.896   0.656  0.5105 -0.0277 -0.6386
 1185TIP3    H1 3500   5.553   3.809   0.685  1.8835  1.0403  1.3174
 1185TIP3    H2 3501   5.489   3.881   0.568  0.0955 -2.6732 -0.0697
 1186TIP3   OH2 3502   6.965   2.262   0.393 -0.1199  0.7505 -0.0241
 1186TIP3    H1 3503   6.981   2.306   0.310  2.4105  2.1835  1.1753
 1186TIP3    H2 3504   7.018   2.182   0.389  0.0407  0.8431  0.2277
 1187TIP3   OH2 3505   6.150   1.980   0.096  0.5715  0.3217  0.1387
 1187TIP3    H1 3506   6.180   2.066   0.068  1.9583  0.3482  1.6448
 1187TIP3    H2 3507   6.144   1.987   0.191 -2.0047 -0.4013  0.0767
 1188TIP3   OH2 3508   4.343   3.450   0.728  0.0318 -0.0654 -0.4606
 1188TIP3    H1 3509   4.348   3.546   0.720 -0.0114 -0.0036  0.1947
 1188TIP3    H2 3510   4.257   3.434   0.766  0.0869 -0.3534 -0.4616
 1189TIP3   OH2 3511   5.003   4.920   1.872 -0.1328  0.3471  0.2863
 1189TIP3    H1 3512   4.998   4.955   1.783 -0.4075 -0.8683 -0.1919
 1189TIP3    H2 3513   4.941   4.973   1.921  0.0929  1.0959 -0.2214
 1190TIP3   OH2 3514   5.222   0.910   1.672 -0.7016 -0.0608  0.3941
 1190TIP3    H1 3515   5.246   0.956   1.592 -2.5682 -0.5283 -0.4621
 1190TIP3    H2 3516   5.129   0.929   1.684 -0.7924 -1.1822  1.6549
 1191TIP3   OH2 3517   6.913   2.729   2.011  0.6925 -0.1328  0.4129
 1191TIP3    H1 3518   7.006   2.742   2.025  0.5455 -0.1639  1.4561
 1191TIP3    H2 3519   6.897   2.638   2.036 -0.0499  0.5820  2.7362
 1192TIP3   OH2 3520   6.229   6.188   0.603  0.5400  0.1231 -0.0085
 1192TIP3    H1 3521   6.162   6.152   0.661  0.7817  1.2187  0.9560
 1192TIP3    H2 3522   6.179   6.232   0.534  0.2607  0.4731  0.4144
 1193TIP3   OH2 3523   2.613   0.640   6.460  0.0068  0.3975 -0.0084
 1193TIP3    H1 3524   2.557   0.709   6.423  0.3212 -0.0530 -1.3623
 1193TIP3    H2 3525   2.687   0.635   6.400  0.1030 -0.9591  0.2232
 1194TIP3   OH2 3526   5.064   2.359   1.260  0.1285  0.1097 -0.2167
 1194TIP3    H1 3527   5.015   2.279   1.275  1.5020 -0.8973 -1.0159
 1194TIP3    H2 3528   5.021   2.400   1.185  0.2881 -0.5827 -0.6896
 1195TIP3   OH2 3529   5.060   2.661   1.008  0.9594 -0.3335 -0.2095
 1195TIP3    H1 3530   5.140   2.712   1.016  0.8136  0.2282 -1.9481
 1195TIP3    H2 3531   5.088   2.577   0.971  1.0236 -1.0071  1.3384
 1196TIP3   OH2 3532   6.417   3.187   0.312  0.2003  0.5457 -0.3213
 1196TIP3    H1 3533   6.467   3.224   0.239 -1.3820  1.1923 -1.1018
 1196TIP3    H2 3534   6.387   3.263   0.362 -3.0560  0.4255 -1.9224
 1197TIP3   OH2 3535   5.046   5.419   0.168  0.4341 -0.3616 -0.6468
 1197TIP3    H1 3536   4.970   5.453   0.213  0.2530  0.7055 -1.7284
 1197TIP3    H2 3537   5.013   5.342   0.121  0.5432 -1.2504  0.7030
 1198TIP3   OH2 3538   3.803   3.973   1.229 -0.2224 -0.5225  0.0542
 1198TIP3    H1 3539   3.812   4.063   1.261 -0.4689 -0.4632 -0.0424
 1198TIP3    H2 3540   3.722   3.973   1.179 -0.1448 -0.7634 -0.0728
 1199TIP3   OH2 3541   7.039   2.414   1.089 -0.4578 -0.2544 -0.4374
 1199TIP3    H1 3542   6.952   2.424   1.049 -1.1327 -0.1849  1.0328
 1199TIP3    H2 3543   7.030   2.454   1.175  0.4741 -2.0732  0.5104
 1200TIP3   OH2 3544   3.838   0.747   6.598  0.2493 -0.2196  0.3366
 1200TIP3    H1 3545   3.849   0.772   6.506 -2.8313 -1.5758 -0.4613
 1200TIP3    H2 3546   3.889   0.667   6.608  2.2741  1.0389  0.3940
 1201TIP3   OH2 3547   1.581   6.625   5.519  0.3533 -0.4904  0.1743
 1201TIP3    H1 3548   1.664   6.578   5.522  1.3327  1.1808  0.2280
 1201TIP3    H2 3549   1.592   6.698   5.580 -1.1282 -0.1971  0.1183
 1202TIP3   OH2 3550   0.829   6.361   6.810  0.2284  0.4645  0.0964
 1202TIP3    H1 3551   0.823   6.453   6.835 -1.0603  0.0775  1.2436
 1202TIP3    H2 3552   0.849   6.363   6.716 -1.5058  1.8919 -0.2553
 1203TIP3   OH2 3553   4.586   0.404   5.763 -0.1498  0.3107  0.2332
 1203TIP3    H1 3554   4.499   0.366   5.780  0.4695 -0.7864  1.0200
 1203TIP3    H2 3555   4.605   0.455   5.841  0.6224 -0.8173  0.8006
 1204TIP3   OH2 3556   3.228   6.709   6.289 -0.2640 -0.5489  0.1704
 1204TIP3    H1 3557   3.240   6.776   6.357  0.7990 -0.3478 -0.2147
 1204TIP3    H2 3558   3.183   6.638   6.334 -0.5826  0.0518  0.8122
 1205TIP3   OH2 3559   5.793   6.311   1.496 -0.3083  0.2506 -0.1223
 1205TIP3    H1 3560   5.783   6.403   1.470  0.4635  0.2730 -0.3570
 1205TIP3    H2 3561   5.737   6.301   1.573 -0.9966  0.7183 -0.5601
 1206TIP3   OH2 3562   4.136   0.584   5.206 -0.3756  0.1122  0.7230
 1206TIP3    H1 3563   4.143   0.641   5.283 -0.2112  0.0982  0.7201
 1206TIP3    H2 3564   4.164   0.498   5.238  0.4555  0.2767  0.4575
 1207TIP3   OH2 3565   5.836   3.732   0.464 -0.8072 -0.7406  0.2901
 1207TIP3    H1 3566   5.899   3.683   0.412 -1.7128 -0.7020 -0.8807
 1207TIP3    H2 3567   5.834   3.687   0.549  0.2501 -1.1652  0.0938
 1208TIP3   OH2 3568   6.753   3.754   0.546  0.1295  0.1799  0.3841
 1208TIP3    H1 3569   6.827   3.758   0.485 -0.6765  2.7216 -0.5178
 1208TIP3    H2 3570   6.764   3.831   0.602 -1.2346 -0.0160  0.9482
 1209TIP3   OH2 3571   1.637   7.743   6.294  0.1334  0.3119 -0.3927
 1209TIP3    H1 3572   1.724   7.732   6.332  0.6223 -1.2408 -1.8983
 1209TIP3    H2 3573   1.578   7.740   6.369  1.1503 -1.6275  0.3649
 1210TIP3   OH2 3574   0.313   3.228   0.455  0.0576 -0.2709  0.0258
 1210TIP3    H1 3575   0.324   3.230   0.550 -0.3274  1.6351  0.0509
 1210TIP3    H2 3576   0.302   3.320   0.431 -1.9720 -0.9130 -1.6176
 1211TIP3   OH2 3577   7.540   2.933   0.769  0.6331 -0.1713  0.0787
 1211TIP3    H1 3578   7.475   2.936   0.699  0.7094  2.4278  0.0798
 1211TIP3    H2 3579   7.498   2.879   0.837 -0.8933  0.2146 -0.5214
 1212TIP3   OH2 3580   3.425   7.730   5.094 -0.0416 -0.1624 -0.1580
 1212TIP3    H1 3581   3.337   7.751   5.127 -0.2758 -0.2151 -0.7356
 1212TIP3    H2 3582   3.422   7.755   5.002  0.0579 -1.6197 -0.5742
 1213TIP3   OH2 3583   7.976   6.405   2.459  0.2557  0.3719  0.3526
 1213TIP3    H1 3584   7.924   6.350   2.518 -0.0761  0.8113  0.4691
 1213TIP3    H2 3585   8.061   6.362   2.455 -0.6893 -1.4133 -1.3053
 1214TIP3   OH2 3586   4.464   4.152   0.967 -0.5595 -0.4712  0.0823
 1214TIP3    H1 3587   4.464   4.161   1.062 -1.9482 -0.7965  0.1290
 1214TIP3    H2 3588   4.458   4.242   0.935 -1.3337 -0.4220  0.3372
 1215TIP3   OH2 3589   8.031   4.748   1.308  0.4032  0.0455  0.1916
 1215TIP3    H1 3590   8.035   4.807   1.233 -1.3726  0.4286  0.3725
 1215TIP3    H2 3591   7.953   4.694   1.292  0.4793 -0.4287  1.3500
 1216TIP3   OH2 3592   7.179   3.555   0.793  0.0909  0.4360 -0.4549
 1216TIP3    H1 3593   7.168   3.644   0.825  0.6160  0.3929 -0.1419
 1216TIP3    H2 3594   7.178   3.564   0.697  1.4927  0.9683 -0.4343
 1217TIP3   OH2 3595   1.871   6.065   6.538 -0.3815 -0.3779 -0.2683
 1217TIP3    H1 3596   1.934   5.995   6.523 -2.0198 -1.4954 -2.0781
 1217TIP3    H2 3597   1.898   6.135   6.479 -1.3642 -1.2264 -1.7530
 1218TIP3   OH2 3598   1.710   7.831   3.963  0.4821 -0.2463 -0.2334
 1218TIP3    H1 3599   1.632   7.845   4.017 -0.0353  1.3728 -1.3673
 1218TIP3    H2 3600   1.775   7.796   4.024 -1.3143 -2.2577  0.5846
 1219TIP3   OH2 3601   5.845   5.013   2.758  0.5567 -0.6307 -0.1054
 1219TIP3    H1 3602   5.807   4.937   2.802 -0.3833  0.0384  0.2659
 1219TIP3    H2 3603   5.833   5.085   2.820  2.4825 -0.4115  0.0199
 1220TIP3   OH2 3604   6.678   3.103   0.992  0.5933  0.0988 -0.4487
 1220TIP3    H1 3605   6.709   3.194   0.985  1.7173 -0.3490 -1.2929
 1220TIP3    H2 3606   6.757   3.050   0.984 -0.0668 -0.9675  0.0249
 1221TIP3   OH2 3607   0.961   2.889   2.848  0.5372 -0.5322  0.4494
 1221TIP3    H1 3608   1.034   2.852   2.898  2.1388  1.0993 -0.5860
 1221TIP3    H2 3609   0.963   2.983   2.870 -1.8435 -0.6048  1.1095
 1222TIP3   OH2 3610   0.018   4.788   0.569 -0.6856 -0.0997  0.2151
 1222TIP3    H1 3611   0.063   4.834   0.639 -1.3645 -0.8184  1.1475
 1222TIP3    H2 3612   0.088   4.757   0.511 -0.1130  0.4245  0.6244
 1223TIP3   OH2 3613   0.367   1.832   2.410 -0.1958 -0.3854 -0.6056
 1223TIP3    H1 3614   0.372   1.736   2.414 -2.2661 -0.5266 -0.5765
 1223TIP3    H2 3615   0.438   1.857   2.352 -0.1183 -2.0177 -1.2536
 1224TIP3   OH2 3616   6.803   1.028   0.741  0.0096 -0.7354 -0.0765
 1224TIP3    H1 3617   6.885   1.070   0.765  0.4464 -0.7936 -1.4450
 1224TIP3    H2 3618   6.819   0.935   0.753 -0.5898 -0.6207  1.8291
 1225TIP3   OH2 3619   0.574   4.495   1.447 -0.1311 -0.2772 -0.3402
 1225TIP3    H1 3620   0.571   4.401   1.463 -1.2491 -0.4765 -1.6495
 1225TIP3    H2 3621   0.508   4.510   1.379 -1.0547  1.6773  0.9372
 1226TIP3   OH2 3622   6.650   1.772   4.347 -0.1942  0.2850  0.0077
 1226TIP3    H1 3623   6.569   1.728   4.322 -0.1719  0.0392  0.3717
 1226TIP3    H2 3624   6.647   1.856   4.300 -1.4566  1.0102  1.3404
 1227TIP3   OH2 3625   7.042   2.134   1.108 -0.0959  0.3437 -0.2642
 1227TIP3    H1 3626   6.951   2.107   1.120  0.3077 -0.7297  0.3848
 1227TIP3    H2 3627   7.041   2.228   1.125 -1.3078  0.5829 -1.4972
 1228TIP3   OH2 3628   6.941   1.482   0.727  0.0552  0.0955 -0.0668
 1228TIP3    H1 3629   6.847   1.479   0.708  0.0742  0.2983 -0.1939
 1228TIP3    H2 3630   6.981   1.499   0.642  0.2889 -1.2288 -0.2423
 1229TIP3   OH2 3631   7.632   5.214   0.462 -0.1830  0.1284  0.3762
 1229TIP3    H1 3632   7.555   5.263   0.491  0.7349  1.0493  1.3054
 1229TIP3    H2 3633   7.686   5.278   0.416  0.9390 -0.0424  1.4307
 1230TIP3   OH2 3634   1.301   2.949   0.552  0.3619 -0.5129  0.4730
 1230TIP3    H1 3635   1.275   2.999   0.629  1.0289  1.2618 -0.4276
 1230TIP3    H2 3636   1.224   2.896   0.531 -1.4349  2.2035 -0.1734
 1231TIP3   OH2 3637   7.438   3.457   0.897 -0.1315 -0.3769  0.0861
 1231TIP3    H1 3638   7.343   3.466   0.907  0.1003  2.3333  0.0685
 1231TIP3    H2 3639   7.472   3.456   0.986 -0.1159 -0.6961  0.0776
 1232TIP3   OH2 3640   0.581   4.248   1.582 -0.2453 -0.1089  0.1260
 1232TIP3    H1 3641   0.491   4.248   1.613 -0.0384  1.9609  0.8328
 1232TIP3    H2 3642   0.634   4.240   1.661  0.1971 -1.0345 -0.2592
 1233TIP3   OH2 3643   1.528   3.431   1.368 -0.0422 -0.1420  0.0607
 1233TIP3    H1 3644   1.503   3.522   1.387 -0.2015 -0.1886  0.0775
 1233TIP3    H2 3645   1.517   3.423   1.273 -0.7246 -0.3508  0.1542
 1234TIP3   OH2 3646   6.386   6.206   1.414 -0.2255  0.2325  0.3657
 1234TIP3    H1 3647   6.305   6.160   1.393  0.0753  0.2273 -0.8141
 1234TIP3    H2 3648   6.440   6.141   1.459 -0.1271 -0.3395 -0.5553
 1235TIP3   OH2 3649   6.493   2.068   2.394 -0.4413  0.6783 -0.3865
 1235TIP3    H1 3650   6.468   2.036   2.480 -2.6509 -0.7845 -1.5132
 1235TIP3    H2 3651   6.573   2.117   2.409  2.0206 -3.6932  1.7713
 1236TIP3   OH2 3652   8.281   2.409   2.067  0.2965  0.1171  0.3977
 1236TIP3    H1 3653   8.321   2.431   1.983  1.2107 -1.5430  0.3697
 1236TIP3    H2 3654   8.338   2.451   2.132 -1.2687  2.7055  0.1963
 1237TIP3   OH2 3655   0.265   4.320   3.235 -0.3774 -0.1527 -0.4848
 1237TIP3    H1 3656   0.189   4.342   3.182 -2.0852 -2.6346  0.8201
 1237TIP3    H2 3657   0.230   4.265   3.305  2.9763 -3.4211 -1.2436
 1238TIP3   OH2 3658   8.228   2.954   1.931 -0.2985  0.2009 -0.2163
 1238TIP3    H1 3659   8.159   2.925   1.991 -0.5342  0.9921 -0.0976
 1238TIP3    H2 3660   8.271   2.874   1.903 -0.7692 -0.2398  0.3184
 1239TIP3   OH2 3661   7.322   6.156   2.200  0.0533 -0.0863  0.7390
 1239TIP3    H1 3662   7.382   6.081   2.208  1.9529  1.2344 -0.6368
 1239TIP3    H2 3663   7.380   6.232   2.192 -1.7358  1.0738 -2.0422
 1240TIP3   OH2 3664   1.246   5.631   1.311 -0.3944 -0.0629  0.1589
 1240TIP3    H1 3665   1.306   5.556   1.309  1.0196  1.0896 -2.4352
 1240TIP3    H2 3666   1.173   5.605   1.256 -0.3972  0.0729  0.0990
 1241TIP3   OH2 3667   7.488   4.105   4.326  0.7327 -0.0053 -0.1017
 1241TIP3    H1 3668   7.487   4.029   4.268 -3.0335 -1.2297  1.3762
 1241TIP3    H2 3669   7.527   4.073   4.408 -2.5109 -0.9988  1.1557
 1242TIP3   OH2 3670   8.423   4.006   2.971  0.3496  0.0956  0.3810
 1242TIP3    H1 3671   8.449   4.054   2.892  2.0027  0.8118  1.3409
 1242TIP3    H2 3672   8.350   4.056   3.007 -0.5309 -0.3333 -0.7676
 1243TIP3   OH2 3673   0.558   2.614   3.469  0.4868 -0.4597 -0.2099
 1243TIP3    H1 3674   0.654   2.619   3.475  0.4357  1.0710 -0.5911
 1243TIP3    H2 3675   0.540   2.619   3.376 -0.0509  1.2874 -0.0350
 1244TIP3   OH2 3676   8.304   4.780   1.819 -0.4128  0.0371 -1.1550
 1244TIP3    H1 3677   8.350   4.706   1.860  0.1107  1.0846  0.1867
 1244TIP3    H2 3678   8.297   4.755   1.727  1.0386 -1.0579 -0.9948
 1245TIP3   OH2 3679   1.313   2.866   1.946  0.5009 -0.0122 -0.4177
 1245TIP3    H1 3680   1.265   2.784   1.937 -1.3412  0.9222  0.3975
 1245TIP3    H2 3681   1.405   2.841   1.948  0.0968 -1.8300 -2.5929
 1246TIP3   OH2 3682   0.413   3.848   3.934  0.3194 -0.2350 -0.2157
 1246TIP3    H1 3683   0.497   3.876   3.898  0.5811  0.0579  0.6083
 1246TIP3    H2 3684   0.377   3.788   3.868  2.2184 -2.1349  0.4063
 1247TIP3   OH2 3685   8.236   4.157   3.121  0.0513 -0.4106  0.2691
 1247TIP3    H1 3686   8.238   4.231   3.181 -1.6016  0.8152 -1.1428
 1247TIP3    H2 3687   8.143   4.144   3.101  0.3871 -2.3006 -0.2069
 1248TIP3   OH2 3688   7.929   4.386   1.225  0.0109  0.9104  0.3385
 1248TIP3    H1 3689   7.876   4.464   1.243 -0.7820  0.2372  0.9415
 1248TIP3    H2 3690   7.999   4.389   1.291 -0.5517  0.6233  0.9542
 1249TIP3   OH2 3691   6.235   2.924   0.732  0.7387 -0.0830 -0.1070
 1249TIP3    H1 3692   6.299   2.965   0.674  1.9307 -0.2132  1.0827
 1249TIP3    H2 3693   6.183   2.997   0.766  0.2178  0.0202 -1.1229
 1250TIP3   OH2 3694   0.103   5.693   1.225 -0.0620  0.0553  0.0949
 1250TIP3    H1 3695   0.069   5.671   1.138 -0.9008 -3.4225  1.2132
 1250TIP3    H2 3696   0.197   5.676   1.220 -0.0664  0.1248 -0.2146
 1251TIP3   OH2 3697   7.106   4.593   1.471  0.0507 -0.0020  0.0334
 1251TIP3    H1 3698   7.086   4.581   1.378 -0.8100 -0.8798  0.3273
 1251TIP3    H2 3699   7.149   4.679   1.475  1.2687 -0.5122 -1.3532
 1252TIP3   OH2 3700   0.481   2.397   2.613 -0.5693 -0.2317  0.1003
 1252TIP3    H1 3701   0.484   2.365   2.522 -3.4194 -2.6401  0.7539
 1252TIP3    H2 3702   0.509   2.322   2.665  1.1686  1.1773  1.2434
 1253TIP3   OH2 3703   0.474   3.017   3.543  0.3401  0.0877 -0.2063
 1253TIP3    H1 3704   0.425   2.963   3.481 -1.5757  1.3244  0.2008
 1253TIP3    H2 3705   0.479   2.963   3.622  0.3813 -0.3676 -0.5118
 1254TIP3   OH2 3706   0.811   6.685   1.089 -0.3244  0.0019 -0.2019
 1254TIP3    H1 3707   0.813   6.754   1.156 -1.1788 -1.7360  1.6529
 1254TIP3    H2 3708   0.722   6.686   1.056 -0.1348  0.2821 -0.7078
 1255TIP3   OH2 3709   0.882   3.924   1.601 -0.2875  0.0749 -0.0977
 1255TIP3    H1 3710   0.897   3.832   1.580  1.4361  0.1149  0.8240
 1255TIP3    H2 3711   0.909   3.933   1.692 -1.0210  1.3707  0.0136
 1256TIP3   OH2 3712   1.965   0.254   1.575  0.3352 -0.0260 -0.1928
 1256TIP3    H1 3713   1.992   0.298   1.655 -0.9723 -1.8648  1.2827
 1256TIP3    H2 3714   2.020   0.176   1.570  1.2137  0.6599 -1.7188
 1257TIP3   OH2 3715   0.588   2.208   2.777 -0.7482  1.2663  0.0756
 1257TIP3    H1 3716   0.526   2.231   2.846 -2.1037  1.4089 -1.1953
 1257TIP3    H2 3717   0.567   2.118   2.755  1.6856  0.1817  1.9554
 1258TIP3   OH2 3718   6.563   5.581   2.113  0.4957 -0.4017 -0.0802
 1258TIP3    H1 3719   6.575   5.669   2.147 -1.1144  0.3515 -1.4070
 1258TIP3    H2 3720   6.544   5.593   2.021 -2.4867 -1.9591  0.2896
 1259TIP3   OH2 3721   8.393   5.943   1.894  0.5656  0.1457  0.0908
 1259TIP3    H1 3722   8.321   6.005   1.882  1.5548  1.0062 -1.6624
 1259TIP3    H2 3723   8.470   5.999   1.908  1.8199 -0.5694 -3.4612
 1260TIP3   OH2 3724   0.082   1.200   2.118 -0.2358 -0.1343  0.4411
 1260TIP3    H1 3725   0.039   1.250   2.050 -0.9147 -1.0536  0.1858
 1260TIP3    H2 3726   0.099   1.115   2.078  0.3763 -0.3093  1.0580
 1261TIP3   OH2 3727   8.462   4.529   3.313 -0.0806 -0.1720  0.4254
 1261TIP3    H1 3728   8.519   4.539   3.237  0.2739 -0.9295  0.5797
 1261TIP3    H2 3729   8.386   4.481   3.279 -0.1841 -0.0058  0.4239
 1262TIP3   OH2 3730   0.140   3.893   2.411 -0.2280 -0.0535 -0.1488
 1262TIP3    H1 3731   0.210   3.956   2.395  1.9028 -1.1784  3.9168
 1262TIP3    H2 3732   0.184   3.808   2.411 -1.8653 -0.9320  0.9588
 1263TIP3   OH2 3733   0.405   4.884   1.663 -0.4633 -0.1715  0.4577
 1263TIP3    H1 3734   0.490   4.885   1.620 -1.0815  1.3536 -0.7717
 1263TIP3    H2 3735   0.355   4.953   1.620 -1.9253 -0.2335  1.9921
 1264TIP3   OH2 3736   0.708   1.490   3.701 -0.1665 -0.5482 -0.5367
 1264TIP3    H1 3737   0.708   1.489   3.605  0.0805  1.0643 -0.5657
 1264TIP3    H2 3738   0.641   1.554   3.724  2.2279  1.7041  0.3165
 1265TIP3   OH2 3739   8.351   5.169   2.717  0.0816  0.5900  0.0677
 1265TIP3    H1 3740   8.422   5.217   2.758  0.6116 -0.8120  0.8361
 1265TIP3    H2 3741   8.271   5.204   2.757  0.4637  0.7868  0.6593
 1266TIP3   OH2 3742   7.622   3.812   1.886 -0.7709 -0.4694 -0.2545
 1266TIP3    H1 3743   7.547   3.805   1.945 -0.1914 -2.3478  0.2782
 1266TIP3    H2 3744   7.698   3.792   1.941  0.1357  1.3362 -0.8082
 1267TIP3   OH2 3745   6.921   4.985   2.040 -0.1054  0.1256  0.0612
 1267TIP3    H1 3746   6.971   5.017   2.115 -0.6017  2.0363 -0.4080
 1267TIP3    H2 3747   6.960   4.900   2.020  0.7542  0.0839  1.7874
 1268TIP3   OH2 3748   0.982   5.816   1.803 -0.6331  0.2934 -0.8622
 1268TIP3    H1 3749   1.075   5.825   1.783  0.0910 -1.0621  1.7706
 1268TIP3    H2 3750   0.956   5.902   1.836  0.3342 -0.0736  0.8966
 1269TIP3   OH2 3751   7.958   0.166   6.161  0.8035  0.2168 -0.2497
 1269TIP3    H1 3752   7.940   0.107   6.234  0.0367  1.5751  0.6697
 1269TIP3    H2 3753   7.924   0.251   6.189  0.2157  0.6918 -2.3012
 1270TIP3   OH2 3754   1.217   6.058   2.246 -0.5751 -0.2591 -0.0474
 1270TIP3    H1 3755   1.303   6.037   2.281 -0.1514  1.9173  0.2918
 1270TIP3    H2 3756   1.230   6.063   2.151 -0.3041  0.0883  0.0045
 1271TIP3   OH2 3757   0.755   4.892   2.416  0.1663 -0.2784 -0.3565
 1271TIP3    H1 3758   0.776   4.803   2.390  0.9232 -0.0626 -0.4772
 1271TIP3    H2 3759   0.822   4.946   2.374 -0.4425  0.3715 -0.4945
 1272TIP3   OH2 3760   0.474   5.867   4.688 -0.5354  0.7359 -0.6227
 1272TIP3    H1 3761   0.531   5.807   4.640 -2.4683  0.1195 -2.2017
 1272TIP3    H2 3762   0.386   5.848   4.655 -1.7436  1.2559  2.2004
 1273TIP3   OH2 3763   0.281   2.845   1.388  0.1761 -0.1613  0.0284
 1273TIP3    H1 3764   0.352   2.908   1.378 -0.0027  0.0519  0.0894
 1273TIP3    H2 3765   0.290   2.786   1.313 -1.0015  1.2822 -1.2920
 1274TIP3   OH2 3766   0.237   4.759   2.787  0.0869  0.1833  0.0219
 1274TIP3    H1 3767   0.192   4.704   2.723 -0.0379 -0.7306  0.8936
 1274TIP3    H2 3768   0.168   4.815   2.823 -0.0314 -0.0267  0.1204
 1275TIP3   OH2 3769   2.402   3.978   2.496  0.4475  0.2362  0.1807
 1275TIP3    H1 3770   2.328   3.921   2.519  0.7288 -0.7562 -1.3215
 1275TIP3    H2 3771   2.391   3.993   2.402 -0.8656  4.4519  0.9146
 1276TIP3   OH2 3772   0.725   4.306   3.406  0.1271  0.1754 -0.3572
 1276TIP3    H1 3773   0.788   4.294   3.477 -0.2766 -2.5004 -0.3920
 1276TIP3    H2 3774   0.735   4.227   3.352 -2.0871  0.4990 -1.2730
 1277TIP3   OH2 3775   0.037   6.339   2.085 -0.4657  0.6117 -0.3093
 1277TIP3    H1 3776   0.043   6.256   2.039 -0.8045 -0.0090  0.7424
 1277TIP3    H2 3777  -0.056   6.363   2.080 -0.8213 -0.3050  1.4765
 1278TIP3   OH2 3778   2.484   5.624   0.525 -0.6955 -0.1479  0.0526
 1278TIP3    H1 3779   2.531   5.682   0.584  1.8216 -1.4803 -0.5958
 1278TIP3    H2 3780   2.501   5.536   0.558  2.0850 -1.0389 -3.4737
 1279TIP3   OH2 3781   0.675   3.332   0.036 -0.2714 -0.1118  0.7999
 1279TIP3    H1 3782   0.589   3.373   0.046 -0.3592  0.1185 -0.7787
 1279TIP3    H2 3783   0.664   3.269  -0.034  1.6138  2.1910 -1.6751
 1280TIP3   OH2 3784   2.986   0.038   0.037 -0.1315  0.0140 -0.0318
 1280TIP3    H1 3785   3.038   0.117   0.024  1.4095 -1.0309 -0.4135
 1280TIP3    H2 3786   2.999  -0.013  -0.043 -0.1866 -1.1177  0.6649
 1281TIP3   OH2 3787   3.273   5.037   0.634  0.2610 -0.1979  0.2005
 1281TIP3    H1 3788   3.210   5.108   0.647  0.6520  0.5578 -1.7515
 1281TIP3    H2 3789   3.219   4.958   0.630 -0.3231  0.1561  0.9590
 1282TIP3   OH2 3790   1.184   5.301   0.804  0.0345  0.0496 -0.1453
 1282TIP3    H1 3791   1.172   5.379   0.858  0.3464  0.0645 -0.0929
 1282TIP3    H2 3792   1.162   5.228   0.862 -0.5071  0.1145 -0.2739
 1283TIP3   OH2 3793   0.367   2.455   4.873  0.0045  0.2746 -0.0572
 1283TIP3    H1 3794   0.457   2.448   4.842  0.2427  3.0488 -0.0601
 1283TIP3    H2 3795   0.375   2.481   4.964 -0.7807  0.3633 -0.0118
 1284TIP3   OH2 3796   2.745   4.459   1.016  0.4569  0.3714  0.0681
 1284TIP3    H1 3797   2.834   4.492   1.025  0.9578 -1.1721  0.9450
 1284TIP3    H2 3798   2.730   4.408   1.095 -1.3829  1.0012  0.1429
 1285TIP3   OH2 3799   2.198   5.699   0.719 -0.6406 -0.6318  0.6091
 1285TIP3    H1 3800   2.271   5.643   0.692  1.3974  1.8962  0.6928
 1285TIP3    H2 3801   2.214   5.718   0.811  1.2703  3.7172 -0.4935
 1286TIP3   OH2 3802   3.088   7.919   6.775 -0.1974  0.2437 -0.0556
 1286TIP3    H1 3803   3.169   7.870   6.791 -0.9436 -0.6630  1.0119
 1286TIP3    H2 3804   3.077   7.917   6.680 -0.3814 -1.9792 -0.0306
 1287TIP3   OH2 3805   2.442   4.419   1.014  0.0950 -0.4374 -0.5210
 1287TIP3    H1 3806   2.522   4.452   1.054  0.4751 -1.2451 -0.6134
 1287TIP3    H2 3807   2.402   4.496   0.973  0.6482  0.0281 -0.1922
 1288TIP3   OH2 3808   7.701   6.057   0.083  0.4261  0.1239 -0.1812
 1288TIP3    H1 3809   7.676   6.123   0.018  0.5061  1.6411  1.3081
 1288TIP3    H2 3810   7.767   6.004   0.039 -0.9862 -0.1301 -2.0503
 1289TIP3   OH2 3811   1.152   5.669   0.068  0.3622 -0.1704 -0.3464
 1289TIP3    H1 3812   1.209   5.724   0.013  0.4478  0.1387  0.0495
 1289TIP3    H2 3813   1.169   5.580   0.039 -1.3054  0.1545 -2.4466
 1290TIP3   OH2 3814   0.311   5.079   0.088  0.3802 -0.0288  0.5077
 1290TIP3    H1 3815   0.366   5.106   0.014 -0.2840  1.4948  0.5486
 1290TIP3    H2 3816   0.229   5.053   0.048 -0.3787  1.8822  0.7741
 1291TIP3   OH2 3817   7.538   4.433   1.117  0.5870 -0.0773  0.2314
 1291TIP3    H1 3818   7.628   4.442   1.086  0.3286 -0.1712 -0.5463
 1291TIP3    H2 3819   7.484   4.450   1.040 -0.0653  0.0677  0.7161
 1292TIP3   OH2 3820   2.725   4.215   0.528  0.0415 -0.0867 -0.1561
 1292TIP3    H1 3821   2.742   4.307   0.548  2.7866 -0.5249 -0.2958
 1292TIP3    H2 3822   2.718   4.213   0.432  2.3181 -0.3236 -0.3609
 1293TIP3   OH2 3823   2.185   4.039   1.400 -0.0799 -0.2356 -0.3231
 1293TIP3    H1 3824   2.145   4.098   1.336  1.0183 -0.2728 -1.0513
 1293TIP3    H2 3825   2.200   3.958   1.352 -1.8062 -1.2178  0.7384
 1294TIP3   OH2 3826   0.979   4.852   0.305  0.2802 -0.2293 -0.3126
 1294TIP3    H1 3827   1.003   4.768   0.345  0.6431 -1.2728 -2.6427
 1294TIP3    H2 3828   0.891   4.869   0.338 -0.8936 -2.8975 -1.8666
 1295TIP3   OH2 3829   5.941   7.119   6.440  0.3398 -0.2771  0.1968
 1295TIP3    H1 3830   5.956   7.071   6.359 -0.9870 -2.5637  1.2551
 1295TIP3    H2 3831   5.952   7.054   6.509 -2.5289  0.6312  1.6016
 1296TIP3   OH2 3832   7.367   0.212   4.749 -0.5422  0.1357  0.4767
 1296TIP3    H1 3833   7.397   0.278   4.687  0.0090 -0.0017  0.6010
 1296TIP3    H2 3834   7.357   0.133   4.697  2.4292 -0.6727  1.0383
 1297TIP3   OH2 3835   1.093   3.444   1.554 -0.6222  0.2265 -0.3849
 1297TIP3    H1 3836   1.078   3.401   1.470  1.1451 -0.7373 -0.2332
 1297TIP3    H2 3837   1.117   3.372   1.613 -1.3983  0.9498  0.8320
 1298TIP3   OH2 3838   7.874   1.214   6.769  0.5306  0.3924 -0.5483
 1298TIP3    H1 3839   7.880   1.243   6.860  0.7328 -0.3583 -0.3150
 1298TIP3    H2 3840   7.859   1.294   6.719 -0.0644  0.7584  0.1933
 1299TIP3   OH2 3841   1.435   4.701   1.399  0.6153  0.4947  0.5543
 1299TIP3    H1 3842   1.378   4.746   1.461 -2.1692 -1.2386 -0.6383
 1299TIP3    H2 3843   1.460   4.620   1.444  1.1457  0.6618  0.5738
 1300TIP3   OH2 3844   2.863   5.827   1.675 -0.1117  0.1899  0.1697
 1300TIP3    H1 3845   2.923   5.867   1.612 -2.7411  0.0872 -2.4982
 1300TIP3    H2 3846   2.859   5.735   1.649  0.4419 -0.3308  1.8723
 1301TIP3   OH2 3847   1.806   3.850   1.174 -0.1082 -0.1157 -0.1710
 1301TIP3    H1 3848   1.815   3.911   1.101 -0.6905  0.3869  0.1738
 1301TIP3    H2 3849   1.767   3.902   1.244  1.2375 -0.3845  0.7858
 1302TIP3   OH2 3850   8.310   2.439   5.073  0.5288 -0.0352  0.4120
 1302TIP3    H1 3851   8.309   2.531   5.100 -1.1370 -0.8647  3.4198
 1302TIP3    H2 3852   8.394   2.406   5.105  1.2063  0.4376 -0.8264
 1303TIP3   OH2 3853   2.829   5.119   0.821  0.2870 -0.2823 -0.0511
 1303TIP3    H1 3854   2.735   5.132   0.824  0.3389 -0.1689  1.4644
 1303TIP3    H2 3855   2.862   5.190   0.767 -0.1822  1.6237  2.0874
 1304TIP3   OH2 3856   2.438   6.937   1.907 -0.2976  0.0584 -0.2632
 1304TIP3    H1 3857   2.393   6.853   1.914 -1.3793  0.6553 -0.0079
 1304TIP3    H2 3858   2.494   6.927   1.830 -1.6271 -0.3440 -1.1995
 1305TIP3   OH2 3859   0.845   6.516   0.561 -0.4751  0.0337  0.0557
 1305TIP3    H1 3860   0.854   6.561   0.645 -0.3322 -0.2938  0.2164
 1305TIP3    H2 3861   0.751   6.522   0.540 -0.8437 -1.5866  1.1885
 1306TIP3   OH2 3862   6.508   3.673   6.786 -0.1680  0.3206 -0.3479
 1306TIP3    H1 3863   6.473   3.746   6.837 -2.4102 -0.2622 -1.0024
 1306TIP3    H2 3864   6.572   3.632   6.844 -1.2002  0.8993  1.2303
 1307TIP3   OH2 3865   2.687   4.835   0.842  0.1196 -0.2154  0.2008
 1307TIP3    H1 3866   2.664   4.844   0.935  0.7991 -0.1491  0.3598
 1307TIP3    H2 3867   2.687   4.741   0.827  0.8674 -0.2612  0.4821
 1308TIP3   OH2 3868   8.331   1.071   4.885  0.3476 -0.3848  0.3840
 1308TIP3    H1 3869   8.309   1.067   4.792 -0.4964 -1.8208  0.6362
 1308TIP3    H2 3870   8.397   1.140   4.891 -0.7553  0.8382 -1.0408
 1309TIP3   OH2 3871   6.124   3.618   6.731  0.1250 -0.4573  0.0506
 1309TIP3    H1 3872   6.189   3.562   6.688 -0.6256  0.7116 -2.7124
 1309TIP3    H2 3873   6.087   3.563   6.800  1.4249 -2.3944 -0.7513
 1310TIP3   OH2 3874   0.973   4.751   3.359 -0.0987  0.4569 -0.3221
 1310TIP3    H1 3875   1.005   4.678   3.412 -1.0086  0.0399 -0.3275
 1310TIP3    H2 3876   0.971   4.826   3.420 -0.7073  0.0871  0.1215
 1311TIP3   OH2 3877   5.958   3.550   6.461 -0.1335  0.1988  0.5017
 1311TIP3    H1 3878   5.886   3.613   6.459  0.0824  0.4831  1.4283
 1311TIP3    H2 3879   5.915   3.466   6.475 -0.3031  0.3473  0.8798
 1312TIP3   OH2 3880   1.481   2.953   2.893 -0.2410 -0.6054 -0.2848
 1312TIP3    H1 3881   1.524   2.977   2.811  1.3418  1.2972  1.0636
 1312TIP3    H2 3882   1.421   3.025   2.910  1.7548  0.5983  1.8410
 1313TIP3   OH2 3883   0.407   4.197   1.939  0.0130  0.5986  0.5049
 1313TIP3    H1 3884   0.436   4.189   2.030  1.3328 -0.4609  0.0079
 1313TIP3    H2 3885   0.484   4.229   1.891 -0.3775  0.1941 -0.4107
 1314TIP3   OH2 3886   1.098   7.037   0.443 -0.3917  0.5680 -0.7771
 1314TIP3    H1 3887   1.008   7.068   0.436 -0.9380 -0.9860 -0.6377
 1314TIP3    H2 3888   1.091   6.943   0.455  1.1907  0.6287  0.9384
 1315TIP3   OH2 3889   0.551   2.057   6.762 -0.5930  0.0906 -0.0550
 1315TIP3    H1 3890   0.520   2.083   6.849 -0.1618  0.2863  0.0423
 1315TIP3    H2 3891   0.584   1.968   6.773  0.3191  0.4593  0.1889
 1316TIP3   OH2 3892   0.384   4.683   2.547  0.2609  0.0881  0.0945
 1316TIP3    H1 3893   0.306   4.635   2.520  1.7513 -0.7667 -2.9211
 1316TIP3    H2 3894   0.439   4.618   2.590  0.2461  0.2125  0.3055
 1317TIP3   OH2 3895   2.281   5.565   3.017 -0.0941  0.7325 -0.5228
 1317TIP3    H1 3896   2.271   5.601   3.106  1.5837  1.3620 -0.5646
 1317TIP3    H2 3897   2.202   5.593   2.971 -1.7166 -0.8494  1.1673
 1318TIP3   OH2 3898   8.005   1.843   5.794 -0.2345  0.2324 -0.1879
 1318TIP3    H1 3899   7.998   1.752   5.821 -0.2145  0.0497 -0.7942
 1318TIP3    H2 3900   8.023   1.891   5.875  0.2258 -0.3548  0.0576
 1319TIP3   OH2 3901   8.414   5.726   1.717  1.1714  0.0174  0.5645
 1319TIP3    H1 3902   8.351   5.734   1.646  0.8797 -1.5308  0.6366
 1319TIP3    H2 3903   8.406   5.808   1.766 -0.4836  0.0101  0.3206
 1320TIP3   OH2 3904   1.128   4.639   0.729 -0.2539  0.6730  0.4050
 1320TIP3    H1 3905   1.077   4.640   0.810  0.4958 -0.2794  0.8979
 1320TIP3    H2 3906   1.218   4.656   0.757 -0.0537  0.7255 -0.2671
 1321TIP3   OH2 3907   8.462   6.470   1.182 -0.2053  0.3109  0.3037
 1321TIP3    H1 3908   8.499   6.382   1.185 -0.5207  0.2007  0.9488
 1321TIP3    H2 3909   8.403   6.474   1.257 -1.6344  0.4299 -0.8133
 1322TIP3   OH2 3910   3.279   4.534   1.465  0.0315  0.0075  0.0748
 1322TIP3    H1 3911   3.243   4.535   1.554  1.4372 -1.7923  0.6819
 1322TIP3    H2 3912   3.202   4.548   1.408 -1.3214 -1.6717  1.4347
 1323TIP3   OH2 3913   7.152   4.996   0.998  0.5318  0.1891  0.0240
 1323TIP3    H1 3914   7.246   5.006   1.015  0.5761 -0.0764 -0.0667
 1323TIP3    H2 3915   7.111   5.061   1.055  0.8170  0.8550 -0.5192
 1324TIP3   OH2 3916   8.345   5.135   0.585  0.3256  0.3344 -0.0520
 1324TIP3    H1 3917   8.389   5.174   0.661  0.6952 -0.9803  0.4188
 1324TIP3    H2 3918   8.254   5.164   0.593  0.4508  0.5500  0.6530
 1325TIP3   OH2 3919   1.177   5.033   2.937 -0.2651 -0.1879 -0.0380
 1325TIP3    H1 3920   1.122   5.038   3.015 -0.5617  0.4889 -0.2861
 1325TIP3    H2 3921   1.118   5.053   2.864  0.3000  0.4933 -0.3109
 1326TIP3   OH2 3922   1.739   5.931   2.211  0.3272 -0.2268 -0.6839
 1326TIP3    H1 3923   1.792   5.977   2.146  1.9189 -1.7081 -0.4369
 1326TIP3    H2 3924   1.728   5.995   2.282  1.0606  0.3698 -1.1037
 1327TIP3   OH2 3925   6.505   0.576   5.964  0.8701 -0.4328  0.4429
 1327TIP3    H1 3926   6.465   0.656   5.930  0.1665 -0.4705  1.1807
 1327TIP3    H2 3927   6.500   0.514   5.890 -0.0095 -0.2933  0.3808
 1328TIP3   OH2 3928   1.743   2.664   2.221  0.3470 -0.4526  0.3100
 1328TIP3    H1 3929   1.758   2.694   2.131  1.6610  0.8474  0.9393
 1328TIP3    H2 3930   1.831   2.648   2.255 -0.0745  0.3047  1.7662
 1329TIP3   OH2 3931   1.941   3.688   0.858 -0.1723 -0.2823 -0.1824
 1329TIP3    H1 3932   2.009   3.754   0.877 -0.4191 -0.0804  0.0125
 1329TIP3    H2 3933   1.957   3.663   0.768  0.5409 -0.6771  0.0469
 1330TIP3   OH2 3934   7.491   1.090   6.857  0.2322 -0.0614 -0.1764
 1330TIP3    H1 3935   7.462   1.005   6.890  1.0302 -0.1951  0.1833
 1330TIP3    H2 3936   7.518   1.138   6.936 -0.1894  0.5117 -0.3822
 1331TIP3   OH2 3937   8.274   5.608   1.194 -0.0295  0.2315  0.6038
 1331TIP3    H1 3938   8.230   5.576   1.115  0.7008  1.8008 -0.4791
 1331TIP3    H2 3939   8.253   5.702   1.196  0.2342  0.2701  2.0991
 1332TIP3   OH2 3940   1.954   5.814   0.679 -0.6162 -0.5025 -0.1890
 1332TIP3    H1 3941   2.037   5.767   0.673 -0.2199  0.1877 -0.1675
 1332TIP3    H2 3942   1.912   5.777   0.757 -0.9949 -1.8946 -1.0408
 1333TIP3   OH2 3943   7.819   1.421   6.598  0.2053  0.0292 -0.1545
 1333TIP3    H1 3944   7.897   1.456   6.555 -0.8146  0.4616 -1.6592
 1333TIP3    H2 3945   7.760   1.496   6.607  0.0439 -0.2465  1.1982
 1334TIP3   OH2 3946   0.204   3.928   1.917 -0.7201  0.4325 -0.6418
 1334TIP3    H1 3947   0.247   3.889   1.841  1.9005 -0.8226  1.3744
 1334TIP3    H2 3948   0.239   4.017   1.921  0.8264 -0.1827  0.2588
 1335TIP3   OH2 3949   0.236   6.118   0.537  0.4231 -0.0737 -0.2825
 1335TIP3    H1 3950   0.146   6.085   0.538 -0.0405  0.7515 -4.1048
 1335TIP3    H2 3951   0.281   6.060   0.475  1.8170  1.1150 -0.4011
 1336TIP3   OH2 3952   1.654   5.940   0.077  0.1837  0.5197  0.3342
 1336TIP3    H1 3953   1.572   5.899   0.106  0.2643  0.5715  0.6409
 1336TIP3    H2 3954   1.722   5.886   0.117  0.3319 -0.7523 -1.5779
 1337TIP3   OH2 3955   1.782   4.655   2.341 -0.2069 -0.5183  0.5226
 1337TIP3    H1 3956   1.856   4.710   2.316 -0.1581 -0.5605  0.5744
 1337TIP3    H2 3957   1.796   4.572   2.296 -1.3321  0.1798 -1.1823
 1338TIP3   OH2 3958   2.767   6.065   0.613  0.0941  0.4928 -0.1490
 1338TIP3    H1 3959   2.740   6.145   0.567 -2.3142 -0.2308 -0.0686
 1338TIP3    H2 3960   2.727   5.994   0.562 -1.1143 -0.4125  2.0148
 1339TIP3   OH2 3961   0.760   3.676   2.469  0.3066 -0.7676  0.0998
 1339TIP3    H1 3962   0.792   3.717   2.388 -0.1381 -0.7417 -0.0642
 1339TIP3    H2 3963   0.739   3.749   2.527  1.4596 -0.7995  0.5685
 1340TIP3   OH2 3964   0.632   5.498   0.301 -0.1674  0.2251  0.0659
 1340TIP3    H1 3965   0.706   5.547   0.335  0.2395 -1.1725  1.2996
 1340TIP3    H2 3966   0.555   5.545   0.332  0.2134  0.8336  0.0766
 1341TIP3   OH2 3967   1.013   5.770   1.062  0.1795 -0.2591  0.0815
 1341TIP3    H1 3968   0.949   5.837   1.035 -0.1914  0.3208  2.2623
 1341TIP3    H2 3969   1.051   5.805   1.143  0.5171 -2.3543  0.8596
 1342TIP3   OH2 3970   0.648   4.410   2.096 -0.0376  0.2527 -0.1240
 1342TIP3    H1 3971   0.614   4.383   2.011  1.6344  0.8950 -1.0021
 1342TIP3    H2 3972   0.570   4.415   2.152 -1.0985 -0.5180 -1.5100
 1343TIP3   OH2 3973   8.335   5.490   0.397  0.1421  0.2107  0.5190
 1343TIP3    H1 3974   8.360   5.460   0.485 -1.6346  0.8524  1.2775
 1343TIP3    H2 3975   8.410   5.468   0.342  0.6822 -1.5884  1.8989
 1344TIP3   OH2 3976   2.534   5.338   2.094  0.0911 -0.9373 -0.1437
 1344TIP3    H1 3977   2.599   5.345   2.024  0.4601 -4.3503 -0.2405
 1344TIP3    H2 3978   2.464   5.284   2.056 -1.4560  0.2853  0.9182
 1345TIP3   OH2 3979   2.056   5.663   1.196  0.3989 -0.2685 -0.6510
 1345TIP3    H1 3980   2.145   5.698   1.200  0.8844 -1.3963 -1.2595
 1345TIP3    H2 3981   2.068   5.570   1.181 -0.8901 -0.5183 -0.1770
 1346TIP3   OH2 3982   8.266   3.541   0.934  0.6544 -0.0580  0.6689
 1346TIP3    H1 3983   8.245   3.628   0.969  1.4880 -0.0072  1.0654
 1346TIP3    H2 3984   8.349   3.518   0.976  0.3413 -1.1342  0.7122
 1347TIP3   OH2 3985   2.331   4.714   2.279  0.0599 -0.1080  0.6849
 1347TIP3    H1 3986   2.362   4.803   2.262  0.0266 -0.0282  1.0402
 1347TIP3    H2 3987   2.326   4.673   2.192  0.2141  0.1902  0.5358
 1348TIP3   OH2 3988   3.408   6.270   0.778 -0.5538 -0.1339 -0.5628
 1348TIP3    H1 3989   3.500   6.245   0.771 -0.1450  1.5445 -1.7446
 1348TIP3    H2 3990   3.380   6.237   0.863  1.0275 -1.0019 -0.3559
 1349TIP3   OH2 3991   5.738   1.599   5.930  0.2443 -0.1136  0.2101
 1349TIP3    H1 3992   5.697   1.638   5.853  1.3060 -2.1521 -1.4538
 1349TIP3    H2 3993   5.676   1.531   5.958  1.4376 -1.7360 -1.0005
 1350TIP3   OH2 3994   2.029   2.500   3.478 -0.0320 -0.0094 -0.6248
 1350TIP3    H1 3995   1.935   2.517   3.486  0.0037 -0.0133 -0.1523
 1350TIP3    H2 3996   2.036   2.433   3.411 -0.1913  1.7273 -2.4342
 1351TIP3   OH2 3997   1.587   4.578   2.774 -0.1411 -0.1942 -0.1458
 1351TIP3    H1 3998   1.618   4.634   2.703 -2.5701 -0.4701 -1.4514
 1351TIP3    H2 3999   1.644   4.501   2.771  0.4839  0.2999 -1.0685
 1352TIP3   OH2 4000   0.983   5.032   2.345 -0.3300 -0.2378  0.0544
 1352TIP3    H1 4001   1.075   5.017   2.366 -0.2968 -1.0971 -0.6858
 1352TIP3    H2 4002   0.974   5.128   2.344  0.8527 -0.1212 -1.1284
 1353TIP3   OH2 4003   0.571   0.193   6.278  0.3433 -0.4968  0.3345
 1353TIP3    H1 4004   0.562   0.220   6.369  1.3902 -0.4963  0.4443
 1353TIP3    H2 4005   0.552   0.099   6.279  2.1185 -0.8818  0.8726
 1354TIP3   OH2 4006   3.459   4.684   0.472 -0.3491 -0.0450  0.3948
 1354TIP3    H1 4007   3.410   4.687   0.390 -0.8626  1.3641  0.7439
 1354TIP3    H2 4008   3.397   4.649   0.536 -0.8114  1.4255  0.7646
 1355TIP3   OH2 4009   0.746   4.612   0.682 -0.1483 -0.8441 -0.0727
 1355TIP3    H1 4010   0.721   4.652   0.598  1.2984  0.3483  0.0383
 1355TIP3    H2 4011   0.823   4.559   0.662  0.4570 -0.2279  0.5511
 1356TIP3   OH2 4012   1.176   5.003   1.292  0.1088  0.0454 -0.2223
 1356TIP3    H1 4013   1.247   4.997   1.356  1.0610 -0.4649 -1.3101
 1356TIP3    H2 4014   1.184   4.923   1.240 -1.4056 -0.1155 -0.2094
 1357TIP3   OH2 4015   3.296   3.905   0.552  0.0511  0.3676 -0.6062
 1357TIP3    H1 4016   3.381   3.899   0.507 -0.1444 -1.0955 -0.8052
 1357TIP3    H2 4017   3.243   3.837   0.511 -1.1847  1.1715 -0.3731
 1358TIP3   OH2 4018   0.394   5.838   2.782 -0.4702 -0.3271 -0.0178
 1358TIP3    H1 4019   0.398   5.762   2.841  0.9076  1.1139  1.8034
 1358TIP3    H2 4020   0.482   5.843   2.743 -0.3741  0.6790  0.3184
 1359TIP3   OH2 4021   0.469   4.132   1.231 -0.1000  0.1659 -0.2058
 1359TIP3    H1 4022   0.539   4.126   1.296  0.7255  0.1685 -1.0886
 1359TIP3    H2 4023   0.434   4.043   1.225  0.1550  0.0574 -0.1096
 1360TIP3   OH2 4024   1.878   4.926   0.961  0.2337 -0.1296  0.1002
 1360TIP3    H1 4025   1.966   4.889   0.966  0.0982 -0.3469  0.9732
 1360TIP3    H2 4026   1.865   4.947   0.869  1.0859 -0.3794 -0.0727
 1361TIP3   OH2 4027   2.957   5.048   3.871 -0.3178  0.0912  0.2751
 1361TIP3    H1 4028   3.007   5.082   3.796  2.5760 -0.4486  1.8830
 1361TIP3    H2 4029   3.011   4.977   3.906 -1.4023  0.5765  3.0869
 1362TIP3   OH2 4030   1.694   2.896   3.823 -0.5249 -0.1348 -0.7015
 1362TIP3    H1 4031   1.758   2.934   3.762 -0.8666  0.6312 -0.5886
 1362TIP3    H2 4032   1.662   2.817   3.779  1.4003 -1.2103 -0.2244
 1363TIP3   OH2 4033   2.334   4.303   0.361 -0.1825  0.0410  0.4525
 1363TIP3    H1 4034   2.337   4.310   0.456  1.4829 -0.1984  0.4314
 1363TIP3    H2 4035   2.311   4.211   0.345 -4.0014  0.8806  0.6070
 1364TIP3   OH2 4036   8.142   5.190   1.178  0.8699 -0.2045  0.3437
 1364TIP3    H1 4037   8.128   5.096   1.172 -0.0217 -0.1312  1.2028
 1364TIP3    H2 4038   8.227   5.199   1.222  0.7843 -0.6036  0.5896
 1365TIP3   OH2 4039   2.003   4.818   2.269 -0.2541 -0.0191  0.7831
 1365TIP3    H1 4040   2.023   4.864   2.350  0.0247  0.7749  0.2720
 1365TIP3    H2 4041   2.004   4.886   2.201 -1.9666 -0.4118  0.3248
 1366TIP3   OH2 4042   2.781   6.009   0.883  0.1070  0.2768  0.0216
 1366TIP3    H1 4043   2.779   6.004   0.787 -0.3943  0.4720  0.0235
 1366TIP3    H2 4044   2.799   6.101   0.902 -0.0936  0.2949  0.1206
 1367TIP3   OH2 4045   8.460   4.017   2.250 -0.0363  0.4540 -0.2729
 1367TIP3    H1 4046   8.492   4.107   2.250  0.4205  0.2887 -1.2786
 1367TIP3    H2 4047   8.517   3.970   2.311 -0.3252  0.8521  0.3129
 1368TIP3   OH2 4048   0.694   6.480   1.464  0.5863  0.0480 -0.4284
 1368TIP3    H1 4049   0.610   6.435   1.476  1.5349 -1.9238 -1.0645
 1368TIP3    H2 4050   0.758   6.410   1.456  2.6135  1.5593  2.0303
 1369TIP3   OH2 4051   0.071   3.731   6.064  0.3218 -0.3704  0.4249
 1369TIP3    H1 4052   0.140   3.685   6.017  0.5458 -0.8007  1.1644
 1369TIP3    H2 4053   0.118   3.792   6.122  0.0690 -0.2604  0.5168
 1370TIP3   OH2 4054   3.562   5.365   0.257  0.0254  0.3945  0.1160
 1370TIP3    H1 4055   3.647   5.343   0.294  1.7516  2.8870 -2.2239
 1370TIP3    H2 4056   3.540   5.291   0.201  0.2479 -0.6197  1.3470
 1371TIP3   OH2 4057   0.257   3.075   2.753  0.4774  0.2075 -0.5288
 1371TIP3    H1 4058   0.209   3.079   2.671  0.7115 -1.9961 -0.7985
 1371TIP3    H2 4059   0.213   3.139   2.810 -0.3113  1.0098 -2.0191
 1372TIP3   OH2 4060   7.980   5.143   3.296 -0.2776 -0.1755  0.1587
 1372TIP3    H1 4061   8.049   5.134   3.362 -0.6170  0.3682  0.6006
 1372TIP3    H2 4062   7.902   5.166   3.346 -0.6100 -0.0461 -0.4089
 1373TIP3   OH2 4063  -0.029   0.043   6.449 -0.0640 -0.2257 -0.3413
 1373TIP3    H1 4064   0.038   0.111   6.448  0.0479 -0.3300 -2.4434
 1373TIP3    H2 4065   0.019  -0.039   6.439 -0.2104 -0.6276  2.0391
 1374TIP3   OH2 4066   1.145   3.847   3.475  0.3849 -0.4517 -0.1076
 1374TIP3    H1 4067   1.103   3.910   3.416  0.7732  0.9026  1.0306
 1374TIP3    H2 4068   1.126   3.880   3.562  1.2712 -1.4886  0.4894
 1375TIP3   OH2 4069   1.081   4.528   3.471  0.2052 -0.1088 -0.3084
 1375TIP3    H1 4070   1.166   4.524   3.514 -0.4674 -0.4253  1.0291
 1375TIP3    H2 4071   1.025   4.472   3.524 -0.9205  0.3627 -0.9771
 1376TIP3   OH2 4072   1.784   6.797   2.209  0.2277 -0.4624 -0.2901
 1376TIP3    H1 4073   1.857   6.777   2.268 -0.3503 -1.7635  0.0025
 1376TIP3    H2 4074   1.753   6.711   2.179 -0.0473  0.1539 -1.8033
 1377TIP3   OH2 4075   8.248   4.411   2.229 -0.0246  0.2165  0.1888
 1377TIP3    H1 4076   8.270   4.358   2.152  0.2690 -0.8150  0.9614
 1377TIP3    H2 4077   8.225   4.497   2.194 -3.0820 -1.1642 -1.3019
 1378TIP3   OH2 4078   0.940   4.975   3.516 -0.3622 -0.1981  0.5615
 1378TIP3    H1 4079   0.896   4.987   3.600 -1.6504 -2.4431  0.2343
 1378TIP3    H2 4080   1.032   4.996   3.534 -1.2897  3.3858  1.5262
 1379TIP3   OH2 4081   0.406   4.383   2.234  0.8665  0.3294 -0.3242
 1379TIP3    H1 4082   0.439   4.409   2.320 -0.1029  1.4893 -0.2853
 1379TIP3    H2 4083   0.384   4.466   2.191  0.6636 -0.2782 -1.4139
 1380TIP3   OH2 4084   2.302   3.783   1.728  0.2625 -0.1198  0.1970
 1380TIP3    H1 4085   2.364   3.710   1.727  0.6563  0.1665 -3.9578
 1380TIP3    H2 4086   2.357   3.861   1.725 -0.2007  0.1450 -2.8416
 1381TIP3   OH2 4087   1.365   3.615   2.853 -0.2427  0.3394  0.1216
 1381TIP3    H1 4088   1.301   3.644   2.787 -0.1303 -1.8236 -1.0061
 1381TIP3    H2 4089   1.436   3.578   2.802  0.9441  0.7584  1.4406
 1382TIP3   OH2 4090   3.219   5.278   0.195  0.1936  0.0276 -0.6128
 1382TIP3    H1 4091   3.229   5.225   0.274  1.5898  2.3973  0.8816
 1382TIP3    H2 4092   3.133   5.255   0.161 -1.3369  0.3933  2.7464
 1383TIP3   OH2 4093   0.951   4.555   3.877 -0.8865  0.1019  0.7354
 1383TIP3    H1 4094   0.947   4.483   3.814  3.2730 -0.4715  0.9804
 1383TIP3    H2 4095   0.959   4.512   3.962  2.1921  0.7660  0.8363
 1384TIP3   OH2 4096   5.081   4.298   3.468  0.3191 -0.3757 -0.1833
 1384TIP3    H1 4097   5.141   4.300   3.543  0.0698 -1.0015  0.0410
 1384TIP3    H2 4098   5.130   4.336   3.396 -0.0983  2.0662  0.7716
 1385TIP3   OH2 4099   1.447   4.350   2.909  0.4256  0.0725  0.4378
 1385TIP3    H1 4100   1.495   4.406   2.848 -0.6159  1.1876  0.6115
 1385TIP3    H2 4101   1.514   4.296   2.951  1.3995  0.8788 -0.0576
 1386TIP3   OH2 4102   8.074   3.873   2.347  0.3774 -0.5456  0.6334
 1386TIP3    H1 4103   8.100   3.907   2.433  0.7994 -0.0323  0.3069
 1386TIP3    H2 4104   8.120   3.789   2.340  2.2305  0.4817 -0.0555
 1387TIP3   OH2 4105   8.171   5.800   5.104 -0.4154  0.6027  0.0745
 1387TIP3    H1 4106   8.166   5.814   5.009  0.5879  3.1361  0.3758
 1387TIP3    H2 4107   8.178   5.704   5.113 -3.6330  0.0833 -2.2179
 1388TIP3   OH2 4108   7.818   4.269   0.866  0.7439  0.1742 -0.0710
 1388TIP3    H1 4109   7.906   4.234   0.855  1.2813  1.1240  1.0349
 1388TIP3    H2 4110   7.792   4.240   0.953  0.4960  1.0017  0.1374
 1389TIP3   OH2 4111   2.328   3.510   2.441  0.1274  0.3307  0.4509
 1389TIP3    H1 4112   2.371   3.553   2.367  0.9854 -0.3630  0.5289
 1389TIP3    H2 4113   2.329   3.574   2.511 -0.8813  1.0700 -0.2034
 1390TIP3   OH2 4114   2.577   4.149   2.581  0.5748 -0.3462 -0.3435
 1390TIP3    H1 4115   2.553   4.219   2.521  0.9091 -0.3401 -0.4728
 1390TIP3    H2 4116   2.507   4.084   2.572 -0.1063  0.2945  0.3076
 1391TIP3   OH2 4117   7.845   3.690   2.276  0.2499  0.2640 -0.1671
 1391TIP3    H1 4118   7.920   3.744   2.300 -0.1591  1.7148 -2.0143
 1391TIP3    H2 4119   7.881   3.622   2.219  0.7272 -1.3048  1.9620
 1392TIP3   OH2 4120   3.033   6.132   3.373 -0.0332 -0.2565 -0.5937
 1392TIP3    H1 4121   2.995   6.217   3.353 -0.3754  0.0827  1.3846
 1392TIP3    H2 4122   2.971   6.069   3.339 -1.0628  0.2960  0.2319
 1393TIP3   OH2 4123   8.160   3.040   5.255  0.5000  0.2651 -0.4875
 1393TIP3    H1 4124   8.219   3.002   5.319  0.1798  0.7551  0.1066
 1393TIP3    H2 4125   8.129   3.121   5.296 -2.4976 -1.2011  0.2833
 1394TIP3   OH2 4126   7.044   1.415   5.239  0.5715 -0.1109 -0.7427
 1394TIP3    H1 4127   6.970   1.354   5.240  0.4572  0.0385  0.1713
 1394TIP3    H2 4128   7.082   1.405   5.152 -0.0018 -0.8220 -0.9142
 1395TIP3   OH2 4129   1.946   5.154   0.188 -0.3360  0.1320 -0.2883
 1395TIP3    H1 4130   2.029   5.196   0.211 -0.2903 -0.0016 -0.2060
 1395TIP3    H2 4131   1.879   5.209   0.228 -0.2604 -0.0452  0.0802
 1396TIP3   OH2 4132   0.902   7.015   3.690  0.0656  0.6552 -0.3595
 1396TIP3    H1 4133   0.836   7.084   3.694 -0.3603  0.2518 -0.3731
 1396TIP3    H2 4134   0.940   7.025   3.603  0.5072  1.3287 -0.0932
 1397TIP3   OH2 4135   3.507   4.158   0.952  0.4386  0.1524  0.2032
 1397TIP3    H1 4136   3.458   4.093   0.903  0.8584 -0.3339  0.4257
 1397TIP3    H2 4137   3.487   4.241   0.909 -0.4647 -0.0569  0.2064
 1398TIP3   OH2 4138   3.778   5.943   0.799  0.1639 -0.5480 -0.1840
 1398TIP3    H1 4139   3.852   5.911   0.747  0.0790  0.4541 -0.9390
 1398TIP3    H2 4140   3.715   5.871   0.798  0.5834 -0.9134 -0.6273
 1399TIP3   OH2 4141   3.764   3.695   0.511 -0.6535  0.0195 -0.1237
 1399TIP3    H1 4142   3.857   3.710   0.491 -0.0478 -0.6361  2.0682
 1399TIP3    H2 4143   3.723   3.781   0.499 -0.3185 -0.2481 -3.7661
 1400TIP3   OH2 4144   1.684   4.812   1.347  0.2169 -0.0818  0.7625
 1400TIP3    H1 4145   1.681   4.838   1.255 -0.6397  0.6077  0.9832
 1400TIP3    H2 4146   1.594   4.787   1.367  0.5295 -0.8322  1.2433
 1401TIP3   OH2 4147   8.262   1.567   4.770  0.6317 -0.1270 -0.5156
 1401TIP3    H1 4148   8.199   1.608   4.712 -0.1456  0.7254  0.8910
 1401TIP3    H2 4149   8.310   1.640   4.809 -0.3338 -0.5457  1.5365
 1402TIP3   OH2 4150   0.181   4.474   0.620  0.5305  0.0319 -0.4837
 1402TIP3    H1 4151   0.156   4.501   0.532 -0.0736 -1.4554 -0.7805
 1402TIP3    H2 4152   0.181   4.555   0.671  0.5907  0.8558 -1.7761
 1403TIP3   OH2 4153   7.349   1.729   6.472  0.2281  0.2154 -0.0585
 1403TIP3    H1 4154   7.286   1.706   6.540 -0.3925  1.1533 -0.3109
 1403TIP3    H2 4155   7.379   1.645   6.438 -1.9978 -0.2409 -0.9595
 1404TIP3   OH2 4156   1.311   3.178   1.914  0.3188 -0.6750  0.4252
 1404TIP3    H1 4157   1.316   3.083   1.921 -0.7015 -0.7240  0.5212
 1404TIP3    H2 4158   1.402   3.206   1.904  0.5338 -1.7690 -0.9414
 1405TIP3   OH2 4159   2.602   5.641   1.959  0.0903  0.1412 -0.3301
 1405TIP3    H1 4160   2.513   5.607   1.956 -0.7898  2.4618 -2.2290
 1405TIP3    H2 4161   2.653   5.579   1.906 -0.2831 -1.3502  1.0033
 1406TIP3   OH2 4162   3.165   7.025   1.103 -0.2278 -0.1659 -0.7132
 1406TIP3    H1 4163   3.120   6.993   1.024  0.9539 -0.1439 -1.4124
 1406TIP3    H2 4164   3.255   7.042   1.074 -0.1040  1.0606  0.3366
 1407TIP3   OH2 4165   8.421   7.609   0.861  0.0005  0.5875 -0.8985
 1407TIP3    H1 4166   8.370   7.650   0.931  0.1847 -1.7088  0.6682
 1407TIP3    H2 4167   8.359   7.597   0.789 -1.2897 -0.7502  0.4071
 1408TIP3   OH2 4168   0.362   4.707   0.632 -0.3731 -0.2374  0.5043
 1408TIP3    H1 4169   0.381   4.623   0.591  0.6965  0.1646  0.1658
 1408TIP3    H2 4170   0.429   4.716   0.700 -0.2920  0.4955  0.3244
 1409TIP3   OH2 4171   3.530   3.615   0.646  0.2222  0.2225 -0.1742
 1409TIP3    H1 4172   3.623   3.621   0.623  0.4976 -0.1938  0.8214
 1409TIP3    H2 4173   3.485   3.612   0.561  1.0968  0.6061 -0.6646
 1410TIP3   OH2 4174   3.858   4.242   1.189 -0.5009 -0.0902 -0.4151
 1410TIP3    H1 4175   3.853   4.310   1.256 -0.1866 -0.3985 -0.0745
 1410TIP3    H2 4176   3.934   4.266   1.136 -0.4699 -0.1017 -0.3758
 1411TIP3   OH2 4177   7.777   6.402   2.257 -0.0171 -0.0098 -0.6112
 1411TIP3    H1 4178   7.829   6.355   2.191  0.2377 -1.6652  0.7324
 1411TIP3    H2 4179   7.841   6.427   2.324 -0.6643 -0.4460  0.1699
 1412TIP3   OH2 4180   6.097   6.621   6.871  0.4928  0.5301  0.0202
 1412TIP3    H1 4181   6.126   6.605   6.781  0.8404  3.2183 -0.3956
 1412TIP3    H2 4182   6.004   6.644   6.862  0.5444  0.8648  0.3409
 1413TIP3   OH2 4183   5.660   7.743   6.145  0.0840  0.2177 -0.2387
 1413TIP3    H1 4184   5.650   7.722   6.052  2.8182  1.3799 -0.8612
 1413TIP3    H2 4185   5.571   7.755   6.177 -0.9802 -1.7916 -2.3255
 1414TIP3   OH2 4186   0.627   4.609   0.180  0.1018  0.4990  0.0707
 1414TIP3    H1 4187   0.578   4.531   0.206  0.1083  0.4320 -0.1196
 1414TIP3    H2 4188   0.569   4.655   0.120  0.5376  0.0753 -0.6787
 1415TIP3   OH2 4189   0.076   3.529   0.524  0.1789 -0.6482  0.2547
 1415TIP3    H1 4190   0.128   3.500   0.450 -0.8074 -0.6721 -0.4414
 1415TIP3    H2 4191  -0.013   3.497   0.505 -0.8223  2.2945 -0.2647
 1416TIP3   OH2 4192   8.082   4.775   0.699  0.3110  0.2898  0.0450
 1416TIP3    H1 4193   8.064   4.716   0.626 -0.5718  1.5296 -0.7456
 1416TIP3    H2 4194   8.014   4.756   0.763  0.6803 -0.3135  0.2658
 1417TIP3   OH2 4195   1.607   4.446   0.833 -0.6205  0.0457  0.4002
 1417TIP3    H1 4196   1.695   4.454   0.796 -1.0276  2.8478 -0.0979
 1417TIP3    H2 4197   1.568   4.533   0.820 -3.1650 -0.9201  1.3541
 1418TIP3   OH2 4198   7.475   3.758   0.797  0.0367 -0.1204  0.3420
 1418TIP3    H1 4199   7.472   3.675   0.845 -0.2968  0.0813  0.6852
 1418TIP3    H2 4200   7.444   3.822   0.861 -0.0177  0.2155 -0.0217
 1419TIP3   OH2 4201   0.095   5.441   1.518  0.3191 -0.5351 -0.6490
 1419TIP3    H1 4202   0.155   5.416   1.448 -0.0308  1.5166 -1.6937
 1419TIP3    H2 4203   0.011   5.404   1.492  0.5073 -1.0526 -0.5424
 1420TIP3   OH2 4204   7.987   7.436   2.109  0.4830  0.2160  0.2992
 1420TIP3    H1 4205   7.967   7.344   2.090 -0.2029  0.7821 -1.9452
 1420TIP3    H2 4206   7.926   7.460   2.179  0.0297 -0.7960  0.2678
 1421TIP3   OH2 4207   0.040   4.310   0.180  0.1079  0.2993 -0.1580
 1421TIP3    H1 4208   0.044   4.381   0.117  0.3057  1.7965  1.5210
 1421TIP3    H2 4209   0.066   4.232   0.130  1.1401  1.6001 -1.6913
 1422TIP3   OH2 4210   1.092   0.040   6.631 -0.4859 -0.6728 -0.3011
 1422TIP3    H1 4211   1.090   0.130   6.601 -0.2284 -0.6314 -0.1950
 1422TIP3    H2 4212   1.181   0.027   6.665 -0.7303 -0.7541  0.3200
 1423TIP3   OH2 4213   2.776   4.205   0.249 -0.5184  0.0847  0.1925
 1423TIP3    H1 4214   2.775   4.134   0.184 -0.1329 -1.3163  1.6839
 1423TIP3    H2 4215   2.850   4.260   0.223  0.1835 -0.9560 -0.0225
 1424TIP3   OH2 4216   6.796   1.152   5.821  0.7505  0.0868  0.1941
 1424TIP3    H1 4217   6.736   1.167   5.894  0.0063  1.7200 -0.7292
 1424TIP3    H2 4218   6.873   1.205   5.842  1.1536 -0.6133  0.5084
 1425TIP3   OH2 4219   2.514   6.337   0.109  0.6152 -0.4903 -0.0863
 1425TIP3    H1 4220   2.598   6.291   0.116  0.4278 -0.9548 -0.8871
 1425TIP3    H2 4221   2.501   6.350   0.015 -0.0386 -0.0949  0.0541
 1426TIP3   OH2 4222   0.838   0.848   6.972  0.3941  0.5394 -0.3553
 1426TIP3    H1 4223   0.773   0.828   6.905  1.4852 -1.0937 -0.9881
 1426TIP3    H2 4224   0.902   0.903   6.927  0.2039  0.9185 -0.1570
 1427TIP3   OH2 4225   2.290   5.507   3.660  0.6898  0.1051 -0.4270
 1427TIP3    H1 4226   2.376   5.544   3.639  0.7048 -0.3766 -1.2461
 1427TIP3    H2 4227   2.229   5.565   3.615  0.5744  0.5516  0.3028
 1428TIP3   OH2 4228   3.124   5.347   1.031 -0.0128 -0.1549  0.1266
 1428TIP3    H1 4229   3.132   5.252   1.018 -0.6164 -0.2845  0.6583
 1428TIP3    H2 4230   3.214   5.379   1.037  0.1798 -0.7793  0.5595
 1429TIP3   OH2 4231   6.657   7.891   6.883  0.0251 -0.9028  0.1249
 1429TIP3    H1 4232   6.675   7.944   6.960 -1.5131  0.2059 -0.2599
 1429TIP3    H2 4233   6.691   7.942   6.810 -1.3641 -0.4723 -0.2375
 1430TIP3   OH2 4234   6.407   6.436   6.455 -0.6558  0.3820 -0.5692
 1430TIP3    H1 4235   6.479   6.443   6.393 -0.3291 -0.1199 -0.2523
 1430TIP3    H2 4236   6.344   6.502   6.426 -0.3161  0.4486 -1.1724
 1431TIP3   OH2 4237   6.182   6.915   6.865  0.0229 -0.1219  0.2510
 1431TIP3    H1 4238   6.208   6.826   6.886 -0.8308  0.1680  2.6360
 1431TIP3    H2 4239   6.259   6.954   6.824  0.5188 -1.8126 -0.4437
 1432TIP3   OH2 4240   2.518   4.896   1.069 -0.3956 -0.3454  0.4958
 1432TIP3    H1 4241   2.451   4.878   1.135  0.6080 -0.3723  1.5231
 1432TIP3    H2 4242   2.550   4.983   1.090 -0.6929  0.0150 -0.5149
 1433TIP3   OH2 4243   2.168   3.359   0.645  0.1143 -0.2342  0.0271
 1433TIP3    H1 4244   2.130   3.353   0.732  0.0957  3.3891  0.3388
 1433TIP3    H2 4245   2.251   3.405   0.658  0.9656 -1.2235 -1.6623
 1434TIP3   OH2 4246   7.238   1.531   5.860 -0.3078  0.2994 -0.3765
 1434TIP3    H1 4247   7.196   1.617   5.854 -0.8227  0.0672 -0.0779
 1434TIP3    H2 4248   7.277   1.530   5.948 -1.1819 -0.1777  0.0067
 1435TIP3   OH2 4249   1.653   5.396   1.731  0.9722 -0.4504  0.0137
 1435TIP3    H1 4250   1.684   5.340   1.660  3.2967 -0.4672  1.0290
 1435TIP3    H2 4251   1.618   5.335   1.796 -0.3592 -0.4795 -0.7116
 1436TIP3   OH2 4252  -0.024   6.839   1.250  0.3692 -0.3031  0.3395
 1436TIP3    H1 4253  -0.011   6.932   1.264 -0.0248 -0.0261 -1.1096
 1436TIP3    H2 4254   0.045   6.813   1.190 -0.4238 -0.6175 -0.4578
 1437TIP3   OH2 4255   1.455   1.789   3.590  0.0787 -0.0242 -0.0135
 1437TIP3    H1 4256   1.362   1.765   3.595  0.5346 -1.8268  0.1009
 1437TIP3    H2 4257   1.482   1.799   3.681  0.5703 -1.8033  0.0421
 1438TIP3   OH2 4258   1.729   5.424   2.619  0.0133 -0.4682  0.4813
 1438TIP3    H1 4259   1.739   5.519   2.618 -0.3356 -0.4274  1.0116
 1438TIP3    H2 4260   1.684   5.405   2.536 -1.2723 -0.0131  1.0541
 1439TIP3   OH2 4261   8.184   2.741   6.405 -0.0180  0.2103  0.2135
 1439TIP3    H1 4262   8.226   2.750   6.319 -0.6270  1.6631  0.0589
 1439TIP3    H2 4263   8.219   2.813   6.457 -2.4161  1.5622  0.0363
 1440TIP3   OH2 4264   4.668   6.360   0.129 -0.3575  0.0895 -0.0200
 1440TIP3    H1 4265   4.660   6.454   0.145  1.1699  0.2404 -0.1257
 1440TIP3    H2 4266   4.761   6.341   0.140 -0.1297 -0.8420 -3.1132
 1441TIP3   OH2 4267   2.783   7.291   2.685  0.0033  0.3029  0.4616
 1441TIP3    H1 4268   2.830   7.210   2.667  0.5961  0.5634  0.8288
 1441TIP3    H2 4269   2.720   7.299   2.613  0.0671 -0.3867  0.3290
 1442TIP3   OH2 4270   2.333   4.796   0.207  0.1260  0.0823  0.6126
 1442TIP3    H1 4271   2.358   4.876   0.254 -0.4167  1.2459 -1.0313
 1442TIP3    H2 4272   2.255   4.764   0.253 -1.1245  1.8796 -0.1939
 1443TIP3   OH2 4273   7.178   0.829   6.829  0.3555 -0.1282 -0.2261
 1443TIP3    H1 4274   7.156   0.898   6.891 -0.1317  0.7346 -1.3422
 1443TIP3    H2 4275   7.271   0.841   6.813  0.7197 -1.0296  1.1496
 1444TIP3   OH2 4276   4.378   5.589   3.000 -0.3829 -0.2346  0.2087
 1444TIP3    H1 4277   4.343   5.506   2.968 -0.8890 -0.9753  2.5830
 1444TIP3    H2 4278   4.300   5.639   3.025 -0.0750  0.9180 -1.0808
 1445TIP3   OH2 4279   0.969   6.604   1.855 -0.3960  0.2663 -0.2373
 1445TIP3    H1 4280   0.907   6.657   1.804  0.9497  1.3137 -0.8026
 1445TIP3    H2 4281   1.022   6.668   1.901 -0.4640 -0.6537  1.1443
 1446TIP3   OH2 4282   1.729   1.727   6.388 -0.0895  0.1835  0.0593
 1446TIP3    H1 4283   1.717   1.681   6.471  0.5647 -0.0206  0.0450
 1446TIP3    H2 4284   1.657   1.790   6.385 -0.4261 -0.1688  0.5321
 1447TIP3   OH2 4285   8.027   0.105   6.681  0.6947 -0.0777 -0.4605
 1447TIP3    H1 4286   8.119   0.128   6.686  0.3482  1.6021 -1.2982
 1447TIP3    H2 4287   7.997   0.142   6.598 -0.6922 -0.7123 -0.2625
 1448TIP3   OH2 4288   0.774   0.238   5.862  0.1079  0.1273  0.4176
 1448TIP3    H1 4289   0.797   0.185   5.785  1.1871 -1.9194  2.1009
 1448TIP3    H2 4290   0.722   0.310   5.827 -0.0623 -1.1962 -2.1389
 1449TIP3   OH2 4291   4.283   1.880   1.076 -0.0512 -0.0894  0.2727
 1449TIP3    H1 4292   4.197   1.847   1.104  0.5891  0.8046  3.5728
 1449TIP3    H2 4293   4.341   1.805   1.083 -0.4758 -0.6016 -1.5919
 1450TIP3   OH2 4294   3.061   5.659   0.995  0.5584 -0.2410  0.5185
 1450TIP3    H1 4295   2.967   5.645   0.997  0.5619 -0.1211  2.1251
 1450TIP3    H2 4296   3.072   5.737   0.940 -0.0177 -1.9685 -2.1360
 1451TIP3   OH2 4297   3.247   2.825   0.591 -0.3873 -0.3809  0.6749
 1451TIP3    H1 4298   3.186   2.810   0.663 -1.5596 -1.2223 -0.4710
 1451TIP3    H2 4299   3.286   2.739   0.574 -0.7130 -0.3483 -0.2274
 1452TIP3   OH2 4300   5.051   7.797   4.648  0.4449 -0.0526  0.3104
 1452TIP3    H1 4301   5.146   7.804   4.651  0.4946 -0.9787  1.5141
 1452TIP3    H2 4302   5.021   7.882   4.617  1.6718  0.1353 -0.4029
 1453TIP3   OH2 4303   2.070   4.114   2.362  0.1566  0.2269  0.1685
 1453TIP3    H1 4304   2.115   4.106   2.446  0.6352 -0.0310 -0.1135
 1453TIP3    H2 4305   1.997   4.174   2.380  1.7964  2.2557  0.1433
 1454TIP3   OH2 4306   2.927   5.075   2.029 -0.0705 -0.4457 -0.1006
 1454TIP3    H1 4307   2.925   5.168   2.006 -1.8444 -0.2884  0.6109
 1454TIP3    H2 4308   2.865   5.034   1.969 -2.0750 -0.5762  1.9825
 1455TIP3   OH2 4309   2.871   6.715   1.476 -0.2148  0.7505  0.0777
 1455TIP3    H1 4310   2.838   6.762   1.399 -0.5230 -0.6312 -0.6648
 1455TIP3    H2 4311   2.842   6.625   1.462  3.1357 -0.3445 -0.1680
 1456TIP3   OH2 4312   4.437   4.901   1.836  0.0176  0.0872  0.3217
 1456TIP3    H1 4313   4.370   4.968   1.818 -0.2129 -0.5032 -1.0985
 1456TIP3    H2 4314   4.394   4.840   1.896 -0.3173  0.3726  0.3739
 1457TIP3   OH2 4315   2.606   3.727   0.698 -0.5169 -0.2468 -0.3088
 1457TIP3    H1 4316   2.674   3.679   0.652  0.3702 -0.9466  1.6621
 1457TIP3    H2 4317   2.606   3.814   0.658  0.5980 -0.6716 -1.2488
 1458TIP3   OH2 4318   2.918   4.460   3.827  0.0547  0.2119  0.1656
 1458TIP3    H1 4319   2.845   4.513   3.795  1.2316  1.8773  0.1672
 1458TIP3    H2 4320   2.888   4.426   3.911 -0.9711  0.3280 -0.1490
 1459TIP3   OH2 4321   8.456   1.438   4.427 -0.1883  0.3120  0.2654
 1459TIP3    H1 4322   8.480   1.494   4.501  1.4517 -0.6534  0.4929
 1459TIP3    H2 4323   8.360   1.438   4.426 -0.2110  1.7977  1.2632
 1460TIP3   OH2 4324   1.203   5.533   1.665  0.7879  0.1546 -0.3879
 1460TIP3    H1 4325   1.286   5.557   1.623  2.7383 -1.6500  2.2183
 1460TIP3    H2 4326   1.194   5.439   1.648 -1.2159  0.5371 -1.4530
 1461TIP3   OH2 4327   2.328   0.532   6.335  0.2360  0.4308 -0.1140
 1461TIP3    H1 4328   2.419   0.545   6.362  0.1033  1.1938 -0.0238
 1461TIP3    H2 4329   2.289   0.483   6.407  0.2174  1.3265  0.4834
 1462TIP3   OH2 4330   3.074   3.385   1.436  0.0753  0.4290  0.0293
 1462TIP3    H1 4331   3.062   3.316   1.502  0.2551  1.0215  0.6813
 1462TIP3    H2 4332   3.084   3.465   1.487  2.8017  0.5386 -0.6292
 1463TIP3   OH2 4333   4.855   3.561   1.085 -0.4678 -0.6559  0.0353
 1463TIP3    H1 4334   4.859   3.632   1.021  1.4879  0.1090  0.9488
 1463TIP3    H2 4335   4.823   3.485   1.036  0.9241 -0.0756 -1.8292
 1464TIP3   OH2 4336   1.496   5.594   0.598  0.0686  0.4411 -0.2614
 1464TIP3    H1 4337   1.555   5.642   0.541 -0.9447  1.2363 -0.6571
 1464TIP3    H2 4338   1.545   5.584   0.680  1.1907  0.0480 -0.9668
 1465TIP3   OH2 4339   6.065   7.251   6.664 -0.4539 -0.0828  0.1159
 1465TIP3    H1 4340   6.002   7.226   6.597 -0.9959  0.6280  0.3565
 1465TIP3    H2 4341   6.024   7.225   6.747  0.0483 -0.6192  0.1969
 1466TIP3   OH2 4342   7.952   1.595   5.881  0.7892 -0.1411  0.4855
 1466TIP3    H1 4343   7.948   1.596   5.977 -0.2257 -2.1504  0.5072
 1466TIP3    H2 4344   7.860   1.593   5.854  1.0806  0.0215 -0.5187
 1467TIP3   OH2 4345   3.115   5.085   0.936  0.0169  0.1962 -0.2041
 1467TIP3    H1 4346   3.163   5.002   0.941  1.1522  0.8480 -0.1761
 1467TIP3    H2 4347   3.133   5.119   0.849 -2.0848 -0.5476 -0.9541
 1468TIP3   OH2 4348   1.824   1.657   5.492  0.1366 -0.2630  0.0372
 1468TIP3    H1 4349   1.910   1.623   5.519 -0.5589 -0.6111  1.8838
 1468TIP3    H2 4350   1.818   1.743   5.534 -1.5654 -1.4166  2.2710
 1469TIP3   OH2 4351   5.105   4.690   0.583  0.4516 -0.2200  0.1321
 1469TIP3    H1 4352   5.155   4.733   0.653  0.7485  2.2052 -1.5051
 1469TIP3    H2 4353   5.015   4.718   0.598  0.4383 -0.1081 -0.1645
 1470TIP3   OH2 4354   1.591   0.641   6.513  0.2477  0.2179  0.1836
 1470TIP3    H1 4355   1.571   0.734   6.522 -0.2737  0.1895 -0.6401
 1470TIP3    H2 4356   1.687   0.637   6.516  0.3202  0.9097 -0.9721
 1471TIP3   OH2 4357   5.121   7.424   5.846  0.1027 -0.4523  0.2721
 1471TIP3    H1 4358   5.177   7.460   5.776 -0.5733 -0.5630 -0.3319
 1471TIP3    H2 4359   5.052   7.489   5.856 -0.4700 -1.0230  0.0021
 1472TIP3   OH2 4360   3.760   7.548   0.559  0.2055 -0.4046  0.3239
 1472TIP3    H1 4361   3.753   7.471   0.615  0.2783 -0.2317  0.5708
 1472TIP3    H2 4362   3.854   7.555   0.539  0.4423  0.6045  1.6918
 1473TIP3   OH2 4363   1.721   4.982   2.450  0.0270  0.6182  0.4711
 1473TIP3    H1 4364   1.743   4.894   2.483 -0.7794  0.5403  0.7982
 1473TIP3    H2 4365   1.752   5.041   2.519 -1.4400  0.4675  1.2622
 1474TIP3   OH2 4366   3.574   5.754   0.860  0.2236  0.4905 -0.3383
 1474TIP3    H1 4367   3.526   5.672   0.866  0.3211  0.4567 -0.0328
 1474TIP3    H2 4368   3.515   5.819   0.900 -0.8873  1.0113 -2.7422
 1475TIP3   OH2 4369   1.198   7.454   1.870 -0.4609 -0.6452 -0.7716
 1475TIP3    H1 4370   1.273   7.395   1.882 -0.9827 -1.0330  0.5960
 1475TIP3    H2 4371   1.237   7.541   1.866  0.0816 -0.8672 -0.3291
 1476TIP3   OH2 4372   4.240   5.212   1.492 -0.2040 -0.5011 -0.0758
 1476TIP3    H1 4373   4.305   5.154   1.453  1.1069  2.0031 -1.7856
 1476TIP3    H2 4374   4.174   5.225   1.424 -0.5886 -0.1225  0.3562
 1477TIP3   OH2 4375   4.926   3.803   0.952  0.1274  0.4437 -0.0432
 1477TIP3    H1 4376   4.963   3.850   1.026 -1.4363  1.6238  0.0168
 1477TIP3    H2 4377   4.943   3.859   0.877  0.6510 -0.1798 -0.3869
 1478TIP3   OH2 4378   3.674   2.644   0.515 -0.1141 -0.2178 -0.4112
 1478TIP3    H1 4379   3.682   2.618   0.423 -2.5441 -1.1840 -0.3884
 1478TIP3    H2 4380   3.621   2.724   0.513 -3.1015 -2.0717  0.2957
 1479TIP3   OH2 4381   1.578   4.813   2.256 -0.0988  0.3712  0.0653
 1479TIP3    H1 4382   1.641   4.752   2.294 -1.3314 -0.3118  1.0407
 1479TIP3    H2 4383   1.594   4.895   2.302  0.6856  0.4474 -0.3300
 1480TIP3   OH2 4384   7.054   1.738   5.450  0.3110 -0.3769  0.2925
 1480TIP3    H1 4385   7.105   1.701   5.377  1.0889 -1.1953  1.2401
 1480TIP3    H2 4386   6.971   1.690   5.447 -0.0430  0.2768 -0.6535
 1481TIP3   OH2 4387   5.759   4.690   3.379 -0.0334 -0.7004  0.3529
 1481TIP3    H1 4388   5.842   4.709   3.423  0.3407 -0.8442 -0.2825
 1481TIP3    H2 4389   5.692   4.705   3.446  0.4498  0.1512  0.6527
 1482TIP3   OH2 4390   3.042   6.401   0.254  0.2465  0.2178  0.5466
 1482TIP3    H1 4391   3.049   6.423   0.162 -1.1693  1.5760  0.7490
 1482TIP3    H2 4392   2.958   6.438   0.282  1.3495  1.1656  2.7357
 1483TIP3   OH2 4393   7.472   1.016   6.576 -0.3472 -0.7609  0.0006
 1483TIP3    H1 4394   7.450   0.926   6.602 -0.5592 -0.8292 -0.4054
 1483TIP3    H2 4395   7.520   1.051   6.650  1.4519 -1.8650 -0.6222
 1484TIP3   OH2 4396   7.545   0.224   1.039 -0.7580  0.0845  0.0908
 1484TIP3    H1 4397   7.590   0.280   1.101  0.1904 -0.1850 -0.3425
 1484TIP3    H2 4398   7.504   0.156   1.092 -0.9184  0.5145  0.5151
 1485TIP3   OH2 4399   2.979   6.110   1.072 -0.1275 -0.0050  0.1353
 1485TIP3    H1 4400   2.986   6.175   1.002 -1.5153  0.9208  0.8426
 1485TIP3    H2 4401   2.932   6.154   1.142 -1.7517 -1.9794  0.3436
 1486TIP3   OH2 4402   2.015   5.270   1.538  0.2512 -0.2942  0.0164
 1486TIP3    H1 4403   2.051   5.195   1.587  1.0733  0.1767  0.1361
 1486TIP3    H2 4404   2.091   5.319   1.510 -0.3153  1.1681  0.9762
 1487TIP3   OH2 4405   4.182   1.466   2.023  0.3195  0.1237 -0.0023
 1487TIP3    H1 4406   4.258   1.417   1.992  0.0916  0.4957 -1.1921
 1487TIP3    H2 4407   4.197   1.555   1.990  0.4208  0.7102  1.5889
 1488TIP3   OH2 4408   5.108   5.225   2.800 -0.3279  0.0208 -0.3549
 1488TIP3    H1 4409   5.144   5.193   2.716  1.4381  0.2406  0.2982
 1488TIP3    H2 4410   5.169   5.191   2.866 -0.5817  1.5612  0.6771
 1489TIP3   OH2 4411   1.686   1.164   6.665 -0.6569  0.4657  0.2431
 1489TIP3    H1 4412   1.733   1.140   6.744 -0.2389 -1.9618 -0.7018
 1489TIP3    H2 4413   1.754   1.178   6.599 -1.0318  1.7283  0.1171
 1490TIP3   OH2 4414   1.943   5.297   2.716  0.0342 -0.3081  0.3413
 1490TIP3    H1 4415   1.910   5.207   2.723 -0.2853 -0.1322  1.1478
 1490TIP3    H2 4416   1.864   5.351   2.707  0.0842  0.1074  2.1977
 1491TIP3   OH2 4417   4.039   2.888   0.761 -0.0514  0.2648 -0.6430
 1491TIP3    H1 4418   4.119   2.924   0.801 -0.2698  0.3851 -0.3098
 1491TIP3    H2 4419   3.997   2.964   0.721 -0.8325  0.5051  0.6016
 1492TIP3   OH2 4420   7.649   0.798   6.372 -0.4823 -0.0728  0.4959
 1492TIP3    H1 4421   7.598   0.816   6.294 -1.0672 -0.4433  0.7897
 1492TIP3    H2 4422   7.639   0.876   6.426 -0.2036  0.1201  0.2709
 1493TIP3   OH2 4423   3.699   6.207   0.728 -0.6044  0.0643  0.1484
 1493TIP3    H1 4424   3.733   6.118   0.735 -0.3264  0.1287 -0.3767
 1493TIP3    H2 4425   3.706   6.228   0.635 -2.4188 -0.0500 -0.0264
 1494TIP3   OH2 4426   8.049   2.215   5.686 -0.5358  0.4636  0.3159
 1494TIP3    H1 4427   7.955   2.201   5.680 -0.8333  1.5466  2.0982
 1494TIP3    H2 4428   8.064   2.235   5.778  1.1831  2.1325 -0.3015
 1495TIP3   OH2 4429   2.581   5.846   1.747 -0.0093  0.0742  0.3282
 1495TIP3    H1 4430   2.604   5.789   1.820  0.2204 -1.9324 -1.2612
 1495TIP3    H2 4431   2.662   5.856   1.698 -0.9062 -1.4760 -1.5594
 1496TIP3   OH2 4432   5.297   7.642   5.967 -0.1031 -0.2036 -0.5343
 1496TIP3    H1 4433   5.260   7.582   6.031 -1.3247  0.1295 -0.9201
 1496TIP3    H2 4434   5.221   7.680   5.923  0.6556  1.4542 -0.4410
 1497TIP3   OH2 4435   3.324   4.427   2.667  0.3574  0.3683 -0.3368
 1497TIP3    H1 4436   3.376   4.389   2.738  3.2103  0.1072 -2.4769
 1497TIP3    H2 4437   3.329   4.522   2.682  1.1403  0.3253 -0.3244
 1498TIP3   OH2 4438   0.326   0.331   6.198 -0.0046 -0.4191  0.3835
 1498TIP3    H1 4439   0.325   0.396   6.128  0.6664 -0.7468  0.0750
 1498TIP3    H2 4440   0.417   0.303   6.205 -0.4213 -1.9382 -0.0456
 1499TIP3   OH2 4441   0.802   1.631   6.656  0.2393 -0.2949 -0.2178
 1499TIP3    H1 4442   0.791   1.593   6.569 -1.3374 -1.7632  0.5908
 1499TIP3    H2 4443   0.802   1.556   6.715  0.3515  0.7495  1.1357
 1500TIP3   OH2 4444   5.518   7.455   5.790 -0.7494  0.4439 -0.1871
 1500TIP3    H1 4445   5.440   7.499   5.825 -0.1910  2.3583 -1.2544
 1500TIP3    H2 4446   5.496   7.437   5.698 -0.1375  0.5089 -0.3490
 1501TIP3   OH2 4447   4.673   6.975   6.734  0.2787  0.5735 -0.0826
 1501TIP3    H1 4448   4.583   6.990   6.705  0.2666 -1.3628 -1.0818
 1501TIP3    H2 4449   4.664   6.940   6.823  0.1134  1.4368  0.2516
 1502TIP3   OH2 4450   3.644   5.123   2.595 -0.6233 -0.6823  0.0836
 1502TIP3    H1 4451   3.634   5.042   2.544 -2.2099 -0.3261 -0.1726
 1502TIP3    H2 4452   3.718   5.168   2.553 -0.3776 -1.5197 -0.3990
 1503TIP3   OH2 4453   3.129   2.695   0.822 -0.0505 -0.2988 -0.3295
 1503TIP3    H1 4454   3.041   2.658   0.822 -0.3055  0.2952  0.3046
 1503TIP3    H2 4455   3.118   2.782   0.859  0.9858 -0.6678  0.8795
 1504TIP3   OH2 4456   3.110   4.386   0.855 -0.4802 -0.3399 -0.5636
 1504TIP3    H1 4457   3.094   4.345   0.940 -1.4075  0.3330 -0.4018
 1504TIP3    H2 4458   3.056   4.335   0.794 -2.1194  0.9956 -0.2623
 1505TIP3   OH2 4459   4.439   7.016   1.559  0.4410 -0.3496 -0.5159
 1505TIP3    H1 4460   4.399   7.027   1.645 -1.7773  2.1485 -1.7743
 1505TIP3    H2 4461   4.442   7.105   1.523  1.0379 -1.3829 -3.1455
 1506TIP3   OH2 4462   1.270   5.258   1.539 -0.0699  0.3792  0.0606
 1506TIP3    H1 4463   1.202   5.196   1.566 -0.1215 -0.4794 -1.9201
 1506TIP3    H2 4464   1.243   5.286   1.452  1.1793  1.4073 -0.0084
 1507TIP3   OH2 4465   2.920   4.932   0.621 -0.1689  0.6706 -0.6320
 1507TIP3    H1 4466   2.865   4.963   0.693  0.3568 -1.2067  0.6388
 1507TIP3    H2 4467   2.985   4.875   0.663  0.3627 -0.2031 -2.5526
 1508TIP3   OH2 4468   4.077   4.829   0.421  0.6689  0.4491 -0.0746
 1508TIP3    H1 4469   4.026   4.748   0.418  1.5254 -0.0957 -0.3880
 1508TIP3    H2 4470   4.052   4.876   0.342  1.0148 -0.0478 -0.4857
 1509TIP3   OH2 4471   3.376   5.685   0.515  0.1862  0.7808 -0.3686
 1509TIP3    H1 4472   3.448   5.746   0.496  0.0192  0.5571 -1.7680
 1509TIP3    H2 4473   3.311   5.739   0.560  1.7151  0.7111  2.0476
 1510TIP3   OH2 4474   6.424   0.582   5.576  0.0992  0.1762 -0.0186
 1510TIP3    H1 4475   6.449   0.613   5.489  0.7013  0.8799  0.3895
 1510TIP3    H2 4476   6.505   0.548   5.613 -0.4770 -1.5379 -0.3040
 1511TIP3   OH2 4477   2.886   5.086   1.557 -0.1526 -0.1659 -0.5960
 1511TIP3    H1 4478   2.864   5.148   1.487 -1.5513 -2.1197 -1.9369
 1511TIP3    H2 4479   2.942   5.021   1.515  0.9275 -0.0891  0.6863
 1512TIP3   OH2 4480   2.799   3.977   1.695  0.0670 -0.7335  0.0606
 1512TIP3    H1 4481   2.818   4.071   1.689 -0.6367 -0.6473 -0.8975
 1512TIP3    H2 4482   2.783   3.962   1.788  1.8378 -0.2381  0.4645
 1513TIP3   OH2 4483   1.298   1.376   6.159  0.2060 -0.1692  0.3240
 1513TIP3    H1 4484   1.339   1.452   6.199  0.3120  0.8576 -1.6949
 1513TIP3    H2 4485   1.338   1.369   6.073 -2.7217 -0.0407 -1.1135
 1514TIP3   OH2 4486   2.409   4.163   1.419 -0.0292  0.3219 -0.0756
 1514TIP3    H1 4487   2.322   4.136   1.448  0.7977 -0.9137  1.2585
 1514TIP3    H2 4488   2.467   4.091   1.443  1.4732  1.3931 -0.3990
 1515TIP3   OH2 4489   7.576   2.550   6.747 -0.0474  0.4685 -0.0733
 1515TIP3    H1 4490   7.568   2.553   6.842  1.9352 -0.6797  0.1631
 1515TIP3    H2 4491   7.487   2.559   6.714 -1.1533 -2.2841  1.9893
 1516TIP3   OH2 4492   3.633   5.984   1.239 -0.4895 -0.1594  0.1945
 1516TIP3    H1 4493   3.707   5.929   1.264 -0.5753 -0.9516 -1.2274
 1516TIP3    H2 4494   3.653   6.070   1.275  0.0670 -0.9069  1.6962
 1517TIP3   OH2 4495   5.619   6.660   1.574  0.2182  0.3594 -0.4733
 1517TIP3    H1 4496   5.579   6.688   1.492 -0.6008 -1.7069 -0.7976
 1517TIP3    H2 4497   5.696   6.717   1.584  0.0623  0.9275 -2.4172
 1518TIP3   OH2 4498   1.880   5.865   0.230 -0.5869 -0.2108  0.0288
 1518TIP3    H1 4499   1.933   5.786   0.219 -0.4356 -0.4042  1.9826
 1518TIP3    H2 4500   1.943   5.933   0.256 -0.8628  0.3063 -0.6362
 1519TIP3   OH2 4501   2.762   3.167   0.533 -0.1464 -0.5383  0.2003
 1519TIP3    H1 4502   2.742   3.079   0.501 -0.5862 -0.3218 -0.1210
 1519TIP3    H2 4503   2.713   3.226   0.476 -0.7079 -0.1355  1.0877
 1520TIP3   OH2 4504   7.591   0.563   5.790  0.3416  0.6805 -0.6037
 1520TIP3    H1 4505   7.615   0.575   5.882  1.2709  1.3473 -0.9166
 1520TIP3    H2 4506   7.515   0.620   5.777  1.0001  1.5979 -0.5529
 1521TIP3   OH2 4507   0.227   2.507   5.383 -0.4859  0.5793 -0.2893
 1521TIP3    H1 4508   0.236   2.415   5.408 -0.6557  0.9294  1.1101
 1521TIP3    H2 4509   0.202   2.551   5.464 -0.8612  1.7872 -1.0554
 1522TIP3   OH2 4510   1.045   0.113   5.993 -0.1136  0.4003 -0.0103
 1522TIP3    H1 4511   1.134   0.139   6.016  0.4290 -0.0552 -1.5454
 1522TIP3    H2 4512   1.003   0.092   6.077  1.6379 -0.7009  0.6066
 1523TIP3   OH2 4513   0.306   0.789   6.141  0.0194  0.1921 -0.4546
 1523TIP3    H1 4514   0.310   0.697   6.115  1.1868  0.5093 -1.5018
 1523TIP3    H2 4515   0.358   0.834   6.074  1.1117  1.3608  1.1528
 1524TIP3   OH2 4516   2.666   4.559   2.434 -0.0954  0.3214 -0.4131
 1524TIP3    H1 4517   2.746   4.541   2.482  0.6691  1.7881 -1.1172
 1524TIP3    H2 4518   2.612   4.610   2.494 -0.3547 -0.3351 -0.0801
 1525TIP3   OH2 4519   4.338   4.608   3.303  0.5550 -0.4897 -0.0750
 1525TIP3    H1 4520   4.419   4.631   3.257  1.2635 -1.5008  0.6599
 1525TIP3    H2 4521   4.338   4.513   3.306 -0.0418 -0.4621  1.0254
 1526TIP3   OH2 4522   3.029   5.666   1.851 -0.1723  0.3077 -0.5850
 1526TIP3    H1 4523   3.089   5.727   1.809 -0.8887  1.0559 -0.5542
 1526TIP3    H2 4524   2.994   5.613   1.779  2.5020 -1.9686 -0.3058
 1527TIP3   OH2 4525   1.905   7.103   0.995 -0.0802 -0.7206 -0.3960
 1527TIP3    H1 4526   1.938   7.085   0.907 -0.0022  0.4225 -0.6127
 1527TIP3    H2 4527   1.970   7.162   1.033 -0.2349 -1.0249  0.3465
 1528TIP3   OH2 4528   1.615   2.291   5.369  0.4436 -0.1686 -0.4756
 1528TIP3    H1 4529   1.645   2.229   5.435 -0.4668 -0.8597 -0.7082
 1528TIP3    H2 4530   1.565   2.238   5.307 -0.3458  0.7975 -0.6783
 1529TIP3   OH2 4531   4.849   3.063   2.347 -0.1840  0.0443 -0.5005
 1529TIP3    H1 4532   4.833   3.021   2.262  1.0330 -1.1690 -0.1379
 1529TIP3    H2 4533   4.927   3.117   2.333 -0.8474  0.9950 -0.5503
 1530TIP3   OH2 4534   8.217   0.068   6.364  0.4633  0.3758  0.2763
 1530TIP3    H1 4535   8.222   0.072   6.269 -0.4963 -2.5519  0.0390
 1530TIP3    H2 4536   8.303   0.036   6.391  0.2818 -0.1054  0.2846
 1531TIP3   OH2 4537   2.903   4.387   0.096  0.4326  0.1613 -0.6694
 1531TIP3    H1 4538   2.818   4.376   0.054  1.4924 -1.0060 -2.5967
 1531TIP3    H2 4539   2.964   4.337   0.041  1.9976 -0.9471  1.9447
 1532TIP3   OH2 4540   3.984   3.801   0.407  0.4896  0.7421  0.3403
 1532TIP3    H1 4541   4.022   3.775   0.323  2.4122  1.2911  1.0209
 1532TIP3    H2 4542   4.052   3.853   0.449 -0.5422  0.6509  2.1609
 1533TIP3   OH2 4543   4.125   2.695   0.275 -0.0696 -0.0361  0.2166
 1533TIP3    H1 4544   4.212   2.657   0.266  1.0305  2.1043  1.4981
 1533TIP3    H2 4545   4.125   2.737   0.361 -2.5476 -0.4310  0.4527
 1534TIP3   OH2 4546   2.305   3.012   6.476  0.2654  0.0692 -0.0006
 1534TIP3    H1 4547   2.248   3.054   6.412 -2.8528  0.6205  3.0019
 1534TIP3    H2 4548   2.278   2.921   6.476  0.8973 -0.1204 -0.1197
 1535TIP3   OH2 4549   4.049   3.932   0.709 -0.6020 -0.0797  0.4387
 1535TIP3    H1 4550   4.003   3.860   0.750  1.4426 -1.8283 -0.2695
 1535TIP3    H2 4551   4.105   3.891   0.643  0.5485  2.1357 -0.0233
 1536TIP3   OH2 4552   1.467   2.483   6.494  0.2175  0.3180  0.1105
 1536TIP3    H1 4553   1.389   2.474   6.548  1.0130 -3.2872  0.7644
 1536TIP3    H2 4554   1.451   2.424   6.420  1.5482  0.9659 -0.7082
 1537TIP3   OH2 4555   2.703   4.135   0.820 -0.0913  0.1727 -0.2976
 1537TIP3    H1 4556   2.643   4.143   0.746  0.2811 -0.6164 -0.6914
 1537TIP3    H2 4557   2.694   4.218   0.867 -1.7441 -0.0594 -0.1580
 1538TIP3   OH2 4558   2.673   5.095   0.513  0.3885  0.1031 -0.5662
 1538TIP3    H1 4559   2.682   5.133   0.601 -1.0487 -1.8524  0.4760
 1538TIP3    H2 4560   2.762   5.071   0.488  1.0656  2.3804 -0.4681
 1539TIP3   OH2 4561   3.036   5.848   1.470 -0.0257 -0.4419  0.1219
 1539TIP3    H1 4562   2.958   5.808   1.430  0.8665 -1.0390 -1.0534
 1539TIP3    H2 4563   3.078   5.895   1.398 -0.1704  1.2539  1.1230
 1540TIP3   OH2 4564   2.828   4.549   0.558  0.1728  0.9131  0.1128
 1540TIP3    H1 4565   2.897   4.580   0.500  0.7287  2.6022  1.6332
 1540TIP3    H2 4566   2.747   4.575   0.514  0.6038  2.8870  0.4346
 1541TIP3   OH2 4567   1.910   5.810   2.988 -0.6874 -0.2281  0.0714
 1541TIP3    H1 4568   1.989   5.821   2.936  0.0621 -1.8268  0.8293
 1541TIP3    H2 4569   1.914   5.880   3.053  0.7823 -1.0454  0.9033
 1542TIP3   OH2 4570   1.570   7.247   1.316 -0.5225 -0.0780 -0.5283
 1542TIP3    H1 4571   1.541   7.232   1.406 -0.2516  1.3643 -0.1869
 1542TIP3    H2 4572   1.662   7.220   1.315 -1.1458 -2.2155 -0.9538
 1543TIP3   OH2 4573   3.537   7.163   2.612 -0.0014  0.0510 -0.5751
 1543TIP3    H1 4574   3.463   7.223   2.611  0.7237  1.0633  1.8670
 1543TIP3    H2 4575   3.506   7.087   2.661  0.2141 -0.0266 -0.5587
 1544TIP3   OH2 4576   4.385   6.951   2.556 -0.2105  0.1990  0.4468
 1544TIP3    H1 4577   4.368   6.857   2.563 -1.5758  0.5455  2.2235
 1544TIP3    H2 4578   4.406   6.965   2.464 -2.0315 -1.5342 -0.2599
 1545TIP3   OH2 4579   3.828   4.227   0.739  0.2484 -0.1721 -0.4069
 1545TIP3    H1 4580   3.781   4.148   0.767  0.7521 -0.5818 -0.6919
 1545TIP3    H2 4581   3.917   4.196   0.721  0.7165  0.6520  0.4438
 1546TIP3   OH2 4582   2.417   6.885   2.238 -1.0556 -0.3089 -0.8339
 1546TIP3    H1 4583   2.493   6.831   2.260 -2.5467 -2.7538 -1.6271
 1546TIP3    H2 4584   2.454   6.957   2.186  1.0825  0.0951  1.1205
 1547TIP3   OH2 4585   1.701   4.756   2.576 -0.2005 -0.0043 -0.8228
 1547TIP3    H1 4586   1.733   4.713   2.498 -0.1258  0.1170 -0.8591
 1547TIP3    H2 4587   1.775   4.755   2.637 -0.8031 -1.7275 -0.0753
 1548TIP3   OH2 4588   0.851   1.258   5.677  0.3397  0.1776  0.5925
 1548TIP3    H1 4589   0.872   1.240   5.769  1.1049  0.6262  0.5157
 1548TIP3    H2 4590   0.771   1.310   5.680  0.1658 -0.1121  0.9860
 1549TIP3   OH2 4591   4.562   6.637   2.810 -0.3470 -0.8879  0.0768
 1549TIP3    H1 4592   4.597   6.648   2.722 -0.9358 -0.0897 -0.0631
 1549TIP3    H2 4593   4.498   6.567   2.802  0.2362 -1.4192  0.0521
 1550TIP3   OH2 4594   2.637   4.789   2.792 -0.1803 -0.0349 -0.5482
 1550TIP3    H1 4595   2.546   4.764   2.776 -0.5580  1.7058 -1.3519
 1550TIP3    H2 4596   2.637   4.884   2.779  1.4213  0.1928  1.0524
 1551TIP3   OH2 4597   3.448   6.998   1.381 -0.0480  0.3142  0.2841
 1551TIP3    H1 4598   3.379   7.017   1.445 -0.4653 -1.2304  0.3245
 1551TIP3    H2 4599   3.525   6.979   1.435 -0.3368 -0.7479  0.3356
 1552TIP3   OH2 4600   1.098   1.235   6.596 -0.0451  0.4164 -0.3700
 1552TIP3    H1 4601   1.005   1.234   6.575 -0.4406  1.8133  1.1992
 1552TIP3    H2 4602   1.101   1.232   6.691  1.5167  0.9353 -0.3912
 1553TIP3   OH2 4603   3.487   4.695   2.495 -0.1115 -0.5622 -0.2241
 1553TIP3    H1 4604   3.558   4.752   2.526  0.0927 -1.8955  1.8798
 1553TIP3    H2 4605   3.530   4.610   2.482 -0.8543 -0.7858 -1.2947
 1554TIP3   OH2 4606   3.059   6.322   1.337 -0.2952 -0.1459  0.0279
 1554TIP3    H1 4607   3.080   6.396   1.395  0.3249 -0.1279 -0.2226
 1554TIP3    H2 4608   3.093   6.347   1.252  2.2805 -1.8254  0.4979
 1555TIP3   OH2 4609   3.848   6.649   1.014 -0.1441  0.3213 -0.4030
 1555TIP3    H1 4610   3.906   6.689   0.949 -1.0410 -0.5437 -1.7593
 1555TIP3    H2 4611   3.838   6.558   0.985 -0.6016 -0.0623  0.9170
 1556TIP3   OH2 4612   2.513   5.929   3.035  0.3316 -0.6015  0.0630
 1556TIP3    H1 4613   2.588   5.978   3.004 -0.6274  0.9978  0.2423
 1556TIP3    H2 4614   2.501   5.859   2.970 -0.6465  1.6916 -2.2987
 1557TIP3   OH2 4615   1.612   5.288   0.089  0.0917 -0.0573  0.3472
 1557TIP3    H1 4616   1.638   5.204   0.127 -1.5520 -0.1796  1.2612
 1557TIP3    H2 4617   1.534   5.313   0.138  0.1510  1.6711 -0.3939
 1558TIP3   OH2 4618   4.676   2.746   2.314  0.5630 -0.2402 -0.5484
 1558TIP3    H1 4619   4.593   2.790   2.296  0.5841 -0.7975 -2.0861
 1558TIP3    H2 4620   4.738   2.785   2.252  1.0473 -1.0171 -0.5616
 1559TIP3   OH2 4621   6.027   4.235   2.174  0.5063 -0.5971  0.2598
 1559TIP3    H1 4622   6.079   4.246   2.253  0.5925  1.6145 -0.0563
 1559TIP3    H2 4623   6.090   4.244   2.102  0.1316 -0.6318 -0.0786
 1560TIP3   OH2 4624   3.008   5.334   2.045 -0.3016 -0.0969 -0.1835
 1560TIP3    H1 4625   3.082   5.371   1.997  0.6270 -1.1562  0.4230
 1560TIP3    H2 4626   2.942   5.404   2.044  0.6005  0.7614 -0.9367
 1561TIP3   OH2 4627   3.662   5.418   1.491 -0.0868  0.2569  0.1499
 1561TIP3    H1 4628   3.648   5.391   1.582 -0.4421  0.1269  0.0590
 1561TIP3    H2 4629   3.749   5.386   1.469  0.0869  0.4835  0.5177
 1562TIP3   OH2 4630   2.523   4.793   2.493  0.5100  0.1776  0.1334
 1562TIP3    H1 4631   2.497   4.751   2.411  0.7041  0.6570 -0.1780
 1562TIP3    H2 4632   2.595   4.851   2.469 -1.4611  2.6974  0.0459
 1563TIP3   OH2 4633   1.868   4.952   3.237  0.5799 -0.6045  0.0875
 1563TIP3    H1 4634   1.953   4.914   3.215  0.5746 -1.1675  1.0216
 1563TIP3    H2 4635   1.883   5.046   3.239  1.6313 -0.7934  2.0947
 1564TIP3   OH2 4636   0.889   2.269   5.760 -0.3438  0.5357 -0.1700
 1564TIP3    H1 4637   0.833   2.346   5.749  0.0247  0.7924 -0.2750
 1564TIP3    H2 4638   0.828   2.196   5.765 -0.7517  0.9410  0.9545
 1565TIP3   OH2 4639   0.504   1.485   6.496 -0.2438  0.0374  0.5207
 1565TIP3    H1 4640   0.555   1.459   6.420  0.8951  1.9544  0.5874
 1565TIP3    H2 4641   0.417   1.450   6.480  0.3253 -0.7313 -1.0100
 1566TIP3   OH2 4642   5.130   6.503   2.608 -0.2580 -0.0098 -0.2120
 1566TIP3    H1 4643   5.036   6.516   2.599 -0.7358 -1.4432  2.3983
 1566TIP3    H2 4644   5.144   6.411   2.583 -0.2256 -1.1179  3.6511
 1567TIP3   OH2 4645   5.892   7.388   5.664  0.2555 -0.2213  0.1300
 1567TIP3    H1 4646   5.868   7.479   5.679  1.8799  0.4889 -1.3311
 1567TIP3    H2 4647   5.985   7.392   5.640  0.2323 -2.2123 -0.3613
 1568TIP3   OH2 4648   4.585   6.469   1.324  0.7568  0.1219  0.2881
 1568TIP3    H1 4649   4.560   6.446   1.414  0.4522  1.0993  0.4594
 1568TIP3    H2 4650   4.664   6.522   1.334  2.5875 -2.4158 -0.2200
 1569TIP3   OH2 4651   0.914   0.175   6.865 -0.1557 -0.0470 -0.2150
 1569TIP3    H1 4652   0.877   0.125   6.793  0.8105 -1.9499  0.5766
 1569TIP3    H2 4653   0.865   0.257   6.865 -1.4888 -0.8217 -1.7905
 1570TIP3   OH2 4654   3.517   3.648   1.332 -0.2564  0.1453  0.1431
 1570TIP3    H1 4655   3.471   3.567   1.308  1.8342 -1.0252 -0.0351
 1570TIP3    H2 4656   3.608   3.621   1.343  0.3992  2.4193  0.4834
 1571TIP3   OH2 4657   4.651   4.842   0.650  0.1258  0.0252 -0.2121
 1571TIP3    H1 4658   4.557   4.853   0.657 -0.0089 -1.0126 -0.3985
 1571TIP3    H2 4659   4.683   4.928   0.622 -0.8654  0.0980 -1.1433
 1572TIP3   OH2 4660   2.799   4.647   1.665  0.4544 -0.3443 -0.3343
 1572TIP3    H1 4661   2.848   4.572   1.699  1.6692  1.3331  1.7799
 1572TIP3    H2 4662   2.841   4.723   1.706 -2.1540  1.3442 -0.6901
 1573TIP3   OH2 4663   3.867   6.130   0.262  0.1946 -0.4596  0.0488
 1573TIP3    H1 4664   3.852   6.115   0.168 -0.3641  0.6673 -0.0453
 1573TIP3    H2 4665   3.959   6.155   0.268 -0.2100  1.2033 -0.4200
 1574TIP3   OH2 4666   4.385   4.647   0.475  0.3110 -0.0662  0.0537
 1574TIP3    H1 4667   4.429   4.647   0.390  0.9087  0.1238  0.3594
 1574TIP3    H2 4668   4.359   4.738   0.490 -1.3210 -0.3937 -0.7003
 1575TIP3   OH2 4669   2.910   3.092   0.745  0.0820 -0.6455 -0.0017
 1575TIP3    H1 4670   2.852   3.147   0.691 -0.1844 -0.8662  0.0540
 1575TIP3    H2 4671   2.989   3.081   0.692 -0.3338 -1.1827 -0.5192
 1576TIP3   OH2 4672   1.844   4.893   0.511 -0.2466 -0.1985 -0.1513
 1576TIP3    H1 4673   1.935   4.920   0.523 -0.0171 -0.4961 -1.1988
 1576TIP3    H2 4674   1.844   4.843   0.429 -0.7831 -2.9275  1.4594
 1577TIP3   OH2 4675   4.820   3.139   1.789 -0.5575 -0.6102  0.2421
 1577TIP3    H1 4676   4.884   3.142   1.718 -1.1520 -1.9201 -0.3677
 1577TIP3    H2 4677   4.756   3.206   1.767  0.0771  0.0361  0.3493
 1578TIP3   OH2 4678   5.338   4.627   2.333  0.4661 -0.6871  0.2704
 1578TIP3    H1 4679   5.347   4.640   2.239 -0.7402 -0.5382  0.1630
 1578TIP3    H2 4680   5.403   4.561   2.355  0.2617 -1.2467 -0.7911
 1579TIP3   OH2 4681   3.827   4.566   0.941 -0.2947  0.5567  0.3619
 1579TIP3    H1 4682   3.907   4.525   0.906  0.4636  0.8340  1.7269
 1579TIP3    H2 4683   3.761   4.497   0.938  0.7297 -0.5158  1.7978
 1580TIP3   OH2 4684   1.901   2.599   6.705  0.0875 -0.2713 -0.4549
 1580TIP3    H1 4685   1.823   2.543   6.702 -0.3775  0.3636 -0.3052
 1580TIP3    H2 4686   1.909   2.634   6.616  0.4315 -0.6419 -0.5722
 1581TIP3   OH2 4687   1.722   3.644   6.278 -0.2640  0.5102 -0.6184
 1581TIP3    H1 4688   1.712   3.728   6.323  1.1503  0.6202 -0.4645
 1581TIP3    H2 4689   1.816   3.639   6.258 -0.5529 -0.4376 -1.7968
 1582TIP3   OH2 4690   1.331   4.208   1.918 -0.2448  0.1739  0.2162
 1582TIP3    H1 4691   1.356   4.249   2.000 -0.1437 -2.5577  1.6190
 1582TIP3    H2 4692   1.259   4.261   1.885 -1.2208  0.5233  2.8033
 1583TIP3   OH2 4693   3.404   6.398   1.371 -0.3518 -0.7180  0.2876
 1583TIP3    H1 4694   3.363   6.451   1.303 -1.2659 -1.5984  0.1322
 1583TIP3    H2 4695   3.330   6.357   1.416  0.3285 -1.5449  0.6554
 1584TIP3   OH2 4696   7.134   1.263   4.925 -0.4137 -0.1947  0.3457
 1584TIP3    H1 4697   7.202   1.328   4.906  0.2358 -0.8706  0.3197
 1584TIP3    H2 4698   7.059   1.290   4.872 -0.3570  0.8833  0.8153
 1585TIP3   OH2 4699   1.359   4.647   2.216  0.2658  0.2029 -0.4231
 1585TIP3    H1 4700   1.310   4.664   2.296 -0.1360 -0.2220 -0.5766
 1585TIP3    H2 4701   1.427   4.715   2.214 -0.1239  0.6048 -0.0531
 1586TIP3   OH2 4702   6.380   3.127   6.201 -0.1560 -0.0762  0.3606
 1586TIP3    H1 4703   6.427   3.071   6.263 -1.9861 -0.6211  1.2792
 1586TIP3    H2 4704   6.402   3.091   6.115  1.2215 -0.2222  0.7605
 1587TIP3   OH2 4705   4.288   5.747   1.711 -0.7937 -0.1176 -0.2857
 1587TIP3    H1 4706   4.296   5.665   1.662  0.9829  0.8091 -1.5942
 1587TIP3    H2 4707   4.341   5.733   1.789  1.1478  0.4791 -1.4775
 1588TIP3   OH2 4708   8.464   2.657   5.920 -0.3871  0.1607 -0.0417
 1588TIP3    H1 4709   8.442   2.635   5.829 -0.6151 -0.2786  0.1169
 1588TIP3    H2 4710   8.547   2.703   5.913  0.3604 -1.2116 -0.3441
 1589TIP3   OH2 4711   1.778   6.433   0.678  0.0970  0.2476 -0.2470
 1589TIP3    H1 4712   1.836   6.431   0.602 -0.0006  0.0817 -0.3163
 1589TIP3    H2 4713   1.739   6.345   0.681 -1.5624  0.9234 -1.2821
 1590TIP3   OH2 4714   4.629   4.177   1.419  0.6335  0.7769 -0.0097
 1590TIP3    H1 4715   4.634   4.256   1.472  0.6551 -0.6730  2.2510
 1590TIP3    H2 4716   4.660   4.107   1.477 -0.7223 -1.0972 -1.4451
 1591TIP3   OH2 4717   4.334   4.482   1.207 -0.8954  0.4945 -0.3218
 1591TIP3    H1 4718   4.242   4.504   1.214 -0.8839  0.4224  0.0603
 1591TIP3    H2 4719   4.343   4.441   1.121 -1.3167  0.0138 -0.1339
 1592TIP3   OH2 4720   3.115   5.726   0.604  0.1759 -0.0585  0.3351
 1592TIP3    H1 4721   3.103   5.816   0.634  0.6143  0.3634 -0.7385
 1592TIP3    H2 4722   3.116   5.732   0.508 -1.9914 -1.4796  0.1857
 1593TIP3   OH2 4723   2.866   5.563   2.091 -0.3166 -0.3558  0.0494
 1593TIP3    H1 4724   2.872   5.648   2.046  0.5767  0.2022  1.1933
 1593TIP3    H2 4725   2.814   5.508   2.032  0.5152  0.4746 -1.4808
 1594TIP3   OH2 4726   4.471   6.272   2.240  0.3489 -0.1745  0.5875
 1594TIP3    H1 4727   4.388   6.225   2.231 -1.2399  2.6787 -0.0036
 1594TIP3    H2 4728   4.479   6.289   2.334  0.0914 -0.1435  0.6040
 1595TIP3   OH2 4729   2.212   5.424   0.531 -0.3363  0.0258  0.8216
 1595TIP3    H1 4730   2.181   5.379   0.610 -0.8626 -1.5948 -0.2785
 1595TIP3    H2 4731   2.298   5.385   0.514 -0.1997  0.4097  0.6291
 1596TIP3   OH2 4732   0.254   5.872   1.838  0.1956  0.2615 -0.2598
 1596TIP3    H1 4733   0.339   5.850   1.874  0.6705  0.8383 -1.0095
 1596TIP3    H2 4734   0.217   5.788   1.809  0.9630  0.1378 -0.9008
 1597TIP3   OH2 4735   2.507   4.882   0.629  0.1999 -0.0207 -0.8839
 1597TIP3    H1 4736   2.579   4.842   0.679 -1.2711 -1.0117  0.5284
 1597TIP3    H2 4737   2.547   4.954   0.582  1.8449  0.3779  1.0447
 1598TIP3   OH2 4738   7.188   0.581   6.727  0.1437 -0.3991 -0.0994
 1598TIP3    H1 4739   7.161   0.670   6.751 -1.0221 -0.7411 -0.1154
 1598TIP3    H2 4740   7.117   0.525   6.757  0.5048 -1.2479 -0.7931
 1599TIP3   OH2 4741   1.660   4.152   2.173 -0.7448 -0.4215  0.2982
 1599TIP3    H1 4742   1.622   4.136   2.086  0.3192 -0.1181 -0.2297
 1599TIP3    H2 4743   1.701   4.069   2.197  1.7873  0.4234 -0.9346
 1600TIP3   OH2 4744   5.028   3.950   0.697  0.5420 -0.6825 -0.3034
 1600TIP3    H1 4745   5.005   4.040   0.678  2.5846  0.0458  0.5461
 1600TIP3    H2 4746   5.118   3.954   0.729  0.1279 -2.8183  1.2691
 1601TIP3   OH2 4747   5.502   4.354   0.251 -0.0571  0.3348  0.4888
 1601TIP3    H1 4748   5.441   4.357   0.177  2.2860  1.8866 -1.4898
 1601TIP3    H2 4749   5.484   4.433   0.301  2.8014  2.9586 -2.3122
 1602TIP3   OH2 4750   2.552   5.295   0.236  0.0994  0.0087 -0.2955
 1602TIP3    H1 4751   2.579   5.217   0.187  1.5316 -0.1361  0.6841
 1602TIP3    H2 4752   2.622   5.359   0.220 -0.6279  0.8069 -0.3786
 1603TIP3   OH2 4753   2.433   1.045   0.034 -0.0847  0.1934  0.4003
 1603TIP3    H1 4754   2.518   1.058  -0.009 -1.4560  2.0075 -1.8609
 1603TIP3    H2 4755   2.414   0.952   0.022  0.5138  0.2579 -1.1534
 1604TIP3   OH2 4756   2.485   3.702   1.042  0.5797  0.2341  0.5590
 1604TIP3    H1 4757   2.412   3.640   1.047  0.7439  0.0798  1.0401
 1604TIP3    H2 4758   2.459   3.763   0.973  0.9843 -1.0961 -0.7975
 1605TIP3   OH2 4759   2.839   5.278   1.359 -0.1861 -0.1914 -0.3108
 1605TIP3    H1 4760   2.892   5.346   1.317  0.0984  0.4673  1.1195
 1605TIP3    H2 4761   2.765   5.325   1.398 -0.5173 -0.8220 -0.1661
 1606TIP3   OH2 4762   3.745   3.556   1.486 -0.0126  0.3784 -0.2275
 1606TIP3    H1 4763   3.700   3.478   1.521 -0.2708  0.7188  0.2017
 1606TIP3    H2 4764   3.832   3.554   1.526  1.2972 -1.6858 -3.0104
 1607TIP3   OH2 4765   0.291   1.424   5.212  0.4580  1.0409 -0.2770
 1607TIP3    H1 4766   0.328   1.344   5.249  0.7850  0.8588 -0.9842
 1607TIP3    H2 4767   0.364   1.486   5.212  1.2327  0.2131 -3.0989
 1608TIP3   OH2 4768   5.839   7.141   5.205  0.9684 -0.4355 -0.0790
 1608TIP3    H1 4769   5.748   7.113   5.207  1.0749 -0.6575  2.9039
 1608TIP3    H2 4770   5.840   7.225   5.250  2.2235 -0.4089 -0.1237
 1609TIP3   OH2 4771   2.172   4.520   4.182 -0.5173  0.0795  0.0969
 1609TIP3    H1 4772   2.179   4.486   4.092 -0.9726 -0.4762  0.2679
 1609TIP3    H2 4773   2.078   4.525   4.198 -0.4460  0.8792  0.2875
 1610TIP3   OH2 4774   2.596   5.788   0.722 -0.4854 -0.7743  0.0019
 1610TIP3    H1 4775   2.544   5.866   0.700 -0.0206 -0.8448 -1.4580
 1610TIP3    H2 4776   2.647   5.813   0.798 -1.1617 -0.0151  0.2086
 1611TIP3   OH2 4777   4.796   3.300   4.092  0.5378 -0.1787  0.0160
 1611TIP3    H1 4778   4.836   3.214   4.096  0.5127 -0.1834  0.1817
 1611TIP3    H2 4779   4.849   3.354   4.151 -0.2154 -0.4021  0.9147
 1612TIP3   OH2 4780   2.141   4.750   2.569 -0.1265  0.0497  0.5932
 1612TIP3    H1 4781   2.112   4.841   2.572 -0.0433  0.0385  1.7614
 1612TIP3    H2 4782   2.170   4.737   2.478 -0.5379  1.0545  0.3137
 1613TIP3   OH2 4783   8.083   1.352   4.108  0.1875  0.0510 -0.2185
 1613TIP3    H1 4784   8.087   1.409   4.186  0.1183 -0.5820  0.2525
 1613TIP3    H2 4785   8.014   1.391   4.054  0.7063  0.8894 -0.2757
 1614TIP3   OH2 4786   3.715   5.798   0.098 -0.2201 -0.1634 -0.5587
 1614TIP3    H1 4787   3.740   5.873   0.044  1.4584 -0.1806  0.1670
 1614TIP3    H2 4788   3.631   5.824   0.137 -1.3150 -0.0247 -2.8885
 1615TIP3   OH2 4789   3.167   4.532   1.731 -0.1986  0.2292 -0.0642
 1615TIP3    H1 4790   3.200   4.487   1.809  1.2833  1.2330 -0.0840
 1615TIP3    H2 4791   3.100   4.592   1.765  0.5961  0.8217  0.4701
 1616TIP3   OH2 4792   5.938   6.767   4.956  0.5699  0.3569 -0.6091
 1616TIP3    H1 4793   5.863   6.770   4.896 -1.1045 -0.9297  1.3681
 1616TIP3    H2 4794   5.976   6.855   4.952 -1.3527  1.1788 -1.2589
 1617TIP3   OH2 4795   5.966   4.584   0.477  0.0435 -0.0395  0.2602
 1617TIP3    H1 4796   5.909   4.525   0.429  1.0148  0.3370 -1.4109
 1617TIP3    H2 4797   5.916   4.665   0.485 -0.8611 -0.7189  1.5866
 1618TIP3   OH2 4798   5.954   5.679   0.858 -0.0153  0.0294  0.2286
 1618TIP3    H1 4799   5.977   5.749   0.919 -0.7533 -0.1791  0.7539
 1618TIP3    H2 4800   6.005   5.604   0.887  1.0364  0.4275 -0.5412
 1619TIP3   OH2 4801   0.137   1.591   6.390 -0.2205 -0.3281  0.1810
 1619TIP3    H1 4802   0.172   1.524   6.449 -1.1668  0.7775  2.0667
 1619TIP3    H2 4803   0.060   1.550   6.351 -0.9119 -0.3087  1.4760
 1620TIP3   OH2 4804   3.021   4.394   1.174 -0.3160  0.7106  0.2353
 1620TIP3    H1 4805   2.996   4.310   1.134  0.3188 -0.6805  2.6719
 1620TIP3    H2 4806   3.000   4.384   1.267  1.8242  2.4362  0.9594
 1621TIP3   OH2 4807   1.663   1.433   6.379  0.7892 -0.0633 -1.0578
 1621TIP3    H1 4808   1.610   1.456   6.302  0.5561  1.6514 -0.3934
 1621TIP3    H2 4809   1.680   1.339   6.368 -0.9045 -0.2695 -2.1919
 1622TIP3   OH2 4810   2.552   5.152   0.828  0.0074  0.2324 -0.0141
 1622TIP3    H1 4811   2.529   5.077   0.881 -0.5160  1.2523  1.2312
 1622TIP3    H2 4812   2.473   5.206   0.826  0.2795  0.6033 -1.1354
 1623TIP3   OH2 4813   3.313   0.756   6.651 -0.5021  0.0928 -0.3068
 1623TIP3    H1 4814   3.400   0.763   6.613 -2.1642  1.7687 -4.0919
 1623TIP3    H2 4815   3.314   0.674   6.699  2.9001 -0.2846 -0.9220
 1624TIP3   OH2 4816   0.354   3.296   4.934 -0.0394 -0.1681  0.1803
 1624TIP3    H1 4817   0.416   3.233   4.973 -0.7996 -0.2388  1.2992
 1624TIP3    H2 4818   0.393   3.381   4.950 -0.7515 -0.1395  1.8894
 1625TIP3   OH2 4819   2.875   1.195   6.803 -0.4398 -0.2532  0.4688
 1625TIP3    H1 4820   2.850   1.138   6.876 -2.2115 -0.8353 -0.5679
 1625TIP3    H2 4821   2.794   1.236   6.775  0.3578  0.5981 -0.6552
 1626TIP3   OH2 4822   3.282   0.917   6.301 -0.0019  0.1619 -0.0257
 1626TIP3    H1 4823   3.281   0.998   6.250  0.6049  1.7584  2.4158
 1626TIP3    H2 4824   3.275   0.946   6.392  0.2183 -2.5445  0.8959
 1627TIP3   OH2 4825   3.554   5.855   2.408  0.0014 -0.3047  0.1546
 1627TIP3    H1 4826   3.589   5.788   2.349 -0.1017  0.4263 -0.7548
 1627TIP3    H2 4827   3.632   5.893   2.450  0.2160  0.2814 -0.7374
 1628TIP3   OH2 4828   2.776   5.070   1.807  0.4341  0.4097  0.6283
 1628TIP3    H1 4829   2.746   5.161   1.803  2.4617  1.0756 -0.2809
 1628TIP3    H2 4830   2.806   5.051   1.718 -0.0155 -1.1807  0.7964
 1629TIP3   OH2 4831   1.740   0.871   6.830  0.0752  0.9977 -0.0915
 1629TIP3    H1 4832   1.652   0.907   6.823 -0.9104 -1.4141 -0.4977
 1629TIP3    H2 4833   1.728   0.776   6.829  2.5241  0.6020  1.9184
 1630TIP3   OH2 4834   2.127   1.179   6.007 -0.3396 -0.2333 -0.7460
 1630TIP3    H1 4835   2.169   1.166   5.922 -0.1856 -2.5263 -0.3540
 1630TIP3    H2 4836   2.195   1.157   6.071 -0.4286  1.5637 -0.0140
 1631TIP3   OH2 4837   4.277   6.443   0.136 -0.3705  0.0515  0.2936
 1631TIP3    H1 4838   4.250   6.531   0.109 -0.3936 -0.0016  0.1428
 1631TIP3    H2 4839   4.317   6.456   0.222 -1.0865  0.0959  0.6187
 1632TIP3   OH2 4840   4.701   5.724   1.089  0.1269 -0.3507 -0.2827
 1632TIP3    H1 4841   4.613   5.704   1.119  0.7579 -1.0031  1.1876
 1632TIP3    H2 4842   4.712   5.817   1.105 -0.0218 -0.4269  0.2732
 1633TIP3   OH2 4843   3.442   7.767   0.336 -0.3897  0.0973 -0.2434
 1633TIP3    H1 4844   3.374   7.816   0.382  0.6571  0.5364  0.8565
 1633TIP3    H2 4845   3.458   7.690   0.391 -1.4549 -1.1002 -1.5581
 1634TIP3   OH2 4846   1.295   0.987   6.890 -0.1387  0.1528 -0.1668
 1634TIP3    H1 4847   1.319   1.040   6.814  1.4652  0.8695  0.8165
 1634TIP3    H2 4848   1.200   0.995   6.895  0.2273  4.9886  1.3866
 1635TIP3   OH2 4849   3.038   7.129   1.338 -0.0993  0.6180  0.0299
 1635TIP3    H1 4850   3.071   7.078   1.264 -1.2427  0.2247 -0.2192
 1635TIP3    H2 4851   3.048   7.071   1.413  1.6043  1.2315  0.2930
 1636TIP3   OH2 4852   4.898   4.521   0.876  0.2842 -0.0040 -0.0928
 1636TIP3    H1 4853   4.855   4.458   0.934 -1.0460  1.5247  0.6147
 1636TIP3    H2 4854   4.935   4.586   0.936 -1.5191  1.8542 -0.9774
 1637TIP3   OH2 4855   3.260   5.122   1.459 -0.0817  0.4694  0.1288
 1637TIP3    H1 4856   3.182   5.069   1.442  0.0193 -0.2857  1.9771
 1637TIP3    H2 4857   3.290   5.149   1.371 -1.0291 -1.2183 -0.7352
 1638TIP3   OH2 4858   0.383   2.001   6.393  0.3414 -0.2025 -0.2411
 1638TIP3    H1 4859   0.306   1.950   6.416 -0.5352  1.0161 -0.4413
 1638TIP3    H2 4860   0.412   2.040   6.476  0.5536 -0.3866 -0.2259
 1639TIP3   OH2 4861   7.132   2.188   1.647  0.3556  0.3697 -0.2195
 1639TIP3    H1 4862   7.086   2.141   1.716  0.2179 -0.6476 -0.9849
 1639TIP3    H2 4863   7.063   2.212   1.584  0.7698 -0.5671 -1.0352
 1640TIP3   OH2 4864   2.712   2.648   6.080 -0.3863  0.3440 -0.0755
 1640TIP3    H1 4865   2.807   2.642   6.071 -0.6074 -2.0826 -1.2398
 1640TIP3    H2 4866   2.697   2.658   6.174  1.0320  1.3429  0.0625
 1641TIP3   OH2 4867   3.138   5.455   1.533  0.5197  0.0393 -0.0749
 1641TIP3    H1 4868   3.129   5.360   1.544  0.3104  0.0363 -0.2903
 1641TIP3    H2 4869   3.232   5.468   1.522  0.3702 -0.3364 -1.9338
 1642TIP3   OH2 4870   2.874   5.543   2.624 -0.3695 -0.4319  0.6470
 1642TIP3    H1 4871   2.959   5.567   2.587 -0.0900 -0.2339  1.4103
 1642TIP3    H2 4872   2.810   5.580   2.564  0.0836 -1.3449 -0.4232
 1643TIP3   OH2 4873   7.926   0.843   0.156 -0.4272  0.2108  0.1162
 1643TIP3    H1 4874   7.914   0.770   0.096  2.0057 -0.2707  0.1368
 1643TIP3    H2 4875   7.905   0.807   0.243 -0.3185 -0.1409 -0.0048
 1644TIP3   OH2 4876   2.062   5.103   0.471 -0.4853 -0.0186  0.0166
 1644TIP3    H1 4877   2.073   5.154   0.391  0.0646 -3.2273 -2.0672
 1644TIP3    H2 4878   2.017   5.162   0.532 -0.8084  2.5356 -2.5958
 1645TIP3   OH2 4879   4.874   6.077   0.120  0.3501  0.1289  0.2329
 1645TIP3    H1 4880   4.935   6.151   0.114 -1.1061  1.1885 -1.8692
 1645TIP3    H2 4881   4.833   6.072   0.034 -2.2504 -0.8057  1.4778
 1646TIP3   OH2 4882   3.604   4.273   2.132  0.0584  0.4095 -0.4969
 1646TIP3    H1 4883   3.629   4.365   2.116  0.1825  0.7033  1.3058
 1646TIP3    H2 4884   3.622   4.259   2.225 -0.9520 -1.1417 -0.5178
 1647TIP3   OH2 4885   3.892   6.309   1.840  0.0179  0.2812  0.2947
 1647TIP3    H1 4886   3.851   6.336   1.922 -0.0025  0.4945  0.2145
 1647TIP3    H2 4887   3.923   6.220   1.857  1.1243  0.7797  0.9420
 1648TIP3   OH2 4888   4.931   5.734   0.214 -0.0068 -0.2603 -0.3802
 1648TIP3    H1 4889   4.883   5.656   0.242 -0.1471  0.3551  1.1507
 1648TIP3    H2 4890   4.892   5.805   0.264 -0.6597  0.9946 -2.6044
 1649TIP3   OH2 4891   3.710   5.915   1.722 -0.5040 -0.6979  1.0864
 1649TIP3    H1 4892   3.778   5.946   1.661 -2.6878  0.2281 -0.9843
 1649TIP3    H2 4893   3.671   5.840   1.677 -0.7427 -1.3351  2.3429
 1650TIP3   OH2 4894   4.825   6.774   1.055  0.3876 -0.0788  0.2989
 1650TIP3    H1 4895   4.790   6.837   0.993  0.7518  0.8335  1.0071
 1650TIP3    H2 4896   4.914   6.805   1.073  1.4005 -2.0729 -1.0854
 1651TIP3   OH2 4897   3.758   5.008   0.665 -0.1161  0.0326  0.2772
 1651TIP3    H1 4898   3.736   5.099   0.684  0.8768  0.6364 -1.3602
 1651TIP3    H2 4899   3.845   4.996   0.703 -0.6559 -0.5182  1.3393
 1652TIP3   OH2 4900   6.490   6.188   1.729 -0.1644 -0.7702  0.1112
 1652TIP3    H1 4901   6.398   6.162   1.732 -0.0693 -0.9615  2.2062
 1652TIP3    H2 4902   6.534   6.115   1.686 -0.9863 -0.7102 -0.8433
 1653TIP3   OH2 4903   4.190   4.449   0.543 -0.3790 -0.5801  0.2831
 1653TIP3    H1 4904   4.253   4.497   0.491  0.2579 -2.6263 -0.8804
 1653TIP3    H2 4905   4.202   4.482   0.632  1.6557 -0.2827 -0.0891
 1654TIP3   OH2 4906   5.540   5.581   3.047  0.2575  0.1429 -0.3245
 1654TIP3    H1 4907   5.530   5.656   2.988  0.1289  0.1799 -0.2561
 1654TIP3    H2 4908   5.458   5.579   3.097 -0.0075 -0.4397 -0.7782
 1655TIP3   OH2 4909   3.531   0.803   6.932 -0.4079 -0.0661 -0.3530
 1655TIP3    H1 4910   3.507   0.715   6.901  0.4904 -0.5327  0.2577
 1655TIP3    H2 4911   3.509   0.861   6.859 -0.8388 -0.8221 -0.8294
 1656TIP3   OH2 4912   6.110   3.711   2.540  0.3580  0.1497  0.0826
 1656TIP3    H1 4913   6.124   3.759   2.459  0.8922  0.7372  0.5203
 1656TIP3    H2 4914   6.189   3.726   2.591 -0.6751  1.1780  1.4179
 1657TIP3   OH2 4915   5.222   4.667   2.061 -0.0312 -0.1417  0.6967
 1657TIP3    H1 4916   5.174   4.730   2.115  0.4215  1.0323 -0.2606
 1657TIP3    H2 4917   5.165   4.653   1.985  0.5943  0.3150  0.1470
 1658TIP3   OH2 4918   4.240   4.891   0.959  0.6655  0.1020 -0.0358
 1658TIP3    H1 4919   4.233   4.887   1.055 -0.3771  0.1477 -0.1020
 1658TIP3    H2 4920   4.159   4.852   0.928  0.5686  0.9751 -0.8955
 1659TIP3   OH2 4921   6.004   5.277   1.218  0.0936  0.4460  0.0160
 1659TIP3    H1 4922   6.027   5.226   1.141  1.9317  1.5008 -0.1721
 1659TIP3    H2 4923   6.084   5.326   1.239 -0.8054  1.2257  1.7540
 1660TIP3   OH2 4924   4.509   4.419   0.911  0.0019  0.2925 -0.2101
 1660TIP3    H1 4925   4.519   4.501   0.959 -0.1861  0.1689  0.0389
 1660TIP3    H2 4926   4.512   4.445   0.819  1.3413  0.4074 -0.1426
 1661TIP3   OH2 4927   5.784   4.787   0.357 -0.1562  0.0904  0.1043
 1661TIP3    H1 4928   5.857   4.842   0.386  0.9024 -1.0110 -0.3911
 1661TIP3    H2 4929   5.797   4.780   0.262 -1.9274  1.3213 -0.2446
 1662TIP3   OH2 4930   3.647   6.154   0.975 -0.4277 -0.2514  0.3471
 1662TIP3    H1 4931   3.668   6.174   0.884  0.7277  0.4557  0.7622
 1662TIP3    H2 4932   3.650   6.058   0.980  1.3945 -0.2166  0.0835
 1663TIP3   OH2 4933   7.162   4.766   0.222  0.0539 -0.4525  0.9021
 1663TIP3    H1 4934   7.255   4.772   0.201 -0.5104  0.4828 -1.5340
 1663TIP3    H2 4935   7.143   4.673   0.224  1.0401 -0.6400  1.3257
 1664TIP3   OH2 4936   5.071   3.474   0.788 -0.0122 -0.1132 -0.4073
 1664TIP3    H1 4937   5.016   3.486   0.710  1.5797 -0.1302 -1.5417
 1664TIP3    H2 4938   5.053   3.384   0.816 -0.3074 -0.2368 -0.9821
 1665TIP3   OH2 4939   2.366   2.485   6.117  0.1347  0.9462 -0.3157
 1665TIP3    H1 4940   2.355   2.395   6.148 -0.0380  0.6742 -1.1584
 1665TIP3    H2 4941   2.375   2.477   6.022 -0.2151  1.8500 -0.4305
 1666TIP3   OH2 4942   8.299   4.931   0.780  0.4103  0.2640  0.2720
 1666TIP3    H1 4943   8.205   4.915   0.782  0.6238 -0.9658  0.7957
 1666TIP3    H2 4944   8.313   4.982   0.701 -0.9036  1.7833  0.9884
 1667TIP3   OH2 4945   3.474   4.433   1.649  0.1458  0.3771  0.2592
 1667TIP3    H1 4946   3.442   4.507   1.699 -2.1764  0.1343 -0.7828
 1667TIP3    H2 4947   3.413   4.425   1.576  1.1930 -1.6716 -0.4463
 1668TIP3   OH2 4948   4.156   7.748   1.199  0.2618 -0.1998 -0.0050
 1668TIP3    H1 4949   4.190   7.661   1.176  0.6281 -0.3402  1.0611
 1668TIP3    H2 4950   4.091   7.731   1.268  1.3864  0.4992  1.2369
 1669TIP3   OH2 4951   5.122   4.161   0.031  0.0981  0.0465 -0.0073
 1669TIP3    H1 4952   5.176   4.239   0.043  0.3334  0.0462 -1.0255
 1669TIP3    H2 4953   5.088   4.169  -0.058  1.1576 -1.6671 -0.5818
 1670TIP3   OH2 4954   1.393   3.457   5.346  0.1051  0.1689 -0.3449
 1670TIP3    H1 4955   1.405   3.409   5.428  1.2795  1.8439  0.4870
 1670TIP3    H2 4956   1.353   3.393   5.286 -0.7709 -1.0653  1.5169
 1671TIP3   OH2 4957   3.619   3.421   0.923  0.2632 -0.0221 -0.0900
 1671TIP3    H1 4958   3.652   3.351   0.867  0.2859  0.2061 -0.3626
 1671TIP3    H2 4959   3.551   3.464   0.870  0.2200  0.1336  0.0932
 1672TIP3   OH2 4960   5.243   3.520   2.034  0.9052 -0.1658 -0.2656
 1672TIP3    H1 4961   5.288   3.538   1.951  1.1729  0.8873  0.1128
 1672TIP3    H2 4962   5.287   3.575   2.098 -0.2037  0.0565  0.3170
 1673TIP3   OH2 4963   3.560   5.682   1.932  0.0643  0.5824 -0.6326
 1673TIP3    H1 4964   3.486   5.664   1.874  0.3118  1.2520 -1.1755
 1673TIP3    H2 4965   3.634   5.635   1.893 -0.2296 -0.6476  0.2957
 1674TIP3   OH2 4966   5.298   3.825   2.385  0.5285 -0.5388  0.1269
 1674TIP3    H1 4967   5.301   3.866   2.471 -2.3728  0.2986 -0.1120
 1674TIP3    H2 4968   5.222   3.766   2.389  0.6172 -0.8132 -1.7056
 1675TIP3   OH2 4969   5.015   0.807   5.638  0.1411 -0.0405 -0.4518
 1675TIP3    H1 4970   4.957   0.743   5.679 -1.0514  1.5564  0.4182
 1675TIP3    H2 4971   4.958   0.856   5.578  0.6384  1.3541  0.1881
 1676TIP3   OH2 4972   2.646   5.489   1.430  0.6992  0.6638 -0.3511
 1676TIP3    H1 4973   2.698   5.570   1.425 -0.1152  1.1212 -1.6671
 1676TIP3    H2 4974   2.594   5.499   1.510  3.1099 -0.1233  1.4077
 1677TIP3   OH2 4975   0.891   5.380   4.635 -0.0246  0.6954 -0.1019
 1677TIP3    H1 4976   0.880   5.473   4.613 -0.1348  0.7395  0.1394
 1677TIP3    H2 4977   0.847   5.333   4.565  1.9322  0.7706 -1.4071
 1678TIP3   OH2 4978   8.018   5.275   0.098 -0.5806  0.1557 -0.4602
 1678TIP3    H1 4979   8.010   5.369   0.079 -2.8795 -0.0631 -0.7034
 1678TIP3    H2 4980   8.063   5.239   0.021  2.4142  1.3732  0.6383
 1679TIP3   OH2 4981   0.083   5.439   0.287 -0.0640 -0.1742  0.2629
 1679TIP3    H1 4982   0.110   5.350   0.309  2.1331  0.0918 -1.2434
 1679TIP3    H2 4983   0.139   5.495   0.340  0.7128  0.3404 -1.0748
 1680TIP3   OH2 4984   7.655   2.863   6.719  0.1413 -0.1109 -0.1603
 1680TIP3    H1 4985   7.628   2.777   6.687  2.3477 -0.5969 -0.8099
 1680TIP3    H2 4986   7.654   2.855   6.814  2.0111 -1.4454 -0.2191
 1681TIP3   OH2 4987   2.697   5.854   1.096 -0.0463 -0.7765 -0.2024
 1681TIP3    H1 4988   2.685   5.767   1.058 -1.0315 -0.0240 -1.6868
 1681TIP3    H2 4989   2.756   5.898   1.035 -1.4957  0.3949 -0.7732
 1682TIP3   OH2 4990   2.411   6.555   1.450  0.1021  0.2009  0.5449
 1682TIP3    H1 4991   2.317   6.557   1.434  0.1863  1.3671  0.0905
 1682TIP3    H2 4992   2.449   6.520   1.369  0.1399  0.9332  0.2388
 1683TIP3   OH2 4993   6.971   0.742   6.590  0.9571 -0.3221  0.0448
 1683TIP3    H1 4994   6.975   0.785   6.505  0.5393 -0.0264  0.1737
 1683TIP3    H2 4995   7.020   0.801   6.648  1.0486 -0.4107  0.0582
 1684TIP3   OH2 4996   3.723   2.109   2.010  0.2946  0.5489  0.6664
 1684TIP3    H1 4997   3.806   2.065   2.032  0.6332  1.5865  1.5460
 1684TIP3    H2 4998   3.661   2.038   1.995  1.1615 -0.2376  0.7729
 1685TIP3   OH2 4999   1.380   7.610   1.593 -0.3038 -0.0904  0.0359
 1685TIP3    H1 5000   1.376   7.684   1.653  0.6181  0.5453 -0.6781
 1685TIP3    H2 5001   1.439   7.548   1.635 -0.0734  0.1273  0.0310
 1686TIP3   OH2 5002   3.141   7.610   2.001  0.1883  0.9288 -0.2654
 1686TIP3    H1 5003   3.120   7.700   2.026 -1.2276  0.9889 -1.6345
 1686TIP3    H2 5004   3.173   7.617   1.911  1.7183  0.2620  0.2081
 1687TIP3   OH2 5005   6.135   2.151   6.165  0.2787 -0.0847 -0.0471
 1687TIP3    H1 5006   6.230   2.161   6.157 -0.0064  1.5051 -1.9331
 1687TIP3    H2 5007   6.104   2.236   6.197 -0.5864 -0.2937 -0.3058
 1688TIP3   OH2 5008   8.442   5.623   0.069  0.1910 -0.4168 -0.3701
 1688TIP3    H1 5009   8.407   5.554   0.126 -0.6398  0.7418  0.5508
 1688TIP3    H2 5010   8.440   5.585  -0.018 -1.2682 -1.1814 -0.0133
 1689TIP3   OH2 5011   1.389   5.820   0.149  0.3716  0.3671 -0.2245
 1689TIP3    H1 5012   1.389   5.725   0.163  1.4528  0.0693 -2.0108
 1689TIP3    H2 5013   1.315   5.852   0.200 -0.5840 -1.5522 -0.3585
 1690TIP3   OH2 5014   6.662   7.282   2.410  0.0905  0.0040  0.3742
 1690TIP3    H1 5015   6.740   7.248   2.454 -0.0983  0.2800  0.9140
 1690TIP3    H2 5016   6.610   7.204   2.391  0.6007 -0.2069 -0.1934
 1691TIP3   OH2 5017   3.119   5.720   2.757  0.0429  0.3723  0.5119
 1691TIP3    H1 5018   3.123   5.808   2.719  0.4416  0.2830  0.3440
 1691TIP3    H2 5019   3.196   5.675   2.722 -0.8042 -0.4299 -0.3404
 1692TIP3   OH2 5020   0.094   5.719   0.937  0.7274  0.1921  0.4795
 1692TIP3    H1 5021   0.153   5.793   0.952  0.8086  0.1547  0.3468
 1692TIP3    H2 5022   0.146   5.656   0.887  0.6332  0.0793  0.5230
 1693TIP3   OH2 5023   1.564   6.794   1.137  0.6420  0.6235 -0.4780
 1693TIP3    H1 5024   1.616   6.823   1.062  0.4022  1.2023 -0.4233
 1693TIP3    H2 5025   1.627   6.757   1.198  0.7308 -0.9143 -1.4505
 1694TIP3   OH2 5026   2.933   1.681   0.354  0.8134  0.2000 -0.0784
 1694TIP3    H1 5027   2.852   1.671   0.304  0.6556  0.2093  0.1752
 1694TIP3    H2 5028   3.000   1.638   0.300  0.4781 -0.5894  0.1291
 1695TIP3   OH2 5029   1.454   5.841   1.717  0.4380 -0.1428 -0.2945
 1695TIP3    H1 5030   1.514   5.774   1.684  0.5915  0.3706 -1.0685
 1695TIP3    H2 5031   1.481   5.853   1.808 -0.6393 -2.2858  0.3461
 1696TIP3   OH2 5032   3.164   0.745   1.111  0.0393  0.0925 -0.3316
 1696TIP3    H1 5033   3.257   0.721   1.113 -0.1179 -0.5790 -0.7538
 1696TIP3    H2 5034   3.162   0.839   1.129  0.8113  0.1435 -0.5247
 1697TIP3   OH2 5035   2.018   4.991   2.473  0.4342 -0.0751 -0.1357
 1697TIP3    H1 5036   2.094   5.043   2.446  0.4863  0.2503  0.6333
 1697TIP3    H2 5037   1.977   5.043   2.541 -3.7209  2.4774 -4.2996
 1698TIP3   OH2 5038   4.022   7.561   0.501 -0.6510  0.4348 -0.2209
 1698TIP3    H1 5039   4.079   7.636   0.518 -1.1040  0.5203  0.9668
 1698TIP3    H2 5040   4.051   7.528   0.416 -0.3428  1.8492 -0.6834
 1699TIP3   OH2 5041   3.693   5.607   0.358  0.3939 -0.0909  0.4158
 1699TIP3    H1 5042   3.691   5.579   0.450  1.1141  0.2787  0.5441
 1699TIP3    H2 5043   3.633   5.546   0.314  1.0624 -1.1239  0.9000
 1700TIP3   OH2 5044   0.203   0.396   6.450  0.0412  0.1866 -0.2408
 1700TIP3    H1 5045   0.282   0.449   6.462 -0.3084  1.2763 -2.4584
 1700TIP3    H2 5046   0.184   0.404   6.357 -2.0051 -1.0596  0.0595
 1701TIP3   OH2 5047   4.895   2.277   6.381 -0.1085  0.0297 -0.1918
 1701TIP3    H1 5048   4.921   2.320   6.300  0.6524  1.2987  0.6918
 1701TIP3    H2 5049   4.971   2.224   6.406  0.0089  0.3617  0.1640
 1702TIP3   OH2 5050   2.451   7.217   1.676  0.2406  0.1886 -0.2725
 1702TIP3    H1 5051   2.391   7.235   1.748  1.4676 -3.0651  1.6982
 1702TIP3    H2 5052   2.537   7.206   1.718  0.7475 -3.0772 -1.9818
 1703TIP3   OH2 5053   8.042   1.862   6.667  0.6242  0.3872  0.1810
 1703TIP3    H1 5054   8.108   1.899   6.609 -0.4746 -0.4260 -1.6687
 1703TIP3    H2 5055   8.088   1.792   6.714  1.9200  2.0767  1.4488
 1704TIP3   OH2 5056   1.387   6.229   1.569  0.0026 -0.7755  0.7756
 1704TIP3    H1 5057   1.309   6.285   1.564  0.9850  0.7168  1.7258
 1704TIP3    H2 5058   1.431   6.243   1.485 -0.1662 -0.7394  0.6915
 1705TIP3   OH2 5059   1.834   6.038   0.592  0.0060 -0.2210 -0.2840
 1705TIP3    H1 5060   1.776   6.004   0.524  2.3333 -0.4117 -2.2411
 1705TIP3    H2 5061   1.892   5.964   0.613  1.4753  0.8362 -0.5426
 1706TIP3   OH2 5062   2.166   4.439   6.637 -0.4241  0.8961  0.1797
 1706TIP3    H1 5063   2.190   4.407   6.724 -0.2534  2.2376  0.6356
 1706TIP3    H2 5064   2.201   4.528   6.634  0.8864  0.3524 -1.8124
 1707TIP3   OH2 5065   0.617   4.428   5.796 -0.1840 -0.6133  0.1472
 1707TIP3    H1 5066   0.565   4.508   5.796 -0.5770 -0.8672  0.7165
 1707TIP3    H2 5067   0.620   4.401   5.704  1.7519  1.2178 -0.3919
 1708TIP3   OH2 5068   0.797   5.858   4.245  0.3136 -0.3756  0.0398
 1708TIP3    H1 5069   0.797   5.858   4.341  0.2636  1.5467  0.0611
 1708TIP3    H2 5070   0.759   5.943   4.221  0.8057 -0.6245 -1.6766
 1709TIP3   OH2 5071   0.171   1.874   5.463 -0.0939 -0.0501  0.1268
 1709TIP3    H1 5072   0.128   1.945   5.414 -0.0972 -0.5348 -0.5805
 1709TIP3    H2 5073   0.185   1.911   5.550 -1.6756  0.2156  0.2838
 1710TIP3   OH2 5074   4.430   5.611   2.377  0.1624 -0.4442 -0.2122
 1710TIP3    H1 5075   4.506   5.634   2.430 -1.0022  0.0146  1.3162
 1710TIP3    H2 5076   4.457   5.533   2.328  0.2625 -2.8738  3.4958
 1711TIP3   OH2 5077   2.882   6.662   0.683  0.4352 -0.0737 -0.2323
 1711TIP3    H1 5078   2.899   6.584   0.631 -0.3140 -0.0908 -0.4533
 1711TIP3    H2 5079   2.884   6.734   0.620 -3.2165 -0.3725 -0.8048
 1712TIP3   OH2 5080   1.950   3.595   1.551 -0.3957  0.5057 -0.0961
 1712TIP3    H1 5081   1.989   3.678   1.577  0.0102  0.5076 -0.7099
 1712TIP3    H2 5082   1.882   3.619   1.488  0.7504  0.2615 -1.4474
 1713TIP3   OH2 5083   7.211   2.377   6.346 -0.2333  0.3806  0.0207
 1713TIP3    H1 5084   7.218   2.342   6.435 -2.1127  0.7522  0.3343
 1713TIP3    H2 5085   7.157   2.456   6.355 -0.9201  0.1097 -1.5157
 1714TIP3   OH2 5086   4.854   7.014   0.603 -0.2378 -0.6594 -0.2872
 1714TIP3    H1 5087   4.876   6.924   0.628  1.1012 -0.1548  0.3676
 1714TIP3    H2 5088   4.880   7.067   0.678  1.2043  0.5502 -1.6131
 1715TIP3   OH2 5089   2.548   7.761   0.565  0.1313 -0.8997 -0.0235
 1715TIP3    H1 5090   2.577   7.791   0.651  1.4145  2.0266 -1.4322
 1715TIP3    H2 5091   2.613   7.695   0.540  1.4504  0.3693 -0.0038
 1716TIP3   OH2 5092   3.136   4.997   0.130  0.0583 -0.1176 -0.1633
 1716TIP3    H1 5093   3.212   5.016   0.185 -0.7847  1.1602  0.6071
 1716TIP3    H2 5094   3.064   4.985   0.193 -0.7598  0.6016 -0.9525
 1717TIP3   OH2 5095   7.818   2.276   6.619 -0.6392 -0.4093  0.1361
 1717TIP3    H1 5096   7.771   2.258   6.537  1.7880 -2.7031 -0.8327
 1717TIP3    H2 5097   7.800   2.201   6.675 -0.0694 -0.1816  0.6400
 1718TIP3   OH2 5098   1.256   0.981   6.506  0.9898 -0.1085  0.1317
 1718TIP3    H1 5099   1.199   1.048   6.543  0.9454  0.3041 -0.6737
 1718TIP3    H2 5100   1.343   1.002   6.541  0.7103 -0.5475  1.1000
 1719TIP3   OH2 5101   4.510   6.014   0.242  0.2266  0.1323  0.1490
 1719TIP3    H1 5102   4.561   5.956   0.185 -0.4991 -0.3723 -0.0024
 1719TIP3    H2 5103   4.420   5.982   0.233 -0.2089  1.3974 -0.0732
 1720TIP3   OH2 5104   3.696   7.022   0.317 -0.1688 -0.2552  0.1141
 1720TIP3    H1 5105   3.616   7.073   0.333  1.1707  1.2242  2.3874
 1720TIP3    H2 5106   3.685   6.943   0.371  0.0181  0.1021  0.6866
 1721TIP3   OH2 5107   0.893   5.634   0.294 -0.3239  0.1563 -0.6271
 1721TIP3    H1 5108   0.871   5.722   0.324 -0.4460  0.1050 -0.5631
 1721TIP3    H2 5109   0.986   5.638   0.272 -0.1660  0.1290  0.0051
 1722TIP3   OH2 5110   1.908   6.790   0.389 -0.0269 -0.3453 -0.3488
 1722TIP3    H1 5111   1.854   6.826   0.318  0.3740 -0.1814 -0.5728
 1722TIP3    H2 5112   1.894   6.850   0.462  0.1919 -0.0542 -0.5440
 1723TIP3   OH2 5113   3.327   2.331   1.167 -0.3103 -0.6555  0.0338
 1723TIP3    H1 5114   3.270   2.296   1.098 -0.7746 -2.2197  1.1908
 1723TIP3    H2 5115   3.402   2.271   1.170  0.5541  0.3881 -0.2689
 1724TIP3   OH2 5116   7.949   3.409   6.457  0.2579 -0.1938  0.2229
 1724TIP3    H1 5117   7.911   3.481   6.508  1.3126  1.0185 -0.6773
 1724TIP3    H2 5118   7.876   3.348   6.444 -0.8375  1.0611  0.3602
 1725TIP3   OH2 5119   2.990   4.125   1.140  0.4290 -0.4793  0.0898
 1725TIP3    H1 5120   2.923   4.059   1.121 -0.5151 -0.0760  1.9253
 1725TIP3    H2 5121   3.066   4.075   1.169  1.0018 -0.9482 -2.1079
 1726TIP3   OH2 5122   7.303   1.532   6.148 -0.3803  0.0757  0.0479
 1726TIP3    H1 5123   7.337   1.498   6.230 -0.3265  1.5310  0.6482
 1726TIP3    H2 5124   7.215   1.564   6.169 -1.2065 -1.4865 -0.9539
 1727TIP3   OH2 5125   6.529   3.862   6.600  0.0256 -0.4280  0.0709
 1727TIP3    H1 5126   6.532   3.785   6.657  0.0230 -0.5728 -0.1230
 1727TIP3    H2 5127   6.438   3.891   6.603 -0.2548 -1.1719 -0.8303
 1728TIP3   OH2 5128   4.718   4.930   1.873 -0.2896  0.1395 -0.0321
 1728TIP3    H1 5129   4.628   4.903   1.855 -1.4228  3.9342 -0.5440
 1728TIP3    H2 5130   4.740   4.988   1.800  3.0633 -1.6830 -0.5741
 1729TIP3   OH2 5131   7.838   2.551   6.642  0.1905  0.0575 -0.5200
 1729TIP3    H1 5132   7.849   2.457   6.653 -0.5734 -0.1557 -1.4969
 1729TIP3    H2 5133   7.753   2.570   6.683  0.4194  0.3511 -0.1774
 1730TIP3   OH2 5134   2.998   5.304   1.733  0.0843  0.2957  0.3290
 1730TIP3    H1 5135   2.975   5.251   1.656  0.6945  1.7837 -0.9128
 1730TIP3    H2 5136   2.919   5.302   1.787 -0.0728 -1.4390  0.0592
 1731TIP3   OH2 5137   1.937   6.558   0.095  0.2411  0.4940 -0.0140
 1731TIP3    H1 5138   1.999   6.489   0.119  0.7184  0.1118 -2.2289
 1731TIP3    H2 5139   1.988   6.639   0.101  0.2808  0.4404  0.4483
 1732TIP3   OH2 5140   3.107   7.076   0.661  0.1409 -0.4832  0.0427
 1732TIP3    H1 5141   3.199   7.074   0.688 -0.2403 -0.9572  1.3412
 1732TIP3    H2 5142   3.067   7.002   0.707 -0.4377 -1.5858 -2.1966
 1733TIP3   OH2 5143   5.296   1.275   3.260 -0.0915 -0.7241 -0.1566
 1733TIP3    H1 5144   5.304   1.275   3.355  1.3176  2.1465 -0.2026
 1733TIP3    H2 5145   5.227   1.338   3.241 -0.5539 -1.4755 -1.0373
 1734TIP3   OH2 5146   6.205   2.883   6.473 -0.1624  0.1950 -0.1993
 1734TIP3    H1 5147   6.241   2.870   6.560 -1.7921  0.9095  0.5993
 1734TIP3    H2 5148   6.281   2.888   6.416  0.8858 -1.2634  1.0365
 1735TIP3   OH2 5149   1.957   5.709   1.463  0.1609 -0.5435  0.2757
 1735TIP3    H1 5150   1.868   5.685   1.436 -0.2229  2.0776 -0.9844
 1735TIP3    H2 5151   2.010   5.701   1.383  0.0990  2.1752 -0.1030
 1736TIP3   OH2 5152   7.310   3.208   6.876 -0.3772 -0.1662  0.2299
 1736TIP3    H1 5153   7.380   3.266   6.847 -2.1566  1.7014 -0.4121
 1736TIP3    H2 5154   7.318   3.207   6.971 -0.9512  1.9428  0.3111
 1737TIP3   OH2 5155   3.066   5.711   0.070  0.2076  0.3075 -0.2787
 1737TIP3    H1 5156   3.017   5.678  -0.005 -0.0649  0.2337 -0.0691
 1737TIP3    H2 5157   3.139   5.649   0.080 -1.1118 -1.0658  1.0038
 1738TIP3   OH2 5158   7.154   1.292   6.354  0.3912  0.5180  0.1961
 1738TIP3    H1 5159   7.098   1.368   6.339 -0.3070 -0.0216  0.0868
 1738TIP3    H2 5160   7.105   1.238   6.416  0.3832 -0.3953 -0.6128
 1739TIP3   OH2 5161   8.464   7.095   0.343 -0.4513  0.0826 -0.6372
 1739TIP3    H1 5162   8.385   7.055   0.308 -1.2841 -1.8082  3.1745
 1739TIP3    H2 5163   8.433   7.165   0.401  0.7616  0.7993 -0.8180
 1740TIP3   OH2 5164   1.204   6.838   0.913  0.0608  0.4178 -0.0555
 1740TIP3    H1 5165   1.266   6.884   0.970  0.6610  0.2328 -0.5542
 1740TIP3    H2 5166   1.159   6.908   0.865  1.2311  0.4824 -1.0786
 1741TIP3   OH2 5167   8.409   7.358   1.232  0.1090  0.0358  0.3111
 1741TIP3    H1 5168   8.449   7.346   1.146 -0.1737 -0.8397  0.3018
 1741TIP3    H2 5169   8.484   7.368   1.292  0.3128  0.0080  0.0622
 1742TIP3   OH2 5170   1.219   7.724   0.706  0.3370 -0.3875  0.3471
 1742TIP3    H1 5171   1.208   7.630   0.718 -2.5002 -0.2894 -1.2495
 1742TIP3    H2 5172   1.306   7.733   0.666  0.2294 -2.4004 -0.3766
 1743TIP3   OH2 5173   0.194   7.252   0.096  0.3230 -0.2312 -0.0496
 1743TIP3    H1 5174   0.212   7.270   0.188  0.1636  1.1609 -0.2737
 1743TIP3    H2 5175   0.279   7.228   0.059  0.8858  1.7006 -0.0791
 1744TIP3   OH2 5176   3.491   7.031   3.401 -0.2725  0.5323  0.2258
 1744TIP3    H1 5177   3.504   7.026   3.306 -1.0600 -0.8267  0.1799
 1744TIP3    H2 5178   3.569   7.075   3.434 -0.9851  3.0605 -1.2884
 1745TIP3   OH2 5179   3.382   4.746   2.092  0.1296 -0.4013  0.3832
 1745TIP3    H1 5180   3.365   4.657   2.123 -0.6877 -0.5265 -0.4095
 1745TIP3    H2 5181   3.304   4.795   2.114 -0.0366 -0.2437 -0.5249
 1746TIP3   OH2 5182   2.440   6.291   2.325  0.6013  0.2008  0.1986
 1746TIP3    H1 5183   2.463   6.246   2.244  0.9998  2.0197 -0.7178
 1746TIP3    H2 5184   2.366   6.347   2.302  0.5188  0.5003  1.1692
 1747TIP3   OH2 5185   4.116   0.201   1.470 -0.1359  0.4514  0.4800
 1747TIP3    H1 5186   4.030   0.241   1.455  0.8067  2.6475  0.7592
 1747TIP3    H2 5187   4.137   0.158   1.388 -1.2541  0.3524  0.2319
 1748TIP3   OH2 5188   5.186   0.632   0.559  0.0651 -0.1047 -0.0546
 1748TIP3    H1 5189   5.209   0.550   0.603  2.8978  1.0962  0.7761
 1748TIP3    H2 5190   5.270   0.676   0.545 -1.3793  2.4548 -0.9171
 1749TIP3   OH2 5191   0.180   7.979   1.233 -0.3519 -0.2484  0.1569
 1749TIP3    H1 5192   0.213   7.950   1.148 -1.0084 -1.3032  0.2579
 1749TIP3    H2 5193   0.258   8.008   1.281 -0.0298  0.7046 -0.9390
 1750TIP3   OH2 5194   1.499   7.162   1.553  0.2911 -0.6548  0.1046
 1750TIP3    H1 5195   1.493   7.237   1.612  2.1516 -1.0000  0.7635
 1750TIP3    H2 5196   1.557   7.100   1.597 -1.0086 -2.4014 -0.5475
 1751TIP3   OH2 5197   0.161   2.801   6.908 -0.2422  0.3243  0.6363
 1751TIP3    H1 5198   0.179   2.807   6.814 -0.8893  0.4209  0.5147
 1751TIP3    H2 5199   0.088   2.739   6.914 -2.3529  2.7273  0.8060
 1752TIP3   OH2 5200   2.641   6.754   0.774  0.1043  0.3952 -0.2273
 1752TIP3    H1 5201   2.654   6.806   0.853  2.6450 -0.7358  0.1254
 1752TIP3    H2 5202   2.727   6.751   0.732 -0.5187 -1.5922 -1.4374
 1753TIP3   OH2 5203   0.997   7.740   2.184  0.2103 -0.5508  0.1516
 1753TIP3    H1 5204   1.003   7.668   2.120 -1.8601 -1.7971  1.2788
 1753TIP3    H2 5205   1.082   7.741   2.227  0.5710 -1.7453 -0.5044
 1754TIP3   OH2 5206   2.149   7.778   0.269  0.0690 -0.0685 -0.0740
 1754TIP3    H1 5207   2.149   7.773   0.173 -0.2858  1.7739 -0.1923
 1754TIP3    H2 5208   2.233   7.818   0.291 -0.5104  0.9891  0.2699
 1755TIP3   OH2 5209   3.139   6.538   1.477  0.6297 -0.4521  0.1239
 1755TIP3    H1 5210   3.076   6.603   1.507  2.2365  1.2703 -0.0919
 1755TIP3    H2 5211   3.214   6.590   1.449  1.0783 -2.2973 -2.2061
 1756TIP3   OH2 5212   3.577   7.499   2.377 -0.5395  0.1250 -0.0867
 1756TIP3    H1 5213   3.649   7.463   2.429 -0.8561  0.9240  0.9140
 1756TIP3    H2 5214   3.604   7.484   2.286 -0.7756 -2.8448  0.2756
 1757TIP3   OH2 5215   4.833   6.719   0.414  0.2250  0.5828  0.2077
 1757TIP3    H1 5216   4.862   6.795   0.465  1.5790  0.1214  0.1509
 1757TIP3    H2 5217   4.897   6.711   0.343 -0.7052  0.2241 -0.6103
 1758TIP3   OH2 5218   3.429   0.539   0.491  0.2772 -0.0066 -0.1751
 1758TIP3    H1 5219   3.500   0.602   0.474  0.0380  0.6854  1.3190
 1758TIP3    H2 5220   3.474   0.456   0.504  0.6889  0.0982 -0.8832
 1759TIP3   OH2 5221   4.278   7.270   0.203  0.2647 -0.3655 -0.1360
 1759TIP3    H1 5222   4.243   7.182   0.187  0.8699 -0.6820  0.2800
 1759TIP3    H2 5223   4.347   7.281   0.138  0.8592 -0.5804  0.4642
 1760TIP3   OH2 5224   2.283   3.982   6.941  0.5295 -0.2477  0.7085
 1760TIP3    H1 5225   2.277   3.908   6.880  0.2241  0.9157 -0.7103
 1760TIP3    H2 5226   2.260   4.058   6.888 -0.5348  0.7089  2.4946
 1761TIP3   OH2 5227   1.449   7.559   1.348  0.1675  0.0713 -0.0513
 1761TIP3    H1 5228   1.398   7.576   1.427 -0.0440 -0.6297 -0.0326
 1761TIP3    H2 5229   1.532   7.524   1.380 -0.2207 -0.9742 -0.1594
 1762TIP3   OH2 5230   1.140   3.226   5.786 -0.2115 -0.1928  0.0243
 1762TIP3    H1 5231   1.173   3.139   5.761 -0.6526 -0.4120  0.1902
 1762TIP3    H2 5232   1.147   3.279   5.707  1.1806 -0.0457  0.2398
 1763TIP3   OH2 5233   6.059   2.836   6.220 -0.1550  0.7410 -0.1481
 1763TIP3    H1 5234   6.035   2.912   6.166 -1.0597  0.7399  0.2486
 1763TIP3    H2 5235   6.103   2.874   6.296  0.8860  0.7583 -0.7396
 1764TIP3   OH2 5236   6.116   2.929   5.230  0.1843  0.0120  0.6266
 1764TIP3    H1 5237   6.026   2.917   5.261  0.7731 -1.7545  1.7885
 1764TIP3    H2 5238   6.111   2.915   5.135 -0.9937  1.4116  0.4718
 1765TIP3   OH2 5239   1.371   6.985   0.516  0.2823 -0.1311 -0.2317
 1765TIP3    H1 5240   1.420   6.919   0.465  1.1704  0.6316 -0.3904
 1765TIP3    H2 5241   1.421   6.994   0.597 -0.0335  0.1001 -0.0631
 1766TIP3   OH2 5242   1.261   5.555   0.454  0.1924  0.2806  0.1530
 1766TIP3    H1 5243   1.279   5.629   0.396  0.6609 -1.0841 -1.4738
 1766TIP3    H2 5244   1.330   5.560   0.520  1.0714  0.4812 -0.7574
 1767TIP3   OH2 5245   1.237   6.101   2.721 -0.3880 -0.4078  0.2784
 1767TIP3    H1 5246   1.160   6.047   2.707 -0.0090 -1.0827  0.7967
 1767TIP3    H2 5247   1.224   6.139   2.808 -0.2012 -0.4069  0.3060
 1768TIP3   OH2 5248   1.730   0.954   5.848 -0.0104 -0.0815  0.0932
 1768TIP3    H1 5249   1.774   0.949   5.933 -1.0721 -0.0748  0.6477
 1768TIP3    H2 5250   1.802   0.956   5.784  0.8358  1.5248  1.0506
 1769TIP3   OH2 5251   0.328   1.471   4.909 -0.4378 -0.5426 -0.3200
 1769TIP3    H1 5252   0.339   1.411   4.836  2.4476 -0.4939  0.0104
 1769TIP3    H2 5253   0.320   1.414   4.986  0.6724 -0.5565 -0.2032
 1770TIP3   OH2 5254   2.876   5.839   1.996 -0.2143 -0.2015 -0.7702
 1770TIP3    H1 5255   2.919   5.791   1.925  1.0009 -0.3063  0.0262
 1770TIP3    H2 5256   2.864   5.927   1.962 -2.1468 -0.9379 -2.1193
 1771TIP3   OH2 5257   5.374   0.688   2.363 -0.4911 -0.2033  0.8058
 1771TIP3    H1 5258   5.320   0.616   2.395 -0.9405 -0.6232 -0.9010
 1771TIP3    H2 5259   5.312   0.750   2.324  0.2180 -0.6401 -1.0740
 1772TIP3   OH2 5260   8.034   0.444   2.420  0.1804 -0.3557 -0.5888
 1772TIP3    H1 5261   8.001   0.363   2.380 -0.2249 -1.4615  1.8312
 1772TIP3    H2 5262   8.055   0.418   2.510 -1.7504  2.6808  0.8054
 1773TIP3   OH2 5263   6.895   6.049   4.835  0.5978  0.2464 -0.2996
 1773TIP3    H1 5264   6.984   6.015   4.819 -0.3680 -2.1657 -0.7692
 1773TIP3    H2 5265   6.842   6.010   4.765 -1.4163 -0.8083  1.7509
 1774TIP3   OH2 5266   2.312   7.523   1.025  0.7789  0.1524  0.3481
 1774TIP3    H1 5267   2.367   7.512   1.102  2.0393  0.2179 -0.5300
 1774TIP3    H2 5268   2.226   7.544   1.060  1.2280 -0.2799  1.7479
 1775TIP3   OH2 5269   1.377   3.709   6.526  0.4060 -0.8934  0.3676
 1775TIP3    H1 5270   1.438   3.668   6.587 -0.9018  0.5357  2.7024
 1775TIP3    H2 5271   1.296   3.659   6.536  0.2928 -0.8839 -0.4771
 1776TIP3   OH2 5272   1.046   4.610   6.219  0.6070  0.0884  0.4894
 1776TIP3    H1 5273   1.102   4.660   6.160 -0.2450  0.5161  0.0264
 1776TIP3    H2 5274   1.096   4.531   6.238  1.0102  0.0668 -0.6003
 1777TIP3   OH2 5275   1.363   0.611   6.806  0.3216  0.4112  0.1813
 1777TIP3    H1 5276   1.323   0.676   6.749 -0.9772  0.5036  1.1886
 1777TIP3    H2 5277   1.394   0.660   6.882 -0.4302 -0.0951  0.8262
 1778TIP3   OH2 5278   0.295   6.635   0.451 -0.5688 -0.0611 -0.0968
 1778TIP3    H1 5279   0.273   6.629   0.544  0.7073 -0.8358  0.1721
 1778TIP3    H2 5280   0.211   6.648   0.407 -1.4420 -1.7410  1.0001
 1779TIP3   OH2 5281   4.261   7.861   0.649  0.2252  0.4394  0.0810
 1779TIP3    H1 5282   4.274   7.820   0.564 -1.5745  0.0776 -0.0431
 1779TIP3    H2 5283   4.203   7.935   0.631  0.3855  0.7653  0.8882
 1780TIP3   OH2 5284   2.097   1.192   6.818 -0.3351 -0.5669  0.0075
 1780TIP3    H1 5285   2.073   1.099   6.813  0.0001 -0.7724  1.8041
 1780TIP3    H2 5286   2.185   1.196   6.782  0.3890 -1.2623  1.6730
 1781TIP3   OH2 5287   4.071   6.425   1.602 -0.0002  0.6207 -0.3554
 1781TIP3    H1 5288   4.157   6.464   1.617 -0.0629  0.7867 -0.4350
 1781TIP3    H2 5289   4.087   6.351   1.544  0.2643 -0.0972  0.6105
 1782TIP3   OH2 5290   6.250   7.438   3.612 -0.0944 -0.0451  0.0916
 1782TIP3    H1 5291   6.261   7.360   3.558  3.7969  1.3391 -1.3194
 1782TIP3    H2 5292   6.325   7.437   3.672 -1.2174  1.4413  1.5778
 1783TIP3   OH2 5293   1.777   0.874   5.572 -0.1792  0.1830  0.1964
 1783TIP3    H1 5294   1.864   0.896   5.539  0.5010 -0.7879  1.3079
 1783TIP3    H2 5295   1.717   0.921   5.514  1.0328 -0.2129 -1.4193
 1784TIP3   OH2 5296   3.391   2.919   0.317 -0.2100  0.8094 -0.2459
 1784TIP3    H1 5297   3.355   2.833   0.295 -0.7054  0.7943  0.5600
 1784TIP3    H2 5298   3.315   2.978   0.313 -0.5151  0.6582  2.1600
 1785TIP3   OH2 5299   2.604   1.048   2.825  0.3681  0.1325  0.0034
 1785TIP3    H1 5300   2.687   1.083   2.792 -0.4627  0.4843 -1.7562
 1785TIP3    H2 5301   2.562   1.122   2.868  1.3641 -0.2788  1.7517
 1786TIP3   OH2 5302   2.366   1.978   3.336 -0.3048  0.0189  0.7597
 1786TIP3    H1 5303   2.352   1.900   3.389 -0.1472 -0.8098 -0.4134
 1786TIP3    H2 5304   2.438   1.956   3.277 -0.5501  0.8839  0.1131
 1787TIP3   OH2 5305   6.236   5.460   3.462 -0.5893  0.7114 -0.0127
 1787TIP3    H1 5306   6.226   5.374   3.502 -1.1462  1.2901  1.1177
 1787TIP3    H2 5307   6.175   5.516   3.510 -1.5813  1.3395 -1.9453
 1788TIP3   OH2 5308   7.758   0.002   4.530  0.3489 -0.2661 -0.1806
 1788TIP3    H1 5309   7.797   0.008   4.443  1.0038  0.2658  0.1394
 1788TIP3    H2 5310   7.778   0.086   4.571 -1.1634  0.0210 -0.0033
 1789TIP3   OH2 5311   4.198   0.339   3.700 -0.4027  0.4729 -0.4106
 1789TIP3    H1 5312   4.128   0.404   3.706  0.9288  1.7305  2.4687
 1789TIP3    H2 5313   4.185   0.283   3.776  1.6473  0.6806  0.1216
 1790TIP3   OH2 5314   6.209   7.819   4.856 -0.1370  0.3727  0.1782
 1790TIP3    H1 5315   6.293   7.772   4.857 -0.2307  0.2259  1.2553
 1790TIP3    H2 5316   6.231   7.907   4.886 -0.5204  0.0792  1.3217
 1791TIP3   OH2 5317   6.724   6.786   5.868  0.2959 -0.5500 -0.5336
 1791TIP3    H1 5318   6.712   6.824   5.955  2.1698 -1.7509  0.2832
 1791TIP3    H2 5319   6.643   6.740   5.850 -0.3441  0.2424  0.2908
 1792TIP3   OH2 5320   0.857   1.234   3.228  0.5185 -0.3400 -0.3066
 1792TIP3    H1 5321   0.920   1.216   3.159  3.4061  2.8245  1.3434
 1792TIP3    H2 5322   0.872   1.164   3.292  1.5127 -0.3407 -0.5231
 1793TIP3   OH2 5323   5.813   7.701   3.808 -0.6158 -0.6102  0.4704
 1793TIP3    H1 5324   5.741   7.657   3.764  0.7323 -1.2188 -1.1620
 1793TIP3    H2 5325   5.892   7.668   3.765  0.5336  1.7082  0.7155
 1794TIP3   OH2 5326   5.917   7.558   3.344  0.3407  0.3464 -0.0203
 1794TIP3    H1 5327   5.860   7.533   3.418 -0.5699  2.2048 -0.0412
 1794TIP3    H2 5328   5.995   7.595   3.386  0.2202  0.5606  0.0174
 1795TIP3   OH2 5329   3.707   2.213   4.571 -0.4692 -0.4221 -0.4782
 1795TIP3    H1 5330   3.699   2.123   4.604 -0.1388 -0.0265  0.7215
 1795TIP3    H2 5331   3.732   2.203   4.479  0.8986 -1.5507 -0.0062
 1796TIP3   OH2 5332   6.151   7.856   4.339 -0.0872  0.0842 -0.1159
 1796TIP3    H1 5333   6.168   7.768   4.305  0.7898  0.0001  0.5258
 1796TIP3    H2 5334   6.173   7.914   4.266 -1.9349 -0.2709 -1.0038
 1797TIP3   OH2 5335   7.634   7.690   3.760 -0.0656 -0.2277  0.3349
 1797TIP3    H1 5336   7.566   7.748   3.726  1.0654  0.7030 -0.3723
 1797TIP3    H2 5337   7.643   7.715   3.852 -0.4551 -0.1512  0.3530
 1798TIP3   OH2 5338   1.247   0.194   3.666 -0.0164  0.6982  0.3208
 1798TIP3    H1 5339   1.330   0.236   3.690  0.2841  0.6145 -0.5519
 1798TIP3    H2 5340   1.252   0.107   3.704  0.8114  0.2752 -0.7364
 1799TIP3   OH2 5341   8.386   7.418   3.966 -0.3399  0.3628  0.1974
 1799TIP3    H1 5342   8.357   7.354   4.030  0.1547 -0.1219 -0.0524
 1799TIP3    H2 5343   8.401   7.367   3.886  2.0672  0.4221  0.5742
 1800TIP3   OH2 5344   1.796   0.928   3.222  0.0715  0.1565 -0.0995
 1800TIP3    H1 5345   1.812   1.022   3.224 -1.0735  0.3388  1.6283
 1800TIP3    H2 5346   1.763   0.911   3.134  1.0670  1.2163 -0.6933
 1801TIP3   OH2 5347   0.836   0.537   3.932 -0.1915  0.4503  0.0237
 1801TIP3    H1 5348   0.777   0.571   3.866  0.9120 -1.3547 -1.9439
 1801TIP3    H2 5349   0.918   0.585   3.919  0.0070  0.1471  0.1256
 1802TIP3   OH2 5350   4.645   7.743   5.214 -0.1909 -0.1616 -0.3310
 1802TIP3    H1 5351   4.676   7.653   5.207 -0.3251 -0.2000 -0.4136
 1802TIP3    H2 5352   4.703   7.793   5.157 -1.1994 -0.4522 -1.6281
 1803TIP3   OH2 5353   7.195   5.864   3.733 -0.1619 -0.2279  0.1177
 1803TIP3    H1 5354   7.201   5.957   3.710  0.0395 -0.0476  0.8935
 1803TIP3    H2 5355   7.286   5.838   3.750 -0.3016 -0.3869  0.6152
 1804TIP3   OH2 5356   2.425   0.683   3.636  0.4868  0.2749 -0.1726
 1804TIP3    H1 5357   2.418   0.589   3.654 -0.3025  0.4320  0.3603
 1804TIP3    H2 5358   2.500   0.712   3.688  0.5088  0.0075 -0.0565
 1805TIP3   OH2 5359   0.236   2.332   2.792 -0.1318 -0.0561 -0.2159
 1805TIP3    H1 5360   0.262   2.410   2.841 -1.3574  0.0775  0.2336
 1805TIP3    H2 5361   0.227   2.362   2.702  2.6029 -0.4066 -0.6349
 1806TIP3   OH2 5362   2.080   1.528   4.912 -0.1775 -0.4701  0.2459
 1806TIP3    H1 5363   2.117   1.532   5.000 -0.2872 -1.5488  0.3539
 1806TIP3    H2 5364   2.147   1.566   4.855 -1.0445  2.3676  1.0627
 1807TIP3   OH2 5365   1.089   0.944   4.200  0.0887  0.3473 -0.3971
 1807TIP3    H1 5366   1.108   0.921   4.109  0.6213  2.8208 -0.9500
 1807TIP3    H2 5367   1.097   1.040   4.203 -0.8459  0.3923  2.0405
 1808TIP3   OH2 5368   1.895   0.655   4.669  0.1065  0.4317 -0.3494
 1808TIP3    H1 5369   1.925   0.724   4.728  0.8649 -0.0899 -0.1140
 1808TIP3    H2 5370   1.804   0.640   4.695  0.1640  0.8260  0.0977
 1809TIP3   OH2 5371   1.740   1.164   6.341  0.1150 -0.0707 -0.4702
 1809TIP3    H1 5372   1.804   1.103   6.377 -0.8056 -1.2889 -0.8637
 1809TIP3    H2 5373   1.761   1.168   6.247  0.0058  0.0103 -0.4913
 1810TIP3   OH2 5374   2.968   1.887   3.825  0.7348 -0.1121  0.0950
 1810TIP3    H1 5375   2.922   1.863   3.905 -0.1040  0.1328 -0.3042
 1810TIP3    H2 5376   2.903   1.875   3.756  1.1562  0.6090 -0.4309
 1811TIP3   OH2 5377   8.425   0.062   3.789 -0.1244 -0.9340 -0.2202
 1811TIP3    H1 5378   8.363   0.062   3.716  0.7714  1.3959 -1.0138
 1811TIP3    H2 5379   8.412   0.146   3.832  3.0632 -0.0218 -0.9206
 1812TIP3   OH2 5380   7.094   7.623   4.125  0.4489 -0.4478  0.3115
 1812TIP3    H1 5381   7.049   7.592   4.204 -0.0952 -0.6655 -0.0816
 1812TIP3    H2 5382   7.133   7.544   4.087 -0.7634 -0.6354 -0.5800
 1813TIP3   OH2 5383   5.882   5.652   2.627 -0.0551 -0.1013  0.2053
 1813TIP3    H1 5384   5.861   5.560   2.643  0.9338 -0.1551  1.2749
 1813TIP3    H2 5385   5.976   5.654   2.612  0.1881  0.9168  1.7246
 1814TIP3   OH2 5386   1.318   0.129   4.468  0.1831  0.1710  0.3258
 1814TIP3    H1 5387   1.291   0.220   4.475 -0.8866  0.0583 -1.8708
 1814TIP3    H2 5388   1.411   0.133   4.448  0.7670  0.6868  3.0085
 1815TIP3   OH2 5389   6.100   7.674   4.029  0.3131  0.2294 -0.3374
 1815TIP3    H1 5390   6.072   7.652   3.941 -0.4908  0.6232 -0.1773
 1815TIP3    H2 5391   6.167   7.741   4.017  0.1640  0.3217 -0.6436
 1816TIP3   OH2 5392   0.279   1.155   4.402  1.2613 -0.3563 -0.5250
 1816TIP3    H1 5393   0.296   1.076   4.350 -0.7324 -0.4959 -1.0271
 1816TIP3    H2 5394   0.245   1.122   4.485  2.1871 -0.0703 -0.0343
 1817TIP3   OH2 5395   4.548   5.994   3.719  0.3666 -0.4529 -0.1665
 1817TIP3    H1 5396   4.634   5.961   3.744  0.2977 -2.0725 -1.9170
 1817TIP3    H2 5397   4.486   5.940   3.769  0.3458  0.3494  0.6851
 1818TIP3   OH2 5398   0.133   0.790   2.922  0.6101 -0.0196 -0.8213
 1818TIP3    H1 5399   0.149   0.696   2.912 -1.6716 -0.5680  0.2846
 1818TIP3    H2 5400   0.220   0.828   2.936  1.2794 -2.3889  1.8343
 1819TIP3   OH2 5401   0.969   1.356   5.056  0.1395  0.4786  0.1564
 1819TIP3    H1 5402   0.960   1.378   4.964 -1.7814 -0.4076  0.0957
 1819TIP3    H2 5403   0.891   1.393   5.097 -1.0126 -2.4079  0.7478
 1820TIP3   OH2 5404   3.559   0.673   4.864  0.0349  0.1777  0.3424
 1820TIP3    H1 5405   3.588   0.585   4.839 -0.5584  0.5483 -1.7337
 1820TIP3    H2 5406   3.622   0.702   4.929  1.2001 -1.1374 -0.1891
 1821TIP3   OH2 5407   1.580   7.214   5.184  0.6355 -0.3180  0.5055
 1821TIP3    H1 5408   1.672   7.240   5.193  0.7150 -0.9750  1.6304
 1821TIP3    H2 5409   1.531   7.290   5.216  0.7919 -0.1800  0.4226
 1822TIP3   OH2 5410   7.066   5.701   2.883 -0.2972  0.0620 -0.1425
 1822TIP3    H1 5411   7.037   5.633   2.944  0.1241  1.4460  1.6525
 1822TIP3    H2 5412   7.058   5.661   2.797 -0.5320 -2.0935  0.8425
 1823TIP3   OH2 5413   2.761   1.677   5.418 -0.0186  0.1284 -0.0907
 1823TIP3    H1 5414   2.784   1.762   5.455  0.3025  0.3245 -0.7337
 1823TIP3    H2 5415   2.831   1.618   5.446 -0.8172 -0.1807  1.2858
 1824TIP3   OH2 5416   1.524   2.076   4.069  0.5227 -0.0789 -0.2124
 1824TIP3    H1 5417   1.542   2.083   3.975  1.2275 -0.1217 -0.0801
 1824TIP3    H2 5418   1.498   2.165   4.095  0.2053 -0.0932 -0.4658
 1825TIP3   OH2 5419   3.423   0.765   3.441 -0.0215 -0.1283 -0.2421
 1825TIP3    H1 5420   3.341   0.716   3.443  1.0135 -1.8950  0.2889
 1825TIP3    H2 5421   3.417   0.823   3.517 -0.7405 -0.3036 -0.1571
 1826TIP3   OH2 5422   7.209   7.888   4.513  0.7140 -0.0876  0.0844
 1826TIP3    H1 5423   7.235   7.903   4.422 -0.3956  0.0709 -0.2220
 1826TIP3    H2 5424   7.248   7.961   4.561 -0.7262  1.2196 -0.6584
 1827TIP3   OH2 5425   3.064   1.743   4.609 -0.9122  0.2502  0.5047
 1827TIP3    H1 5426   3.028   1.709   4.691  2.2554 -2.9046  0.6864
 1827TIP3    H2 5427   3.054   1.670   4.547  3.1827  0.0080  0.0464
 1828TIP3   OH2 5428   2.057   0.434   2.916  0.5666 -0.1459 -0.1759
 1828TIP3    H1 5429   2.108   0.512   2.894  0.7105 -0.6394 -1.6396
 1828TIP3    H2 5430   2.116   0.379   2.967  0.8789  0.1267 -0.2485
 1829TIP3   OH2 5431   7.272   7.966   3.506 -0.3024  0.0427 -0.0509
 1829TIP3    H1 5432   7.208   8.017   3.558 -0.9397 -1.1588  0.3625
 1829TIP3    H2 5433   7.335   7.935   3.571  0.5207  0.9423 -0.4144
 1830TIP3   OH2 5434   7.831   6.935   2.854  0.1353  0.1161  0.0631
 1830TIP3    H1 5435   7.896   6.911   2.787 -2.6319 -2.8721 -1.6849
 1830TIP3    H2 5436   7.768   6.989   2.808 -2.3413 -2.7876 -0.1177
 1831TIP3   OH2 5437   0.077   7.144   4.021  0.3893  0.0520 -0.0944
 1831TIP3    H1 5438   0.102   7.222   3.971 -0.2941 -0.3763 -1.1322
 1831TIP3    H2 5439  -0.018   7.152   4.031  0.3568 -0.4859  0.0511
 1832TIP3   OH2 5440   5.624   6.870   4.988 -0.1968  0.2520 -0.1442
 1832TIP3    H1 5441   5.597   6.944   5.043  0.6827  0.8419 -0.4927
 1832TIP3    H2 5442   5.666   6.911   4.912 -1.0080 -0.5657 -1.0557
 1833TIP3   OH2 5443   8.408   6.877   2.892  0.1927  0.6741  0.3943
 1833TIP3    H1 5444   8.501   6.898   2.897  0.6087 -1.2446  1.3143
 1833TIP3    H2 5445   8.368   6.933   2.959  1.0086 -0.1319  1.5686
 1834TIP3   OH2 5446   2.277   0.933   3.581  0.3104 -0.1618 -0.5530
 1834TIP3    H1 5447   2.273   0.975   3.667  0.3956 -1.2480  0.0018
 1834TIP3    H2 5448   2.312   0.846   3.600 -1.1606 -0.9727 -1.4805
 1835TIP3   OH2 5449   2.843   2.249   5.367 -0.5798  0.1941  0.7757
 1835TIP3    H1 5450   2.878   2.301   5.439 -0.0027  2.8254 -1.3455
 1835TIP3    H2 5451   2.852   2.305   5.290 -1.8434 -2.2762 -1.2393
 1836TIP3   OH2 5452   2.048   0.332   3.551  0.3064 -0.3197  0.0696
 1836TIP3    H1 5453   2.120   0.275   3.525  0.3965 -0.2875  0.2464
 1836TIP3    H2 5454   2.061   0.412   3.499  0.2087 -0.4390 -0.1411
 1837TIP3   OH2 5455   3.554   0.599   3.861  0.2834  0.0734  0.2323
 1837TIP3    H1 5456   3.511   0.684   3.849 -1.1360 -0.8716 -1.6463
 1837TIP3    H2 5457   3.484   0.535   3.853  1.2838 -1.2755  2.0131
 1838TIP3   OH2 5458   1.781   0.474   2.772  0.0307  0.7157 -0.2712
 1838TIP3    H1 5459   1.771   0.466   2.678 -1.2555 -2.2665  0.0735
 1838TIP3    H2 5460   1.876   0.479   2.786  0.4064 -2.2957 -1.5166
 1839TIP3   OH2 5461   3.759   0.873   6.026 -0.0110 -0.2356 -0.5640
 1839TIP3    H1 5462   3.670   0.896   6.050 -0.2394  1.3105 -2.7658
 1839TIP3    H2 5463   3.814   0.938   6.068 -0.0108 -0.5204 -0.1245
 1840TIP3   OH2 5464   1.238   0.934   2.545 -0.8385  0.2698  0.2818
 1840TIP3    H1 5465   1.226   0.997   2.475  0.2334  1.0285  0.7763
 1840TIP3    H2 5466   1.315   0.883   2.520 -1.2653 -0.3685  0.2427
 1841TIP3   OH2 5467   4.455   0.505   3.504  0.2465 -0.9304 -0.4398
 1841TIP3    H1 5468   4.449   0.598   3.482  1.3897 -1.0171 -1.1962
 1841TIP3    H2 5469   4.381   0.489   3.563  1.5571  1.0424  1.8125
 1842TIP3   OH2 5470   0.162   7.506   3.244 -0.2723  0.0599  0.4086
 1842TIP3    H1 5471   0.072   7.497   3.276 -0.1170  0.9807  1.0997
 1842TIP3    H2 5472   0.153   7.551   3.160 -0.6197 -1.7580 -0.5810
 1843TIP3   OH2 5473   7.074   7.146   1.448 -0.0391 -0.0089 -0.5198
 1843TIP3    H1 5474   7.118   7.208   1.391  3.6487 -1.3967  0.6922
 1843TIP3    H2 5475   7.081   7.185   1.535  2.1069 -1.9502  0.2173
 1844TIP3   OH2 5476   4.686   0.224   3.874 -0.2199  0.1208  0.3113
 1844TIP3    H1 5477   4.600   0.264   3.882  0.7884  2.1851  1.2443
 1844TIP3    H2 5478   4.727   0.237   3.960  1.2190 -0.2832 -0.2974
 1845TIP3   OH2 5479   4.446   0.635   6.369 -0.4694  0.5509 -0.3974
 1845TIP3    H1 5480   4.468   0.708   6.428  2.4463  1.3385 -2.3192
 1845TIP3    H2 5481   4.412   0.678   6.291 -1.0791 -0.3074 -0.6049
 1846TIP3   OH2 5482   8.479   7.751   2.333 -0.5231 -0.4940 -0.6607
 1846TIP3    H1 5483   8.426   7.800   2.396  1.6507  0.2925  0.5947
 1846TIP3    H2 5484   8.491   7.665   2.374  1.1266  0.1098  0.1800
 1847TIP3   OH2 5485   3.263   1.927   2.619  0.8782 -0.1289  0.2033
 1847TIP3    H1 5486   3.319   1.880   2.681 -1.0646 -2.6044  0.1065
 1847TIP3    H2 5487   3.230   2.002   2.669  1.7816 -0.3684  1.1806
 1848TIP3   OH2 5488   6.654   7.474   5.184  0.0675 -0.5474 -0.4667
 1848TIP3    H1 5489   6.629   7.399   5.238  0.8914  0.3342  1.1735
 1848TIP3    H2 5490   6.682   7.435   5.100  1.0488 -2.1273  0.5579
 1849TIP3   OH2 5491   5.029   0.230   5.593  0.5428  0.1343  0.4203
 1849TIP3    H1 5492   5.032   0.273   5.678  1.3682  0.0819  0.4300
 1849TIP3    H2 5493   4.944   0.188   5.589 -0.1725  1.5497  0.5169
 1850TIP3   OH2 5494   1.703   0.051   3.931 -0.4349 -0.0659  0.4377
 1850TIP3    H1 5495   1.737   0.056   4.020 -2.3821  2.4434  1.1051
 1850TIP3    H2 5496   1.639   0.122   3.926  0.3296  0.4486 -3.2515
 1851TIP3   OH2 5497   2.512   0.464   0.362  0.1009  0.3501 -0.3823
 1851TIP3    H1 5498   2.477   0.507   0.284 -0.0475 -0.4655 -0.7652
 1851TIP3    H2 5499   2.564   0.391   0.329  0.3199  0.2025  0.2690
 1852TIP3   OH2 5500   1.285   0.130   5.337 -0.8501  0.0150 -0.2356
 1852TIP3    H1 5501   1.316   0.064   5.275 -2.4877 -0.6208 -0.3833
 1852TIP3    H2 5502   1.231   0.081   5.399 -0.5724  0.9225  0.7324
 1853TIP3   OH2 5503   4.802   1.481   6.048 -0.1544  0.3701 -0.3530
 1853TIP3    H1 5504   4.865   1.427   6.095 -2.8625 -1.4399  1.3214
 1853TIP3    H2 5505   4.794   1.561   6.102  0.8160  0.6686 -0.6537
 1854TIP3   OH2 5506   3.882   0.481   5.117 -0.1650 -0.0369  0.7855
 1854TIP3    H1 5507   3.966   0.515   5.148  1.1437 -1.0095 -1.5327
 1854TIP3    H2 5508   3.882   0.389   5.142  0.4827 -0.5909 -1.1794
 1855TIP3   OH2 5509   0.413   7.437   2.465  0.3539 -0.1390 -0.2091
 1855TIP3    H1 5510   0.492   7.384   2.456 -1.2227 -2.9102  1.2451
 1855TIP3    H2 5511   0.353   7.403   2.399 -0.0557  1.1162 -0.5033
 1856TIP3   OH2 5512   6.973   7.958   4.256  0.0897  0.0223 -0.8906
 1856TIP3    H1 5513   6.968   8.012   4.335  1.2556 -2.2062  0.7345
 1856TIP3    H2 5514   6.951   8.019   4.185 -1.5474  1.9188  1.1741
 1857TIP3   OH2 5515   3.651   1.956   4.678 -0.2587 -0.4902  0.1750
 1857TIP3    H1 5516   3.704   1.877   4.664  0.1666 -0.3702  1.0942
 1857TIP3    H2 5517   3.563   1.931   4.648  0.0225 -1.1036 -0.1478
 1858TIP3   OH2 5518   3.056   0.559   2.835 -0.1140  0.0334  0.6432
 1858TIP3    H1 5519   3.065   0.652   2.817  1.3223 -0.1497  0.3655
 1858TIP3    H2 5520   3.011   0.555   2.920  0.2527  0.9763  0.8892
 1859TIP3   OH2 5521   0.556   7.722   4.102  0.1236  0.6306  0.2196
 1859TIP3    H1 5522   0.533   7.794   4.042 -1.0147  0.4681  0.4487
 1859TIP3    H2 5523   0.472   7.683   4.125  0.5673  0.5600  1.7702
 1860TIP3   OH2 5524   3.067   1.895   3.510  0.7643 -0.8334 -0.8026
 1860TIP3    H1 5525   2.987   1.900   3.562  1.1339  0.5463 -0.3501
 1860TIP3    H2 5526   3.088   1.801   3.507 -0.5898 -1.1539 -0.5207
 1861TIP3   OH2 5527   3.138   2.623   5.412 -0.4822 -0.5292 -0.0313
 1861TIP3    H1 5528   3.082   2.700   5.403 -0.1046 -0.2115  0.3109
 1861TIP3    H2 5529   3.225   2.658   5.427  0.0718 -1.0145 -1.9774
 1862TIP3   OH2 5530   1.569   1.024   2.021  0.4922  0.1448 -0.2095
 1862TIP3    H1 5531   1.473   1.016   2.021  0.4696 -0.8737  3.6725
 1862TIP3    H2 5532   1.599   0.933   2.015  1.1635  0.3776 -0.2968
 1863TIP3   OH2 5533   4.208   2.104   3.559 -0.4003 -0.0672  0.4247
 1863TIP3    H1 5534   4.170   2.189   3.579  0.4440 -0.2843  3.2096
 1863TIP3    H2 5535   4.286   2.099   3.614 -0.6636 -2.7896  0.6291
 1864TIP3   OH2 5536   4.019   2.806   3.533  0.3148 -0.0844 -0.1138
 1864TIP3    H1 5537   4.017   2.765   3.619 -0.7209  0.0429 -0.0750
 1864TIP3    H2 5538   4.098   2.771   3.492  0.1273 -1.1244  0.3934
 1865TIP3   OH2 5539   3.358   1.846   5.370  0.0137 -0.2733  0.4074
 1865TIP3    H1 5540   3.314   1.921   5.412  1.4110 -0.1523  1.7105
 1865TIP3    H2 5541   3.450   1.856   5.395  0.1169 -2.7792  1.1066
 1866TIP3   OH2 5542   2.756   0.458   4.075  0.2960 -0.3006 -0.3264
 1866TIP3    H1 5543   2.720   0.369   4.068  0.6403 -0.5464  0.8628
 1866TIP3    H2 5544   2.851   0.446   4.073  0.3589 -0.0745  0.9830
 1867TIP3   OH2 5545   0.085   7.934   3.367 -0.4966 -0.2948  0.5300
 1867TIP3    H1 5546   0.023   7.954   3.437 -1.5410  0.2145 -0.5177
 1867TIP3    H2 5547   0.123   7.850   3.392 -2.1018 -0.9406  0.8566
 1868TIP3   OH2 5548   0.044   0.723   5.037  0.4189 -0.8819  0.1937
 1868TIP3    H1 5549   0.117   0.693   5.092  0.1360 -1.4474  0.2685
 1868TIP3    H2 5550  -0.001   0.789   5.090  1.5577  0.3324 -0.3121
 1869TIP3   OH2 5551   2.256   0.510   3.307 -0.4464  0.1651 -0.6414
 1869TIP3    H1 5552   2.309   0.561   3.244 -0.8479  0.2141 -0.9404
 1869TIP3    H2 5553   2.318   0.487   3.376  0.0524 -0.0565 -1.1524
 1870TIP3   OH2 5554   2.983   0.353   2.114  0.1837  0.2099  0.2217
 1870TIP3    H1 5555   3.031   0.364   2.032 -0.6797 -0.8813 -0.4414
 1870TIP3    H2 5556   2.962   0.259   2.117  2.0831 -0.1783  2.7431
 1871TIP3   OH2 5557   0.663   7.210   2.535 -0.4004  0.0491  0.2751
 1871TIP3    H1 5558   0.730   7.144   2.518  0.6454  0.6844  1.8045
 1871TIP3    H2 5559   0.593   7.163   2.581  0.1476 -0.1016  0.9637
 1872TIP3   OH2 5560   0.310   7.074   4.182  0.0558  0.2667  0.5061
 1872TIP3    H1 5561   0.228   7.050   4.139 -0.9472  0.0344  2.5216
 1872TIP3    H2 5562   0.356   6.990   4.194 -0.1287  0.2118  0.8283
 1873TIP3   OH2 5563   3.184   0.092   4.124 -0.5956 -0.3597  0.0718
 1873TIP3    H1 5564   3.245   0.048   4.065 -0.3788  1.1494 -0.8548
 1873TIP3    H2 5565   3.235   0.111   4.202 -0.0334  0.3472 -0.4581
 1874TIP3   OH2 5566   7.882   7.211   3.199 -0.7004 -0.2606  0.7874
 1874TIP3    H1 5567   7.884   7.117   3.218 -1.9661  0.0606  2.6989
 1874TIP3    H2 5568   7.831   7.219   3.118 -0.0879 -1.2603  0.2986
 1875TIP3   OH2 5569   2.709   7.632   5.933  0.5373  0.4196 -0.2457
 1875TIP3    H1 5570   2.644   7.588   5.879  1.1844 -3.3873  1.8960
 1875TIP3    H2 5571   2.775   7.663   5.871 -0.4272 -0.7769 -1.9169
 1876TIP3   OH2 5572   1.467   6.712   5.844  0.1807 -0.4489 -0.3328
 1876TIP3    H1 5573   1.508   6.784   5.795 -0.3220 -0.5060 -0.8440
 1876TIP3    H2 5574   1.415   6.665   5.778 -0.3232 -0.6587  0.2122
 1877TIP3   OH2 5575   0.105   7.614   4.407  0.0774 -0.2086  0.1396
 1877TIP3    H1 5576   0.124   7.525   4.376  1.4575  0.5723 -1.3112
 1877TIP3    H2 5577   0.042   7.648   4.344  2.7223  1.3043 -1.8074
 1878TIP3   OH2 5578   7.586   7.492   4.671 -0.0900  0.5424  0.1311
 1878TIP3    H1 5579   7.539   7.421   4.627  1.4104 -0.5604  0.2608
 1878TIP3    H2 5580   7.611   7.551   4.599  0.2620 -0.0159 -0.2105
 1879TIP3   OH2 5581   8.032   7.038   4.762 -0.1559  0.4337  0.0594
 1879TIP3    H1 5582   8.061   7.106   4.700 -0.5093  0.8273  0.3227
 1879TIP3    H2 5583   7.961   6.993   4.717  0.4012 -0.0943 -0.3155
 1880TIP3   OH2 5584   3.893   0.223   4.088  0.5386  0.5358  0.4386
 1880TIP3    H1 5585   3.887   0.317   4.106  1.8269  0.8532 -0.7131
 1880TIP3    H2 5586   3.910   0.183   4.173  0.1821  1.3590  0.9069
 1881TIP3   OH2 5587   7.435   4.793   0.234  0.3631 -0.0580 -0.2232
 1881TIP3    H1 5588   7.432   4.874   0.285  0.9701  0.3923 -0.8939
 1881TIP3    H2 5589   7.519   4.796   0.189  0.4346 -1.1173 -0.1744
 1882TIP3   OH2 5590   6.394   6.623   2.319 -0.8614  0.4163 -0.0878
 1882TIP3    H1 5591   6.380   6.546   2.374  3.3631 -1.0181 -0.7865
 1882TIP3    H2 5592   6.410   6.695   2.381  0.5572 -0.4855  0.6327
 1883TIP3   OH2 5593   1.288   0.409   5.278  0.3206 -0.5381  0.1011
 1883TIP3    H1 5594   1.279   0.444   5.366 -3.2415 -1.4194  0.1839
 1883TIP3    H2 5595   1.304   0.315   5.291  0.9222 -0.4758 -0.1829
 1884TIP3   OH2 5596   2.515   2.092   1.529 -0.2799  0.0887 -0.1085
 1884TIP3    H1 5597   2.508   2.160   1.596 -0.4241  0.3985 -0.4379
 1884TIP3    H2 5598   2.534   2.012   1.579 -2.0158  0.0086  0.4374
 1885TIP3   OH2 5599   1.723   0.500   4.283  0.0788  0.2469  0.1125
 1885TIP3    H1 5600   1.713   0.520   4.190  0.9493  0.9256  0.1575
 1885TIP3    H2 5601   1.724   0.586   4.325  2.0011  0.0484  0.5128
 1886TIP3   OH2 5602   2.217   0.093   3.853  0.7717 -0.2016  0.6105
 1886TIP3    H1 5603   2.222   0.187   3.874  0.7105 -0.3906  1.4824
 1886TIP3    H2 5604   2.264   0.050   3.924  1.2487 -0.8030 -0.0656
 1887TIP3   OH2 5605   2.454   0.974   3.380 -0.0155  0.3334  0.0927
 1887TIP3    H1 5606   2.507   0.895   3.393  0.2807  0.0388 -2.5347
 1887TIP3    H2 5607   2.382   0.966   3.442  1.7840 -0.3727  2.1626
 1888TIP3   OH2 5608   1.464   5.995   2.332  0.0529 -0.0920  0.2229
 1888TIP3    H1 5609   1.501   5.933   2.268  0.9750 -0.7276  1.3408
 1888TIP3    H2 5610   1.465   5.946   2.415 -0.5769  0.9270  0.8330
 1889TIP3   OH2 5611   2.812   0.915   3.636 -0.3600 -0.2208 -0.3007
 1889TIP3    H1 5612   2.726   0.898   3.675 -0.3167  1.3345  0.5327
 1889TIP3    H2 5613   2.804   1.003   3.598  1.2508  0.4876  0.9349
 1890TIP3   OH2 5614   1.615   2.537   5.721 -0.3110  0.8082 -0.1130
 1890TIP3    H1 5615   1.558   2.494   5.657  1.4261  0.2666 -1.3126
 1890TIP3    H2 5616   1.609   2.483   5.800 -0.7736  0.2755 -0.5182
 1891TIP3   OH2 5617   7.131   7.486   2.938 -0.0841 -0.1319 -0.9468
 1891TIP3    H1 5618   7.084   7.428   2.998 -0.8682  1.6426  0.1921
 1891TIP3    H2 5619   7.222   7.455   2.942  0.0091  0.3143  1.6727
 1892TIP3   OH2 5620   2.617   1.278   3.928  0.4215  0.7875  0.0399
 1892TIP3    H1 5621   2.624   1.325   4.012 -1.1407  0.8789  0.1325
 1892TIP3    H2 5622   2.618   1.186   3.952 -0.3749  0.8167  0.1947
 1893TIP3   OH2 5623   3.065   1.437   3.126 -0.5802 -0.3425  0.0889
 1893TIP3    H1 5624   3.119   1.500   3.079 -2.3305  0.5086 -0.7826
 1893TIP3    H2 5625   2.982   1.482   3.141 -0.2129 -0.7085  3.6689
 1894TIP3   OH2 5626   3.553   2.259   4.137 -0.0208 -0.7373  0.6870
 1894TIP3    H1 5627   3.536   2.340   4.089 -1.7316 -1.5688 -0.1467
 1894TIP3    H2 5628   3.542   2.190   4.072  0.6039 -1.6861  1.5832
 1895TIP3   OH2 5629   1.632   0.416   3.684 -0.5677  0.3461  0.4955
 1895TIP3    H1 5630   1.696   0.416   3.755 -1.0754  1.1288  0.9588
 1895TIP3    H2 5631   1.658   0.488   3.627 -0.7381  0.3436  0.4142
 1896TIP3   OH2 5632   2.634   1.234   4.477  0.6280  0.3864 -0.0113
 1896TIP3    H1 5633   2.621   1.319   4.520  0.5540 -0.5026  1.7341
 1896TIP3    H2 5634   2.584   1.172   4.529  0.2536 -0.6696 -1.5925
 1897TIP3   OH2 5635   6.502   7.025   3.507 -0.5382 -0.3662 -0.2686
 1897TIP3    H1 5636   6.519   7.002   3.415  0.5899  0.9688 -0.4108
 1897TIP3    H2 5637   6.409   7.010   3.519 -0.6694 -0.6788 -1.5931
 1898TIP3   OH2 5638   5.919   7.804   4.180 -0.3053 -0.1397  0.2061
 1898TIP3    H1 5639   5.989   7.744   4.152  1.6740  1.8971  0.6322
 1898TIP3    H2 5640   5.891   7.769   4.265  0.5262 -0.7249  0.2558
 1899TIP3   OH2 5641   2.734   0.383   2.429  0.3720 -0.6346 -0.1818
 1899TIP3    H1 5642   2.822   0.418   2.427  1.0099 -2.0061  2.2149
 1899TIP3    H2 5643   2.678   0.455   2.401  2.0715  0.8081  0.0911
 1900TIP3   OH2 5644   2.408   0.849   2.897 -0.3601 -0.4515  0.2360
 1900TIP3    H1 5645   2.341   0.883   2.956 -1.3514 -0.4254 -0.8785
 1900TIP3    H2 5646   2.485   0.904   2.912  0.0119 -1.6292  2.8386
 1901TIP3   OH2 5647   2.666   1.685   4.247 -0.2059 -0.1179 -0.0725
 1901TIP3    H1 5648   2.697   1.613   4.302 -0.2288 -1.7230 -2.1027
 1901TIP3    H2 5649   2.585   1.714   4.290  0.1089 -0.9058  1.0876
 1902TIP3   OH2 5650   8.062   6.614   3.079  0.3339 -0.1340  0.2223
 1902TIP3    H1 5651   8.156   6.596   3.078  0.1566 -1.1178 -1.3679
 1902TIP3    H2 5652   8.024   6.541   3.030 -0.9887  1.5944 -1.3850
 1903TIP3   OH2 5653   7.738   8.042   3.156 -0.3052 -0.2095  0.1891
 1903TIP3    H1 5654   7.770   7.973   3.097  0.7013  1.2035 -0.9681
 1903TIP3    H2 5655   7.714   7.996   3.236  0.4473 -1.8983 -0.5267
 1904TIP3   OH2 5656   4.668   6.669   3.802  0.2947 -0.2236  0.2772
 1904TIP3    H1 5657   4.738   6.720   3.761 -0.6952 -1.3641 -3.0161
 1904TIP3    H2 5658   4.713   6.593   3.838  1.1048  0.3763  0.5437
 1905TIP3   OH2 5659   1.722   7.449   5.491  0.0616 -0.0515 -0.0328
 1905TIP3    H1 5660   1.663   7.381   5.458 -0.9060  0.4055  0.7188
 1905TIP3    H2 5661   1.793   7.401   5.533  1.8792 -0.6745 -3.6129
 1906TIP3   OH2 5662   3.037   1.873   4.186 -0.6963  0.1756  0.3179
 1906TIP3    H1 5663   2.990   1.944   4.230  0.2526  0.3459  1.0759
 1906TIP3    H2 5664   2.990   1.794   4.214 -0.7467  0.3716  0.8080
 1907TIP3   OH2 5665   3.182   0.634   3.500 -0.0110  0.6492 -0.1089
 1907TIP3    H1 5666   3.118   0.703   3.483 -0.8461  0.1729  1.0079
 1907TIP3    H2 5667   3.141   0.555   3.465 -0.6413  0.1108  1.7444
 1908TIP3   OH2 5668   1.098   7.276   2.323 -0.4602 -0.2788 -0.5854
 1908TIP3    H1 5669   1.159   7.350   2.322  1.2084 -1.5566  1.5345
 1908TIP3    H2 5670   1.149   7.202   2.291 -1.0662 -1.2258  0.5836
 1909TIP3   OH2 5671   7.984   7.813   4.522  0.3538  1.2601  0.0680
 1909TIP3    H1 5672   8.022   7.814   4.434  0.0828 -0.2409 -0.0799
 1909TIP3    H2 5673   8.054   7.782   4.579  0.2297  1.2737  0.2297
 1910TIP3   OH2 5674   0.771   0.504   4.203 -0.1365 -0.1899 -0.1061
 1910TIP3    H1 5675   0.785   0.514   4.109 -0.6630 -0.1416 -0.1796
 1910TIP3    H2 5676   0.706   0.434   4.210  0.6622 -0.9094  0.2581
 1911TIP3   OH2 5677   3.229   0.523   3.994 -0.5411 -0.0973 -0.4102
 1911TIP3    H1 5678   3.175   0.576   3.936 -3.5228 -0.9550  1.4235
 1911TIP3    H2 5679   3.166   0.463   4.035  2.2373 -2.9295 -0.1216
 1912TIP3   OH2 5680   2.415   0.405   3.706  0.3544 -0.0440 -0.3612
 1912TIP3    H1 5681   2.464   0.331   3.741  3.2557  1.2456 -1.5844
 1912TIP3    H2 5682   2.348   0.422   3.772  0.7374 -2.6255  0.7632
 1913TIP3   OH2 5683   3.985   1.390   3.622 -0.2007  0.4518  0.3509
 1913TIP3    H1 5684   4.038   1.311   3.637  1.2658  1.5222  0.8812
 1913TIP3    H2 5685   4.012   1.422   3.537  0.7035  1.5243  1.0262
 1914TIP3   OH2 5686   3.233   1.445   5.509 -0.2729  0.0214  1.1552
 1914TIP3    H1 5687   3.273   1.360   5.490  1.2412  0.7905  0.7975
 1914TIP3    H2 5688   3.304   1.496   5.549 -0.9887  1.3115  0.7861
 1915TIP3   OH2 5689   4.186   7.236   2.729 -0.1756 -0.9435  0.1853
 1915TIP3    H1 5690   4.174   7.252   2.822 -0.4825  0.6629 -0.1054
 1915TIP3    H2 5691   4.181   7.323   2.689 -1.5267 -1.7612 -1.4873
 1916TIP3   OH2 5692   1.487   0.242   3.838 -0.2974  0.8198 -0.4897
 1916TIP3    H1 5693   1.460   0.315   3.893 -0.2371  0.9065 -0.5752
 1916TIP3    H2 5694   1.544   0.281   3.772  3.2080  0.1205  1.9315
 1917TIP3   OH2 5695   0.487   0.154   3.336 -0.6761  0.6838  0.2718
 1917TIP3    H1 5696   0.525   0.199   3.261 -1.8374 -0.3873 -0.9936
 1917TIP3    H2 5697   0.529   0.193   3.412  2.6748 -0.2314 -1.0328
 1918TIP3   OH2 5698   5.538   6.723   3.175  0.1916 -0.3690  0.6895
 1918TIP3    H1 5699   5.495   6.758   3.096  0.7995 -0.9680  0.0948
 1918TIP3    H2 5700   5.521   6.629   3.172  1.2196 -0.5545  0.6567
 1919TIP3   OH2 5701   7.408   7.136   4.102  0.5639 -0.3305  0.1287
 1919TIP3    H1 5702   7.478   7.129   4.037  0.7332 -1.0269  0.3823
 1919TIP3    H2 5703   7.429   7.070   4.168  0.9924  1.1400  1.4726
 1920TIP3   OH2 5704   0.262   5.970   0.812 -0.0866  0.1551 -0.0800
 1920TIP3    H1 5705   0.350   5.933   0.823  0.9787  2.5764 -0.2689
 1920TIP3    H2 5706   0.269   6.025   0.734 -1.1266  2.2261  1.2551
 1921TIP3   OH2 5707   1.627   7.732   4.552 -0.0459 -0.2957  0.0197
 1921TIP3    H1 5708   1.680   7.748   4.630 -1.2312  0.0693  0.7582
 1921TIP3    H2 5709   1.548   7.689   4.584 -0.7434  0.2540 -0.9239
 1922TIP3   OH2 5710   5.972   7.025   3.541 -0.3091 -0.6901 -0.2415
 1922TIP3    H1 5711   5.969   6.937   3.505 -2.3793 -1.5268  1.9283
 1922TIP3    H2 5712   5.886   7.039   3.580 -0.9508  3.2360 -2.7101
 1923TIP3   OH2 5713   3.897   0.479   4.198  0.1121 -0.4656  0.7072
 1923TIP3    H1 5714   3.811   0.513   4.175 -0.2451 -0.4761  1.9889
 1923TIP3    H2 5715   3.959   0.542   4.162 -0.5209  1.1699  2.3833
 1924TIP3   OH2 5716   2.595   1.079   4.778 -0.0963  0.6603 -0.3112
 1924TIP3    H1 5717   2.642   1.051   4.856  1.0107  0.3748 -1.0610
 1924TIP3    H2 5718   2.564   1.167   4.798 -0.6472  0.2350  0.7911
 1925TIP3   OH2 5719   3.485   0.390   4.659  0.0011 -0.3062  0.2011
 1925TIP3    H1 5720   3.491   0.458   4.593 -1.0768  1.5230  1.9231
 1925TIP3    H2 5721   3.555   0.410   4.721 -1.1550  0.0484  1.4159
 1926TIP3   OH2 5722   2.858   0.324   4.562  0.2119 -0.4171  0.5957
 1926TIP3    H1 5723   2.843   0.408   4.520  1.3119 -1.1966 -1.4401
 1926TIP3    H2 5724   2.932   0.339   4.620  1.4078 -0.3291 -0.9183
 1927TIP3   OH2 5725   3.575   0.633   3.248  0.1704  0.1970  0.0203
 1927TIP3    H1 5726   3.549   0.679   3.328  0.7612  0.5230  0.0257
 1927TIP3    H2 5727   3.590   0.703   3.184 -0.9807 -0.0918 -0.5828
 1928TIP3   OH2 5728   6.965   7.020   3.729 -0.1555  0.0042  0.7153
 1928TIP3    H1 5729   6.934   7.062   3.810  0.9720 -0.4397  1.3768
 1928TIP3    H2 5730   7.031   6.958   3.757  0.1917 -0.2203 -0.5506
 1929TIP3   OH2 5731   2.981   1.504   4.802 -0.0496  0.4570 -0.2897
 1929TIP3    H1 5732   2.921   1.564   4.846  0.4515  0.4577  0.3969
 1929TIP3    H2 5733   2.925   1.451   4.746 -0.7945 -0.0425  0.9059
 1930TIP3   OH2 5734   3.279   0.732   5.481 -0.2499 -0.1173  0.4161
 1930TIP3    H1 5735   3.309   0.696   5.565  0.6717 -1.0267 -0.2926
 1930TIP3    H2 5736   3.183   0.723   5.484 -0.0740 -2.2431  0.4497
 1931TIP3   OH2 5737   4.913   7.824   2.318 -0.2165  0.0704 -0.7781
 1931TIP3    H1 5738   4.870   7.861   2.241  1.1518  1.3049 -0.9733
 1931TIP3    H2 5739   4.975   7.761   2.282 -1.7921 -1.6996 -0.4962
 1932TIP3   OH2 5740   3.583   0.523   4.430 -0.2198 -0.1531  0.2067
 1932TIP3    H1 5741   3.647   0.496   4.365  0.0634 -0.9126  0.7892
 1932TIP3    H2 5742   3.605   0.614   4.450 -1.0908  0.4914 -1.6601
 1933TIP3   OH2 5743   4.147   2.204   4.958 -0.0439 -0.1714  0.0036
 1933TIP3    H1 5744   4.143   2.297   4.937  1.4199 -0.0206  0.3159
 1933TIP3    H2 5745   4.240   2.184   4.960 -0.3776 -2.0641 -1.8284
 1934TIP3   OH2 5746   5.436   0.668   4.413 -0.6551 -0.3065 -0.0285
 1934TIP3    H1 5747   5.469   0.753   4.441 -1.9215 -0.3434  1.6825
 1934TIP3    H2 5748   5.343   0.682   4.397 -0.9357 -1.4290  0.5605
 1935TIP3   OH2 5749   3.456   0.295   1.634  0.0987  0.5664 -0.8850
 1935TIP3    H1 5750   3.408   0.355   1.578 -1.9826  1.5373  1.8218
 1935TIP3    H2 5751   3.390   0.232   1.663  1.3622 -0.5539 -0.3940
 1936TIP3   OH2 5752   1.144   6.653   2.797  0.4463  0.1667 -0.0045
 1936TIP3    H1 5753   1.152   6.635   2.704 -0.3702 -0.1296 -0.0269
 1936TIP3    H2 5754   1.221   6.706   2.819  1.0201 -0.3801 -0.6878
 1937TIP3   OH2 5755   4.181   1.446   5.829 -0.3873 -0.1315  0.3321
 1937TIP3    H1 5756   4.099   1.483   5.799  0.0453  1.5590  1.1635
 1937TIP3    H2 5757   4.161   1.354   5.849 -1.9001  0.1039 -0.0847
 1938TIP3   OH2 5758   8.280   0.479   4.379 -0.2599 -0.2668 -0.2273
 1938TIP3    H1 5759   8.193   0.442   4.362 -0.3861 -0.1780  0.2265
 1938TIP3    H2 5760   8.328   0.408   4.421 -1.2619  0.8297  2.8874
 1939TIP3   OH2 5761   0.474   7.401   3.712  0.1015  0.0755  0.6262
 1939TIP3    H1 5762   0.528   7.408   3.791 -0.3978  1.3100  0.8693
 1939TIP3    H2 5763   0.535   7.413   3.640  0.2247  1.0900  0.8908
 1940TIP3   OH2 5764   8.331   7.627   0.598  0.3278 -0.1703 -1.1626
 1940TIP3    H1 5765   8.247   7.582   0.593 -0.1321  0.5478 -0.1074
 1940TIP3    H2 5766   8.322   7.702   0.540 -0.1161  0.4619 -0.2818
 1941TIP3   OH2 5767   7.571   6.394   1.966  0.5770 -0.2416  0.2730
 1941TIP3    H1 5768   7.517   6.470   1.947  0.1804 -0.6927 -0.4306
 1941TIP3    H2 5769   7.546   6.368   2.055 -0.1317 -0.2570  0.0691
 1942TIP3   OH2 5770   0.767   0.288   5.208 -0.0172 -0.0007 -0.3720
 1942TIP3    H1 5771   0.860   0.271   5.199  1.0060  4.3311  0.6669
 1942TIP3    H2 5772   0.754   0.301   5.302 -1.6084 -0.2991 -0.5424
 1943TIP3   OH2 5773   7.534   7.875   4.144  0.1468  0.3921  0.1995
 1943TIP3    H1 5774   7.439   7.873   4.133 -0.0954 -0.5347  2.1773
 1943TIP3    H2 5775   7.567   7.806   4.086 -0.6722 -1.3682  1.7743
 1944TIP3   OH2 5776   1.189   7.652   3.602  0.2123  0.2586 -0.4774
 1944TIP3    H1 5777   1.258   7.687   3.658 -0.2810 -0.6090  0.6870
 1944TIP3    H2 5778   1.179   7.718   3.533  1.7665  0.6756 -0.3150
 1945TIP3   OH2 5779   6.694   7.717   4.521  0.4278 -0.4561  0.0152
 1945TIP3    H1 5780   6.730   7.752   4.439 -1.4261  0.9388 -0.2482
 1945TIP3    H2 5781   6.604   7.748   4.522 -0.2458 -2.3729  1.5111
 1946TIP3   OH2 5782   7.602   5.411   4.326  0.0750 -0.1386  0.1926
 1946TIP3    H1 5783   7.666   5.390   4.395  1.4602 -0.1615 -1.0882
 1946TIP3    H2 5784   7.655   5.442   4.253 -1.4587  0.7196 -0.5679
 1947TIP3   OH2 5785   2.998   0.545   4.350 -0.0840  0.1241  0.8647
 1947TIP3    H1 5786   3.027   0.523   4.438 -1.7181 -0.3380  1.3052
 1947TIP3    H2 5787   3.077   0.576   4.305  1.0857 -1.1981  1.9815
 1948TIP3   OH2 5788   0.193   5.996   3.910  0.1610  0.5807  0.3061
 1948TIP3    H1 5789   0.201   6.024   4.002  0.0965  1.5621  0.0171
 1948TIP3    H2 5790   0.107   6.027   3.883  0.1582  0.2452 -0.0743
 1949TIP3   OH2 5791   6.185   8.010   5.336 -0.4952  0.6562  1.0855
 1949TIP3    H1 5792   6.277   8.012   5.365 -1.2294  0.2563  3.6028
 1949TIP3    H2 5793   6.190   7.989   5.243  2.0221  2.0593  0.8299
 1950TIP3   OH2 5794   1.926   2.878   3.163 -0.2681  0.1716 -0.3600
 1950TIP3    H1 5795   1.960   2.875   3.073 -0.1480  0.2504 -0.3172
 1950TIP3    H2 5796   1.988   2.825   3.213  0.0421  0.6819 -0.1996
 1951TIP3   OH2 5797   1.175   1.751   5.008 -0.0380  0.1604  0.0323
 1951TIP3    H1 5798   1.145   1.683   4.947 -0.2982 -0.4801  0.8650
 1951TIP3    H2 5799   1.216   1.817   4.952  0.5751 -0.8685 -0.7520
 1952TIP3   OH2 5800   0.708   2.048   5.808  0.4696 -0.3965 -0.5708
 1952TIP3    H1 5801   0.751   1.966   5.832 -0.5125 -0.0714  2.5347
 1952TIP3    H2 5802   0.632   2.021   5.756  1.6117 -1.2658 -1.8109
 1953TIP3   OH2 5803   1.575   0.617   4.779 -0.0248 -0.5678  0.3258
 1953TIP3    H1 5804   1.552   0.526   4.798 -0.1890 -1.1086 -2.2701
 1953TIP3    H2 5805   1.508   0.668   4.824 -0.5529 -1.7766  0.9337
 1954TIP3   OH2 5806   0.986   0.423   4.364  0.0281 -0.1334  0.1017
 1954TIP3    H1 5807   1.052   0.475   4.318  0.3662 -0.8560 -0.2348
 1954TIP3    H2 5808   0.906   0.436   4.313  0.2472 -0.4036 -0.3124
 1955TIP3   OH2 5809   0.986   7.201   2.585  0.6721  0.8483 -0.0648
 1955TIP3    H1 5810   1.003   7.251   2.506  2.7528  0.4711  0.1306
 1955TIP3    H2 5811   0.962   7.114   2.554  2.8511  0.2996 -0.2757
 1956TIP3   OH2 5812   0.255   6.470   3.606 -0.5383  0.0158  0.3787
 1956TIP3    H1 5813   0.229   6.560   3.586 -1.1586 -0.6885 -2.3207
 1956TIP3    H2 5814   0.351   6.473   3.609 -0.5561  0.7810  0.3841
 1957TIP3   OH2 5815   3.835   0.995   4.397 -0.6015 -0.2397 -0.1699
 1957TIP3    H1 5816   3.822   1.038   4.313  0.9545  1.0219  0.2052
 1957TIP3    H2 5817   3.791   1.051   4.460  0.0372 -0.0476  0.1123
 1958TIP3   OH2 5818   1.344   1.427   5.456  0.3738  0.1706  0.5691
 1958TIP3    H1 5819   1.274   1.390   5.509 -0.4807  2.0223  0.7630
 1958TIP3    H2 5820   1.322   1.403   5.366  0.1326 -0.2556  0.7411
 1959TIP3   OH2 5821   2.891   2.465   2.341 -0.3064  0.2084  0.1939
 1959TIP3    H1 5822   2.833   2.519   2.395 -0.7770  0.4292 -0.5195
 1959TIP3    H2 5823   2.978   2.504   2.352 -0.5095  0.6368  0.2923
 1960TIP3   OH2 5824   2.007   1.833   3.092  0.0090 -0.1758 -0.4603
 1960TIP3    H1 5825   1.924   1.812   3.134  0.2130 -1.3714 -0.6436
 1960TIP3    H2 5826   2.049   1.749   3.077  1.1026  0.3912 -0.6949
 1961TIP3   OH2 5827   5.886   7.054   2.834  0.3985  0.2942  0.0006
 1961TIP3    H1 5828   5.912   7.143   2.811  1.4854 -0.4602 -1.7333
 1961TIP3    H2 5829   5.935   7.035   2.914  0.0035  1.3156  0.4929
 1962TIP3   OH2 5830   4.483   7.547   2.332 -0.7545  0.1051 -0.3522
 1962TIP3    H1 5831   4.426   7.472   2.345 -0.8950  0.4370  1.0231
 1962TIP3    H2 5832   4.425   7.617   2.302 -1.0659  0.4066  0.9239
 1963TIP3   OH2 5833   2.438   1.498   3.147 -0.1250  0.1373 -0.3564
 1963TIP3    H1 5834   2.352   1.501   3.187  0.2567  1.0236  0.4253
 1963TIP3    H2 5835   2.480   1.420   3.184 -0.5644 -0.2641 -0.7005
 1964TIP3   OH2 5836   7.641   7.713   2.831  0.0500 -0.3911 -0.2291
 1964TIP3    H1 5837   7.608   7.801   2.815 -0.8538 -0.4491  1.2569
 1964TIP3    H2 5838   7.666   7.713   2.924 -0.6697 -1.9188 -0.0145
 1965TIP3   OH2 5839   3.664   0.265   3.251 -0.4333 -0.0863  0.2492
 1965TIP3    H1 5840   3.665   0.219   3.166  0.9022  1.2531 -0.4888
 1965TIP3    H2 5841   3.581   0.312   3.252 -0.6422 -0.4373 -0.1214
 1966TIP3   OH2 5842   1.482   1.650   2.676  0.4917  0.0198  0.4043
 1966TIP3    H1 5843   1.496   1.642   2.582 -0.5567  1.1981  0.1360
 1966TIP3    H2 5844   1.566   1.625   2.714  1.2490  0.5160 -0.8887
 1967TIP3   OH2 5845   0.504   7.880   1.693 -0.7042 -0.1323 -0.4691
 1967TIP3    H1 5846   0.527   7.955   1.748 -1.3427 -0.5433  0.3679
 1967TIP3    H2 5847   0.587   7.835   1.678 -0.4923  0.0881  0.0120
 1968TIP3   OH2 5848   3.876   0.036   3.890  0.1055 -0.3311 -0.1799
 1968TIP3    H1 5849   3.863   0.118   3.938 -0.3257 -0.9965  0.8694
 1968TIP3    H2 5850   3.902   0.063   3.802  1.2722  0.9195  0.5281
 1969TIP3   OH2 5851   4.381   1.512   3.005 -0.6290  0.8019  0.5638
 1969TIP3    H1 5852   4.394   1.598   2.965 -0.5097  0.0779 -0.9748
 1969TIP3    H2 5853   4.423   1.451   2.945 -0.2874 -0.2902  1.8926
 1970TIP3   OH2 5854   3.898   1.032   2.503 -0.1233 -0.3546  0.1814
 1970TIP3    H1 5855   3.987   1.041   2.538  0.0862 -3.8291  0.7829
 1970TIP3    H2 5856   3.841   1.036   2.581 -0.6207  2.5981 -0.2729
 1971TIP3   OH2 5857   4.838   0.799   1.998  0.2839 -0.3705 -0.0684
 1971TIP3    H1 5858   4.924   0.765   1.976  0.2799 -2.5880  3.0413
 1971TIP3    H2 5859   4.855   0.883   2.041  0.7107  0.1684 -1.2481
 1972TIP3   OH2 5860   4.334   0.790   3.226 -0.5491 -0.2994  0.2221
 1972TIP3    H1 5861   4.250   0.761   3.190 -0.4122  0.9535 -1.1829
 1972TIP3    H2 5862   4.318   0.881   3.251 -0.0396 -0.5320  1.4204
 1973TIP3   OH2 5863   5.071   0.068   2.848 -0.0780 -0.3147  0.4357
 1973TIP3    H1 5864   5.147   0.033   2.894 -0.1556  1.8255  2.2881
 1973TIP3    H2 5865   5.106   0.109   2.770  0.4844 -0.7907  0.4402
 1974TIP3   OH2 5866   3.186   0.395   3.706 -0.4207 -0.0443  0.3035
 1974TIP3    H1 5867   3.146   0.480   3.725  0.6555  0.1977  1.5272
 1974TIP3    H2 5868   3.260   0.389   3.767  1.4697 -0.4418 -1.9590
 1975TIP3   OH2 5869   2.726   0.725   4.020  0.5815 -0.2296 -0.3580
 1975TIP3    H1 5870   2.721   0.636   4.055  3.1999 -0.9446 -1.6701
 1975TIP3    H2 5871   2.819   0.743   4.013  0.0760  2.5551 -0.3302
 1976TIP3   OH2 5872   2.034   8.005   0.345  0.2654 -0.2046  0.1712
 1976TIP3    H1 5873   2.084   7.933   0.306  0.7413  0.0913  0.2419
 1976TIP3    H2 5874   2.045   7.994   0.439 -0.9467 -0.9643  0.2404
 1977TIP3   OH2 5875   0.269   6.465   1.964 -0.3295  0.2473  0.4054
 1977TIP3    H1 5876   0.192   6.445   2.016 -0.6286 -2.5744 -1.0600
 1977TIP3    H2 5877   0.276   6.394   1.901  0.1681  3.3633 -3.2804
 1978TIP3   OH2 5878   7.097   6.254   3.617  0.4048  0.1165  0.0085
 1978TIP3    H1 5879   7.113   6.328   3.558 -1.3340 -1.1698 -2.1697
 1978TIP3    H2 5880   7.148   6.182   3.579 -2.3545 -1.2850 -1.2326
 1979TIP3   OH2 5881   0.991   7.533   2.857 -0.1931  0.7920 -0.0891
 1979TIP3    H1 5882   0.944   7.615   2.847  0.8556  1.5021  0.6779
 1979TIP3    H2 5883   1.022   7.512   2.769 -1.6644  0.4630 -0.5479
 1980TIP3   OH2 5884   2.512   7.243   1.419 -0.3611 -0.3151  0.2516
 1980TIP3    H1 5885   2.481   7.229   1.509  0.9766 -0.2188  0.7396
 1980TIP3    H2 5886   2.587   7.184   1.410  1.0308  1.4438  0.0248
 1981TIP3   OH2 5887   4.567   1.534   1.532  0.3318 -0.5270  0.6812
 1981TIP3    H1 5888   4.475   1.516   1.514  0.8080 -1.9751 -0.3832
 1981TIP3    H2 5889   4.570   1.550   1.627 -1.1791  0.6916  0.5323
 1982TIP3   OH2 5890   3.391   1.598   2.605 -0.2424  0.1150 -0.2779
 1982TIP3    H1 5891   3.449   1.562   2.538  0.4467 -0.3768  0.5716
 1982TIP3    H2 5892   3.303   1.574   2.575  0.0812 -0.4539 -0.8016
 1983TIP3   OH2 5893   1.247   5.387   4.977 -0.0957 -0.6582  0.2124
 1983TIP3    H1 5894   1.181   5.332   5.019 -1.7189  1.6867  0.8116
 1983TIP3    H2 5895   1.284   5.331   4.908 -3.4430 -1.7006 -0.8614
 1984TIP3   OH2 5896   1.827   6.511   2.244  0.2513 -0.2062 -0.1681
 1984TIP3    H1 5897   1.840   6.437   2.185 -1.6744 -0.9584  0.2988
 1984TIP3    H2 5898   1.793   6.472   2.324 -1.4900  1.2243 -0.1709
 1985TIP3   OH2 5899   3.187   2.171   2.310 -0.1196 -0.3065 -0.6709
 1985TIP3    H1 5900   3.230   2.188   2.226  1.3658 -2.1496 -0.3328
 1985TIP3    H2 5901   3.210   2.247   2.364 -1.0440  0.8662 -1.8915
 1986TIP3   OH2 5902   1.991   7.646   3.421 -0.0951 -0.2688  0.0331
 1986TIP3    H1 5903   2.010   7.595   3.500 -0.9358  1.4304  1.3898
 1986TIP3    H2 5904   1.958   7.730   3.455  0.3795  0.8238 -2.1252
 1987TIP3   OH2 5905   4.997   0.662   0.979 -0.0868 -0.0384 -0.1276
 1987TIP3    H1 5906   5.070   0.612   0.942  1.2104  0.8222  1.1947
 1987TIP3    H2 5907   4.965   0.607   1.051  1.5267  1.0916  1.5134
 1988TIP3   OH2 5908   0.938   6.036   2.097 -0.1980  0.0978 -0.0683
 1988TIP3    H1 5909   0.922   6.073   2.011  0.3251 -2.6140 -1.3790
 1988TIP3    H2 5910   1.033   6.033   2.105 -0.2419  0.0132  0.4550
 1989TIP3   OH2 5911   5.189   0.119   2.163 -0.3455  0.3462 -0.0957
 1989TIP3    H1 5912   5.232   0.040   2.196 -1.8818  0.4013  2.0884
 1989TIP3    H2 5913   5.097   0.095   2.154 -0.5544  1.4212 -0.9863
 1990TIP3   OH2 5914   4.610   1.747   2.103  0.0056 -0.6246  0.0389
 1990TIP3    H1 5915   4.687   1.719   2.152  0.0507  1.4566  1.2191
 1990TIP3    H2 5916   4.536   1.728   2.161 -0.0631  0.4698  0.3369
 1991TIP3   OH2 5917   3.269   6.727   1.718  0.0769 -0.6082 -0.0222
 1991TIP3    H1 5918   3.240   6.811   1.753 -1.0035 -1.5450  1.3782
 1991TIP3    H2 5919   3.363   6.725   1.734 -0.3329 -0.8833  2.6491
 1992TIP3   OH2 5920   3.850   7.349   2.808  0.2104  0.3597 -0.7950
 1992TIP3    H1 5921   3.826   7.434   2.771  2.3500  0.8607 -1.1138
 1992TIP3    H2 5922   3.903   7.370   2.884 -0.6347 -0.6968  0.0938
 1993TIP3   OH2 5923   1.634   6.581   2.042 -0.1484  0.2517  0.2291
 1993TIP3    H1 5924   1.581   6.552   2.116  1.1960  0.7627  1.4182
 1993TIP3    H2 5925   1.708   6.519   2.039 -1.0259 -0.7661 -1.7220
 1994TIP3   OH2 5926   4.506   0.820   3.563  0.2498 -0.0565  0.0899
 1994TIP3    H1 5927   4.494   0.915   3.562  0.5243 -0.0217 -2.6057
 1994TIP3    H2 5928   4.439   0.789   3.625 -1.2084  1.7240 -0.5369
 1995TIP3   OH2 5929   4.486   0.474   3.115  0.0304 -0.1043  0.4113
 1995TIP3    H1 5930   4.558   0.412   3.127  1.9636  1.7201 -1.3638
 1995TIP3    H2 5931   4.494   0.534   3.189 -1.2982 -1.3894  1.6382
 1996TIP3   OH2 5932   5.367   0.919   1.913 -0.3165 -0.1657 -0.0421
 1996TIP3    H1 5933   5.311   0.922   1.991 -1.4775  1.4598 -0.9094
 1996TIP3    H2 5934   5.306   0.930   1.839  0.4924 -3.7357 -1.3399
 1997TIP3   OH2 5935   5.107   0.736   2.595 -0.0546 -0.4569 -0.5650
 1997TIP3    H1 5936   5.151   0.651   2.591 -1.6751 -1.3854  0.6956
 1997TIP3    H2 5937   5.081   0.755   2.505 -0.5562 -1.7809 -0.7059
 1998TIP3   OH2 5938   5.266   0.468   2.591  0.3673 -0.4511 -0.4315
 1998TIP3    H1 5939   5.299   0.384   2.625  0.7497 -0.1813 -0.1244
 1998TIP3    H2 5940   5.298   0.533   2.654 -0.9024 -0.1960 -0.0344
 1999TIP3   OH2 5941   7.650   7.725   3.119  0.2694  0.0427  0.2392
 1999TIP3    H1 5942   7.597   7.651   3.150 -3.0629  2.0761 -0.3726
 1999TIP3    H2 5943   7.653   7.785   3.193  0.8405  0.4284 -0.0908
 2000TIP3   OH2 5944   2.169   7.897   3.707 -0.3682 -0.6211 -0.4332
 2000TIP3    H1 5945   2.187   7.903   3.801  1.0327  0.6881 -0.7604
 2000TIP3    H2 5946   2.075   7.908   3.700 -0.5797 -1.4739  0.8759
 2001TIP3   OH2 5947   5.577   1.471   5.276  0.8937 -0.7797  0.8347
 2001TIP3    H1 5948   5.531   1.500   5.197  0.1632 -1.3273  1.0467
 2001TIP3    H2 5949   5.576   1.376   5.270 -0.3334 -0.8717  2.1383
 2002TIP3   OH2 5950   3.412   0.391   3.296  0.5048 -0.0516 -0.1321
 2002TIP3    H1 5951   3.323   0.403   3.262  0.3276 -0.4759  0.1643
 2002TIP3    H2 5952   3.454   0.476   3.287 -0.0854  0.2713  0.1556
 2003TIP3   OH2 5953   2.622   7.956   3.631  0.1734  0.5462 -0.0295
 2003TIP3    H1 5954   2.623   7.990   3.542  0.9474 -0.4683 -0.4165
 2003TIP3    H2 5955   2.561   7.883   3.629  1.6402 -0.7079 -0.2159
 2004TIP3   OH2 5956   0.894   7.917   1.510 -0.2584  0.1716  0.6583
 2004TIP3    H1 5957   0.933   7.972   1.442  0.0203 -0.4863  0.2787
 2004TIP3    H2 5958   0.848   7.979   1.567 -0.2100  0.7643  0.0670
 2005TIP3   OH2 5959   2.583   7.411   1.897 -0.4379 -0.1328 -0.5111
 2005TIP3    H1 5960   2.634   7.489   1.921 -1.3636  0.4031 -0.2457
 2005TIP3    H2 5961   2.596   7.402   1.803 -1.0644  0.8959 -0.7071
 2006TIP3   OH2 5962   8.119   7.040   3.871  0.3115  0.2523  0.1901
 2006TIP3    H1 5963   8.135   6.958   3.824  2.1421 -0.3302  1.7678
 2006TIP3    H2 5964   8.166   7.106   3.820  1.6187 -0.2442  0.7244
 2007TIP3   OH2 5965   0.582   7.784   2.807 -0.5414  0.1862  0.1948
 2007TIP3    H1 5966   0.543   7.749   2.727  0.6864  0.5379 -0.5781
 2007TIP3    H2 5967   0.620   7.868   2.780  0.3926  0.0341  1.0157
 2008TIP3   OH2 5968   5.449  -0.025   3.353 -0.6007 -0.1935 -0.5186
 2008TIP3    H1 5969   5.463   0.064   3.321 -0.6580  0.1257  0.3495
 2008TIP3    H2 5970   5.355  -0.030   3.368 -0.3232  0.3105  1.5120
 2009TIP3   OH2 5971   3.869   0.607   2.422 -0.3848 -0.0111 -0.2916
 2009TIP3    H1 5972   3.935   0.545   2.453  0.0119  1.3837  1.7885
 2009TIP3    H2 5973   3.796   0.552   2.392 -0.6103 -1.5092  2.7867
 2010TIP3   OH2 5974   4.530   0.080   1.873 -0.0752  0.2107 -0.5505
 2010TIP3    H1 5975   4.475   0.108   1.946  2.5766  1.3965  1.0813
 2010TIP3    H2 5976   4.516   0.146   1.805  0.4538  1.3544  0.4335
 2011TIP3   OH2 5977   3.155   0.454   3.181 -0.2369 -0.0646 -0.2344
 2011TIP3    H1 5978   3.074   0.474   3.133  0.3858  4.0501  0.2532
 2011TIP3    H2 5979   3.125   0.426   3.268 -1.1794  1.2066 -0.1323
 2012TIP3   OH2 5980   6.246   0.570   2.575 -0.0128  0.6774 -0.0360
 2012TIP3    H1 5981   6.310   0.541   2.641 -1.2494 -0.4777  0.6937
 2012TIP3    H2 5982   6.182   0.499   2.572  0.4972  0.2835 -3.1819
 2013TIP3   OH2 5983   3.569   0.467   2.922 -0.3376  0.0910 -0.7380
 2013TIP3    H1 5984   3.625   0.539   2.950  1.2234 -1.4394  0.1509
 2013TIP3    H2 5985   3.615   0.429   2.847  1.0131 -2.5856  1.3956
 2014TIP3   OH2 5986   2.286   7.164   3.361  0.3272  0.3254 -0.0593
 2014TIP3    H1 5987   2.303   7.224   3.288 -0.4448 -0.3142 -0.7773
 2014TIP3    H2 5988   2.271   7.079   3.319  2.3696 -0.5906  1.0094
 2015TIP3   OH2 5989   4.380   3.031   4.900 -0.5497  0.0079 -0.5969
 2015TIP3    H1 5990   4.472   3.022   4.873 -0.1456  1.0652  0.3827
 2015TIP3    H2 5991   4.379   3.110   4.954 -1.7427 -0.8759  0.7013
 2016TIP3   OH2 5992   6.899   0.559   5.973 -0.0922  0.0012  0.2028
 2016TIP3    H1 5993   6.824   0.616   5.954  0.3397  0.0441 -1.4763
 2016TIP3    H2 5994   6.866   0.471   5.954  0.7066  0.1499 -1.9977
 2017TIP3   OH2 5995   4.943   0.165   3.108 -0.0316  0.4594 -0.1914
 2017TIP3    H1 5996   4.920   0.134   3.020  0.5547 -0.2445 -0.0991
 2017TIP3    H2 5997   4.905   0.101   3.167 -2.0475  1.9320  0.1627
 2018TIP3   OH2 5998   2.356   1.539   4.401 -0.0972  0.1338 -0.2128
 2018TIP3    H1 5999   2.330   1.448   4.414  2.0017 -0.1213  2.8099
 2018TIP3    H2 6000   2.275   1.589   4.409 -1.0018 -1.3064 -0.2022
 2019TIP3   OH2 6001   4.395   1.965   2.480 -0.5475  0.1681  0.1317
 2019TIP3    H1 6002   4.419   2.035   2.541  0.0954  0.0703 -0.0057
 2019TIP3    H2 6003   4.409   2.003   2.393  2.1727 -0.9121  0.0520
 2020TIP3   OH2 6004   3.132   0.351   0.737 -0.2917 -0.0726 -0.3309
 2020TIP3    H1 6005   3.224   0.376   0.744 -0.3881  0.2472 -0.1908
 2020TIP3    H2 6006   3.092   0.420   0.686 -0.2747 -0.6826 -1.1796
 2021TIP3   OH2 6007   1.446   7.180   2.660  0.3978  0.0742 -0.5242
 2021TIP3    H1 6008   1.390   7.125   2.605  0.1662 -0.2264  0.0113
 2021TIP3    H2 6009   1.387   7.218   2.725  0.5548  0.9514 -0.8790
 2022TIP3   OH2 6010   4.054   0.956   2.858 -0.0006 -0.3625  0.4053
 2022TIP3    H1 6011   4.070   0.988   2.946  1.8740 -0.1022 -0.0064
 2022TIP3    H2 6012   4.091   0.867   2.858 -0.3192 -0.4979 -0.0177
 2023TIP3   OH2 6013   5.380   1.494   3.510 -0.8093  0.3069 -0.3385
 2023TIP3    H1 6014   5.293   1.532   3.524 -0.1611  1.2623  1.1857
 2023TIP3    H2 6015   5.399   1.447   3.591  0.4970  0.8691 -0.3173
 2024TIP3   OH2 6016   1.831   0.273   3.387  0.5989  0.6062 -0.2648
 2024TIP3    H1 6017   1.899   0.299   3.449  0.0579  1.6099 -0.0785
 2024TIP3    H2 6018   1.833   0.342   3.320  0.7347 -0.1188 -1.0149
 2025TIP3   OH2 6019   5.603   1.611   3.014  0.3002  0.1169 -0.3647
 2025TIP3    H1 6020   5.653   1.535   3.045 -0.2257  0.0142  0.2383
 2025TIP3    H2 6021   5.569   1.652   3.093  1.6114  1.7084 -0.6027
 2026TIP3   OH2 6022   0.265   6.147   3.474  0.0918 -0.2811 -0.7484
 2026TIP3    H1 6023   0.249   6.192   3.391 -0.1113  1.3934  0.1638
 2026TIP3    H2 6024   0.188   6.169   3.527  1.4492  0.8786  0.7900
 2027TIP3   OH2 6025   3.113   0.118   0.557 -0.4902 -0.3830 -0.3343
 2027TIP3    H1 6026   3.202   0.088   0.537 -0.1672  0.5663 -0.3593
 2027TIP3    H2 6027   3.123   0.171   0.636 -0.9078  0.3513 -0.7654
 2028TIP3   OH2 6028   0.878   7.803   2.852 -0.0259  0.1090  0.7047
 2028TIP3    H1 6029   0.895   7.897   2.846 -2.6255  0.7126  2.0056
 2028TIP3    H2 6030   0.784   7.797   2.872  0.0144 -2.7749  0.2263
 2029TIP3   OH2 6031   7.036   7.988   3.878 -0.3244 -0.3864 -0.5529
 2029TIP3    H1 6032   7.093   7.911   3.881 -0.9544 -0.8845 -0.9927
 2029TIP3    H2 6033   7.095   8.062   3.884  0.2539 -0.9133  0.4026
 2030TIP3   OH2 6034   2.411   1.558   2.878 -0.5019 -0.2972  0.2901
 2030TIP3    H1 6035   2.487   1.615   2.865 -0.2678 -1.1017 -2.1638
 2030TIP3    H2 6036   2.418   1.527   2.968  2.0960 -0.3529  0.0896
 2031TIP3   OH2 6037   2.651   1.356   2.678 -0.1898  0.7604 -0.3628
 2031TIP3    H1 6038   2.623   1.279   2.629 -0.0528  0.6804 -0.3145
 2031TIP3    H2 6039   2.584   1.422   2.658 -1.8968 -0.2208  1.8044
 2032TIP3   OH2 6040   1.330   7.068   1.342 -0.1539 -0.1640 -0.0744
 2032TIP3    H1 6041   1.336   6.974   1.360  0.5099  0.0715  0.9169
 2032TIP3    H2 6042   1.404   7.106   1.388  0.4316  0.6804 -1.6771
 2033TIP3   OH2 6043   3.914   0.349   0.872  0.5799 -0.1288  0.4451
 2033TIP3    H1 6044   3.851   0.415   0.901  0.7703 -0.5339  1.7900
 2033TIP3    H2 6045   3.989   0.400   0.842 -0.2774  0.3448 -0.9330
 2034TIP3   OH2 6046   4.992   1.570   1.070  0.0141  0.5559  0.0063
 2034TIP3    H1 6047   4.921   1.635   1.068 -1.8936 -1.4248  0.5660
 2034TIP3    H2 6048   4.960   1.503   1.131  2.1730 -0.6343 -0.1332
 2035TIP3   OH2 6049   1.349   1.985   5.324  0.7192  0.2343  0.2833
 2035TIP3    H1 6050   1.329   1.894   5.346  1.5427  0.0595  0.3279
 2035TIP3    H2 6051   1.431   1.981   5.275  0.6147  0.9254  0.0465
 2036TIP3   OH2 6052   7.848   6.734   1.697 -0.3530  0.3355 -0.3164
 2036TIP3    H1 6053   7.817   6.813   1.653 -3.2271 -0.8377 -0.5305
 2036TIP3    H2 6054   7.857   6.669   1.627 -1.0539 -0.4064  0.2672
 2037TIP3   OH2 6055   4.304  -0.032   3.025 -0.4459  0.3107 -0.1622
 2037TIP3    H1 6056   4.360   0.018   2.965 -0.2859 -0.5731 -0.7547
 2037TIP3    H2 6057   4.225   0.020   3.033 -0.4855  0.4162 -1.1795
 2038TIP3   OH2 6058   0.513   7.366   4.454 -0.3692  0.8458  0.2756
 2038TIP3    H1 6059   0.605   7.341   4.448 -0.3068  0.8478  1.2005
 2038TIP3    H2 6060   0.486   7.339   4.542 -1.2488  0.8591  0.0177
 2039TIP3   OH2 6061   3.480   0.325   2.239 -0.0959  0.0557  0.1373
 2039TIP3    H1 6062   3.467   0.341   2.145 -2.0233  0.3553  0.4383
 2039TIP3    H2 6063   3.413   0.378   2.282  0.3836 -0.5472  1.6623
 2040TIP3   OH2 6064   5.688   4.977   0.046 -0.1786  0.0237  0.4386
 2040TIP3    H1 6065   5.668   4.994   0.138 -1.2926 -1.0640  0.4098
 2040TIP3    H2 6066   5.757   4.912   0.047 -1.0945 -0.9674  0.5176
 2041TIP3   OH2 6067   4.771   0.259   3.588 -0.1779  0.2563 -0.2157
 2041TIP3    H1 6068   4.760   0.246   3.682 -2.4255 -0.6911 -0.5800
 2041TIP3    H2 6069   4.797   0.351   3.579 -1.9213  0.9027  1.1752
 2042TIP3   OH2 6070   3.654   7.292   3.027  0.1348 -0.0365  0.1427
 2042TIP3    H1 6071   3.568   7.301   2.986 -0.7482 -0.5997  1.8145
 2042TIP3    H2 6072   3.699   7.227   2.974 -0.4095  0.3562 -0.8258
 2043TIP3   OH2 6073   6.487   1.305   3.809 -0.2883  0.0796 -0.3610
 2043TIP3    H1 6074   6.492   1.297   3.713  1.8305 -0.1465 -0.2659
 2043TIP3    H2 6075   6.428   1.379   3.824  0.1082  0.7403 -1.8923
 2044TIP3   OH2 6076   2.365   0.311   3.974 -0.5611  0.4267  0.1222
 2044TIP3    H1 6077   2.453   0.274   3.980  0.0746  1.7252 -1.0585
 2044TIP3    H2 6078   2.359   0.371   4.048 -0.6093  0.0553  0.4263
 2045TIP3   OH2 6079   6.730   0.301   4.264 -0.0816 -0.2127  0.0858
 2045TIP3    H1 6080   6.660   0.352   4.306  0.6040  0.1799  0.7715
 2045TIP3    H2 6081   6.795   0.367   4.238  1.2403 -0.8107  1.8071
 2046TIP3   OH2 6082   3.273   0.107   3.225  0.0146 -0.1369  0.2672
 2046TIP3    H1 6083   3.210   0.088   3.154 -0.3802 -1.0600  0.8444
 2046TIP3    H2 6084   3.341   0.159   3.184  0.1258 -1.2288 -0.9586
 2047TIP3   OH2 6085   3.804   0.873   2.297  0.1418 -0.3803 -0.2579
 2047TIP3    H1 6086   3.833   0.940   2.359 -0.9849 -0.8645  0.8025
 2047TIP3    H2 6087   3.820   0.790   2.342 -3.2501 -0.6645  0.5538
 2048TIP3   OH2 6088   3.670   4.982   6.369 -0.4799 -0.7761 -0.3334
 2048TIP3    H1 6089   3.612   4.945   6.436  0.2550 -0.5464  0.4549
 2048TIP3    H2 6090   3.749   5.006   6.418 -1.7813  4.1122 -0.2996
 2049TIP3   OH2 6091   2.986   0.740   3.311  0.1215 -0.4390 -0.1654
 2049TIP3    H1 6092   3.016   0.748   3.220 -0.5311 -0.6168 -0.3974
 2049TIP3    H2 6093   2.900   0.699   3.304 -0.7817  1.3301  0.4095
 2050TIP3   OH2 6094   4.389   1.170   2.910 -0.2679 -0.2737 -0.0655
 2050TIP3    H1 6095   4.305   1.164   2.954 -0.9615  0.3092 -1.2664
 2050TIP3    H2 6096   4.384   1.105   2.840  0.7657 -1.1003  0.6191
 2051TIP3   OH2 6097   6.069   2.185   3.240  0.1659 -0.4639  0.4695
 2051TIP3    H1 6098   6.154   2.214   3.272 -0.9477  1.5917  1.7170
 2051TIP3    H2 6099   6.009   2.254   3.267 -1.7807 -1.5003 -1.0616
 2052TIP3   OH2 6100   0.308   7.988   2.759 -0.1334 -0.1607 -0.3023
 2052TIP3    H1 6101   0.357   8.029   2.687  1.3334  0.7985  1.2039
 2052TIP3    H2 6102   0.300   7.896   2.733  0.1653  0.2234 -1.7969
 2053TIP3   OH2 6103   2.651   7.788   1.594  0.1498 -0.4782  0.1202
 2053TIP3    H1 6104   2.593   7.836   1.653 -0.7438  1.0372 -1.9192
 2053TIP3    H2 6105   2.602   7.709   1.571  0.1470 -0.6476  0.6785
 2054TIP3   OH2 6106   7.048   0.153   0.980 -0.0481 -0.1342 -0.3353
 2054TIP3    H1 6107   6.975   0.105   1.016 -0.1613 -1.1117 -1.8144
 2054TIP3    H2 6108   7.112   0.086   0.956  1.3532  0.7065  0.9564
 2055TIP3   OH2 6109   0.260   4.850   4.004 -0.6298  0.3075  0.0645
 2055TIP3    H1 6110   0.311   4.924   3.972 -0.7840 -0.0676 -1.0698
 2055TIP3    H2 6111   0.265   4.857   4.099  0.0137  1.3168 -0.0345
 2056TIP3   OH2 6112   2.600   0.813   3.785 -0.1340  0.0926  0.2130
 2056TIP3    H1 6113   2.647   0.763   3.853 -0.5034 -1.8142 -0.8840
 2056TIP3    H2 6114   2.550   0.878   3.833  0.3822 -0.5923  1.7084
 2057TIP3   OH2 6115   3.912   1.153   0.461 -0.6893  0.3220 -0.3937
 2057TIP3    H1 6116   3.934   1.067   0.426 -1.3809 -0.2519  0.5783
 2057TIP3    H2 6117   3.989   1.207   0.441 -0.2451 -0.5148 -0.9857
 2058TIP3   OH2 6118   2.314   6.865   3.106 -0.2422  0.3597  0.7894
 2058TIP3    H1 6119   2.410   6.865   3.106 -0.2408 -0.0587  1.0131
 2058TIP3    H2 6120   2.290   6.841   3.196 -0.5505 -0.5442  0.4725
 2059TIP3   OH2 6121   0.979   7.333   1.961  0.3557  0.2093  0.5288
 2059TIP3    H1 6122   1.064   7.358   1.925 -0.7312 -0.0664 -2.2989
 2059TIP3    H2 6123   0.969   7.241   1.939 -0.5932  0.1681  1.0726
 2060TIP3   OH2 6124   2.842   0.776   1.179 -0.7478 -0.4363 -0.4685
 2060TIP3    H1 6125   2.828   0.734   1.264 -0.3694  0.5950  0.1101
 2060TIP3    H2 6126   2.791   0.857   1.183 -1.1443 -0.6300 -1.4231
 2061TIP3   OH2 6127   4.970   1.006   2.474  0.2787 -0.1569 -0.1839
 2061TIP3    H1 6128   4.931   0.927   2.437  1.8303 -0.8497 -0.3660
 2061TIP3    H2 6129   4.910   1.032   2.544 -0.8497 -0.8175 -0.8953
 2062TIP3   OH2 6130   7.558   7.107   2.424  0.0361  0.3755  0.0011
 2062TIP3    H1 6131   7.627   7.171   2.440  0.3826  0.1348 -0.5241
 2062TIP3    H2 6132   7.479   7.148   2.459 -0.0546  1.8184 -1.8330
 2063TIP3   OH2 6133   0.910   0.594   3.004 -0.0981 -0.3085 -0.1571
 2063TIP3    H1 6134   0.878   0.604   3.094  3.0377  1.5416  0.8317
 2063TIP3    H2 6135   0.897   0.502   2.984 -1.6113 -0.5817  1.8824
 2064TIP3   OH2 6136   4.775   0.392   3.177  0.1168  0.4111  0.0091
 2064TIP3    H1 6137   4.846   0.335   3.147  0.2243  0.0348  0.9424
 2064TIP3    H2 6138   4.797   0.478   3.143  1.4097  0.4456  0.9051
 2065TIP3   OH2 6139   3.492   0.051   2.276  0.3984  0.2418 -0.3146
 2065TIP3    H1 6140   3.568   0.016   2.228  0.9866  0.3339  0.5433
 2065TIP3    H2 6141   3.499   0.146   2.263  1.1387  0.3438  0.8061
 2066TIP3   OH2 6142   4.220   0.741   2.850  0.0027 -0.2052  0.3099
 2066TIP3    H1 6143   4.308   0.769   2.873 -0.6995  0.5293  2.2144
 2066TIP3    H2 6144   4.205   0.663   2.903 -1.1499  0.7203  1.3718
 2067TIP3   OH2 6145   1.109   7.714   3.063  0.0544  0.0444 -0.2115
 2067TIP3    H1 6146   1.119   7.809   3.076  0.4805  0.2968 -2.1730
 2067TIP3    H2 6147   1.035   7.706   3.003 -2.6833 -1.1266  3.1692
 2068TIP3   OH2 6148   1.589   1.349   2.691  0.2067 -0.0981  0.2403
 2068TIP3    H1 6149   1.633   1.429   2.721 -0.1827  0.5397 -0.8549
 2068TIP3    H2 6150   1.655   1.305   2.636 -0.4003  0.6992 -1.1426
 2069TIP3   OH2 6151   3.131   2.319   1.755  0.0085  0.3683 -0.2181
 2069TIP3    H1 6152   3.108   2.257   1.823  1.1357 -0.7658 -0.8549
 2069TIP3    H2 6153   3.060   2.313   1.691 -0.6093  0.8011  0.4210
 2070TIP3   OH2 6154   6.150   2.821   3.669  0.3885  0.0424 -0.3655
 2070TIP3    H1 6155   6.125   2.785   3.584 -0.3219 -0.8615  0.2100
 2070TIP3    H2 6156   6.084   2.786   3.730  1.0223  0.4848  0.5869
 2071TIP3   OH2 6157   2.871   0.891   4.655  0.4170  0.0585 -0.2125
 2071TIP3    H1 6158   2.899   0.981   4.673  0.0696  0.0893  0.1538
 2071TIP3    H2 6159   2.781   0.886   4.687 -0.0582 -0.0069 -1.5258
 2072TIP3   OH2 6160   0.869   6.645   2.444  0.6161 -0.9269  0.4035
 2072TIP3    H1 6161   0.853   6.701   2.520 -0.5567 -1.0478  0.2484
 2072TIP3    H2 6162   0.790   6.592   2.435 -0.0521  0.4177 -2.0450
 2073TIP3   OH2 6163   4.575  -0.017   1.436 -0.5651 -0.4043  0.0880
 2073TIP3    H1 6164   4.624   0.010   1.358  0.0327  2.0443  1.2408
 2073TIP3    H2 6165   4.502   0.046   1.440  1.0942  1.4367  3.1064
 2074TIP3   OH2 6166   2.170   0.392   4.326 -0.0511  0.2689 -0.5514
 2074TIP3    H1 6167   2.107   0.332   4.366 -0.8009  0.1862 -1.8450
 2074TIP3    H2 6168   2.168   0.470   4.382 -0.2979 -0.2600  0.1762
 2075TIP3   OH2 6169   5.870   2.140   1.940  0.1758 -0.1176 -0.5476
 2075TIP3    H1 6170   5.884   2.137   2.035  0.0103 -2.2572 -0.5624
 2075TIP3    H2 6171   5.788   2.188   1.930  0.6883  0.9717  0.3200
 2076TIP3   OH2 6172   3.083   7.895   1.667 -0.8023  0.2465 -0.0876
 2076TIP3    H1 6173   3.084   7.927   1.577 -0.0219 -2.0022 -0.9283
 2076TIP3    H2 6174   3.006   7.936   1.706  0.7302  3.8949 -0.7310
 2077TIP3   OH2 6175   1.936   7.569   2.556  0.1871 -0.5159  0.4148
 2077TIP3    H1 6176   1.914   7.485   2.596  0.0143  0.5612  2.6746
 2077TIP3    H2 6177   1.872   7.630   2.592  1.7607  1.0450  0.6578
 2078TIP3   OH2 6178   4.870   1.290   2.274  0.5537 -0.1675 -0.3155
 2078TIP3    H1 6179   4.832   1.375   2.252  0.7897  0.2972  1.0052
 2078TIP3    H2 6180   4.797   1.239   2.310  1.0020  0.5216  1.6679
 2079TIP3   OH2 6181   4.517   1.924   6.696  0.1015  0.1797  0.2791
 2079TIP3    H1 6182   4.470   1.921   6.613  0.5960 -0.9934  0.0360
 2079TIP3    H2 6183   4.576   1.999   6.688 -0.0926  0.2741 -0.2984
 2080TIP3   OH2 6184   3.640   0.102   1.720 -0.5032 -0.1915  0.2904
 2080TIP3    H1 6185   3.585   0.159   1.666  0.0843  1.0169  0.9596
 2080TIP3    H2 6186   3.717   0.155   1.740  0.6574 -1.6729 -0.1614
 2081TIP3   OH2 6187   3.991   0.759   3.146 -0.4298 -0.5498 -0.4866
 2081TIP3    H1 6188   3.948   0.700   3.208  1.2796 -0.4051  0.8581
 2081TIP3    H2 6189   4.075   0.717   3.126  0.8049  1.3833  0.4893
 2082TIP3   OH2 6190   1.728   5.690   2.588 -0.7037  1.2171  1.0155
 2082TIP3    H1 6191   1.780   5.685   2.508 -0.9567  1.3290  0.8418
 2082TIP3    H2 6192   1.766   5.762   2.638 -1.1235  1.7553  0.5747
 2083TIP3   OH2 6193   0.359   6.624   2.388  0.2501 -0.3301  0.2174
 2083TIP3    H1 6194   0.318   6.572   2.457 -1.0032 -1.0449 -1.0629
 2083TIP3    H2 6195   0.389   6.560   2.324  2.3776  0.2496  0.5707
 2084TIP3   OH2 6196   5.801   1.101   1.252  0.1085  0.6812 -0.3998
 2084TIP3    H1 6197   5.805   1.174   1.312 -0.4005  1.4764 -1.3141
 2084TIP3    H2 6198   5.892   1.081   1.231  0.2888  0.3653  0.6547
 2085TIP3   OH2 6199   4.774   1.301   3.063  0.3868 -0.8137 -0.0681
 2085TIP3    H1 6200   4.842   1.277   2.999  0.3827  1.1306 -0.8254
 2085TIP3    H2 6201   4.696   1.316   3.011  0.5456  1.4306  0.2981
 2086TIP3   OH2 6202   3.637   1.651   2.017 -0.7076 -0.0024  0.4242
 2086TIP3    H1 6203   3.673   1.599   1.944  0.6664  0.5590  0.6912
 2086TIP3    H2 6204   3.673   1.609   2.096 -1.6277 -0.1809  0.7464
 2087TIP3   OH2 6205   4.116   1.053   4.863  0.3026 -0.1205  0.6320
 2087TIP3    H1 6206   4.047   0.997   4.901 -0.1753  0.1668  0.1926
 2087TIP3    H2 6207   4.147   1.004   4.786 -0.3237  0.3488  0.0745
 2088TIP3   OH2 6208   2.083   7.467   2.334 -0.0774  0.3958  0.0655
 2088TIP3    H1 6209   2.065   7.504   2.421  1.2090  1.0751  0.0621
 2088TIP3    H2 6210   2.051   7.377   2.339 -0.1199  0.4647  1.2079
 2089TIP3   OH2 6211   7.897   7.035   4.037  0.6409  0.0045  0.4482
 2089TIP3    H1 6212   7.862   7.120   4.012  2.7413  0.9208  0.5671
 2089TIP3    H2 6213   7.967   7.018   3.974 -0.1838 -1.9545  0.0151
 2090TIP3   OH2 6214   0.812   7.678   4.020  0.0218  0.5820  0.6823
 2090TIP3    H1 6215   0.862   7.676   4.101 -0.0244 -0.3214  0.6920
 2090TIP3    H2 6216   0.721   7.684   4.048  0.0680  1.3934  0.6762
 2091TIP3   OH2 6217   2.148   1.553   1.191  0.0989 -0.5482  0.4446
 2091TIP3    H1 6218   2.149   1.640   1.150  2.1002 -0.9620 -0.4648
 2091TIP3    H2 6219   2.117   1.569   1.280  1.6620  1.3145  0.6971
 2092TIP3   OH2 6220   6.744   7.905   1.031  0.1498  0.5416 -0.2418
 2092TIP3    H1 6221   6.777   7.985   0.989  1.7936 -0.7721 -1.5025
 2092TIP3    H2 6222   6.811   7.881   1.094  0.7821 -1.1559 -1.5507
 2093TIP3   OH2 6223   2.538   1.618   4.820 -0.0546 -0.2840  0.2682
 2093TIP3    H1 6224   2.460   1.672   4.816 -1.1251 -1.8950 -2.5108
 2093TIP3    H2 6225   2.518   1.550   4.884 -0.1907  0.4120  0.9607
 2094TIP3   OH2 6226   4.435   0.968   2.635  0.1811 -0.3977 -0.1661
 2094TIP3    H1 6227   4.460   0.891   2.687 -1.5620 -1.5132 -0.9585
 2094TIP3    H2 6228   4.487   0.961   2.555 -0.1881 -0.9023 -0.3600
 2095TIP3   OH2 6229   2.418   6.670   0.655  0.2543 -0.0182 -0.2478
 2095TIP3    H1 6230   2.498   6.695   0.699 -1.2753  0.5111  2.3462
 2095TIP3    H2 6231   2.442   6.662   0.563  2.5825  3.1079  0.0124
 2096TIP3   OH2 6232   1.675   6.534   3.531  0.0102 -0.2600 -0.4009
 2096TIP3    H1 6233   1.742   6.511   3.595 -1.6256  2.8941  2.6484
 2096TIP3    H2 6234   1.640   6.451   3.502  0.1853 -1.8249  3.5575
 2097TIP3   OH2 6235   4.212   0.573   3.082  0.1232 -0.1430  0.0340
 2097TIP3    H1 6236   4.298   0.533   3.086  0.4338  0.4717 -0.3677
 2097TIP3    H2 6237   4.157   0.508   3.038  0.3646 -0.5635  0.3535
 2098TIP3   OH2 6238   7.344   1.336   3.598 -0.5819 -0.2355  0.3379
 2098TIP3    H1 6239   7.283   1.409   3.606  0.6026  0.5940  2.1781
 2098TIP3    H2 6240   7.329   1.283   3.677 -0.8771 -1.5713 -0.5906
 2099TIP3   OH2 6241   3.339   7.354   2.599  0.0261  0.4545  0.5242
 2099TIP3    H1 6242   3.365   7.446   2.587  0.7699  0.1541 -0.3159
 2099TIP3    H2 6243   3.250   7.350   2.566  1.5100 -0.0149 -3.7539
 2100TIP3   OH2 6244   3.222   7.937   5.071  0.5047 -0.2523 -0.2539
 2100TIP3    H1 6245   3.151   7.909   5.013 -0.3235 -1.0598  1.1315
 2100TIP3    H2 6246   3.183   8.003   5.127  1.0531 -0.1570  0.0176
 2101TIP3   OH2 6247   5.018   2.057   1.739 -0.4317 -0.4899  0.0025
 2101TIP3    H1 6248   5.072   1.982   1.712 -0.3331 -0.1338 -0.8070
 2101TIP3    H2 6249   5.065   2.096   1.812  0.3805 -0.2290 -0.6480
 2102TIP3   OH2 6250   5.874   2.571   0.585  0.1108 -0.0103  0.0778
 2102TIP3    H1 6251   5.813   2.564   0.659 -0.9268  0.7093 -0.6822
 2102TIP3    H2 6252   5.900   2.481   0.567  1.4007 -0.0647  2.1530
 2103TIP3   OH2 6253   2.971   6.988   3.261 -0.3756  0.4140  0.3622
 2103TIP3    H1 6254   3.012   6.950   3.339  2.5817 -0.0551 -1.3689
 2103TIP3    H2 6255   2.910   6.920   3.232 -0.9589  0.2907  1.7989
 2104TIP3   OH2 6256   2.894   6.732   2.530  0.2266 -0.6040  0.1471
 2104TIP3    H1 6257   2.990   6.736   2.524  0.4300 -1.8498  2.0930
 2104TIP3    H2 6258   2.870   6.659   2.472  0.4538 -0.3093 -0.3215
 2105TIP3   OH2 6259   4.021   0.735   4.244 -0.8147  0.2223 -0.1737
 2105TIP3    H1 6260   4.061   0.820   4.225 -0.0460 -0.0947  0.0001
 2105TIP3    H2 6261   3.970   0.750   4.324 -1.2058  0.6748 -0.4999
 2106TIP3   OH2 6262   0.316   7.341   1.460  0.1102 -0.0139  0.1063
 2106TIP3    H1 6263   0.327   7.354   1.555  1.0386 -2.2488  0.3476
 2106TIP3    H2 6264   0.322   7.246   1.449 -0.4261  0.2016 -2.1548
 2107TIP3   OH2 6265   3.074   0.363   3.455  0.2366 -0.5874 -0.1535
 2107TIP3    H1 6266   3.095   0.270   3.453 -0.5258 -0.7610 -0.2567
 2107TIP3    H2 6267   3.094   0.390   3.545 -1.3759 -1.2906  0.4241
 2108TIP3   OH2 6268   0.977   6.120   2.380  0.6576  0.4379  0.1678
 2108TIP3    H1 6269   0.929   6.164   2.309 -2.0467  0.0203  1.6645
 2108TIP3    H2 6270   1.055   6.086   2.338 -0.3356  1.1820 -2.3920
 2109TIP3   OH2 6271   3.278   0.172   2.456 -0.4757 -0.1301  0.5535
 2109TIP3    H1 6272   3.343   0.228   2.413  2.0425 -1.9553  1.8293
 2109TIP3    H2 6273   3.226   0.136   2.384 -0.1993  1.4953 -0.4834
 2110TIP3   OH2 6274   6.622   0.623   4.782 -0.1516 -0.2282 -0.4179
 2110TIP3    H1 6275   6.688   0.617   4.714  0.1056 -0.5645 -0.1387
 2110TIP3    H2 6276   6.549   0.671   4.741  0.7202  1.1788 -0.3789
 2111TIP3   OH2 6277   7.243   5.737   4.505 -1.0043  0.7423 -0.3987
 2111TIP3    H1 6278   7.275   5.810   4.453 -1.4661  1.5350  0.4232
 2111TIP3    H2 6279   7.298   5.663   4.478 -0.4796  1.4025 -1.1662
 2112TIP3   OH2 6280   2.613   0.738   3.354 -0.2940  0.2593  0.2534
 2112TIP3    H1 6281   2.587   0.754   3.263  0.8590  0.8387  0.0206
 2112TIP3    H2 6282   2.541   0.685   3.390 -2.2765  2.6457 -0.0936
 2113TIP3   OH2 6283   6.246   0.020   2.102 -0.0237 -0.8794 -0.1817
 2113TIP3    H1 6284   6.319   0.054   2.050 -0.0784  0.4035  0.5670
 2113TIP3    H2 6285   6.269  -0.072   2.117  2.0905 -0.1951  1.1232
 2114TIP3   OH2 6286   4.692   1.482   5.224  0.0289 -0.0388  0.2437
 2114TIP3    H1 6287   4.734   1.510   5.142 -0.6854  0.3471  0.0056
 2114TIP3    H2 6288   4.612   1.438   5.196 -0.1796  0.0293  0.7272
 2115TIP3   OH2 6289   2.609   1.366   4.222 -0.8582 -0.2040 -0.9128
 2115TIP3    H1 6290   2.678   1.372   4.288  0.7592  0.1533 -2.5862
 2115TIP3    H2 6291   2.541   1.311   4.262 -0.5381  1.1672  1.5480
 2116TIP3   OH2 6292   5.219   2.559   3.494  0.3621 -0.1817  0.2580
 2116TIP3    H1 6293   5.277   2.487   3.470 -1.3632 -1.4687 -0.1215
 2116TIP3    H2 6294   5.188   2.536   3.581 -0.2558  0.0829  0.1060
 2117TIP3   OH2 6295   4.153   1.233   1.790 -0.7125  0.0852 -0.2890
 2117TIP3    H1 6296   4.229   1.260   1.843 -1.1132  1.1530 -0.2395
 2117TIP3    H2 6297   4.168   1.140   1.772  0.4760  0.2147 -0.0450
 2118TIP3   OH2 6298   6.917   0.584   2.437  0.4857  0.4961 -0.0264
 2118TIP3    H1 6299   6.912   0.667   2.486 -1.5668 -0.1640  0.9464
 2118TIP3    H2 6300   6.914   0.516   2.505 -2.5547 -0.4420 -1.0022
 2119TIP3   OH2 6301   4.611   0.631   2.390 -0.7818 -0.4186  0.1847
 2119TIP3    H1 6302   4.569   0.588   2.464 -2.6408  1.7390  0.4224
 2119TIP3    H2 6303   4.551   0.617   2.316 -1.0006  1.0198  0.0755
 2120TIP3   OH2 6304   4.263   2.320   2.027  0.1561 -0.1249 -0.4957
 2120TIP3    H1 6305   4.355   2.312   1.999  0.5340 -0.4241  0.8094
 2120TIP3    H2 6306   4.245   2.414   2.022  0.5235 -0.0661 -0.7608
 2121TIP3   OH2 6307   4.470   3.141   3.794 -0.0701  0.0626 -0.2712
 2121TIP3    H1 6308   4.426   3.101   3.719  0.9970  2.2641 -2.1091
 2121TIP3    H2 6309   4.399   3.178   3.847 -0.7939 -1.1230 -0.3884
 2122TIP3   OH2 6310   5.968   2.328   2.577  0.2471  0.1065 -0.5340
 2122TIP3    H1 6311   5.910   2.376   2.518  0.6573 -0.5358 -1.4848
 2122TIP3    H2 6312   6.051   2.322   2.529  1.1906  1.2257  0.8936
 2123TIP3   OH2 6313   3.122   1.043   2.919 -0.2718 -0.1913 -0.2751
 2123TIP3    H1 6314   3.172   1.062   2.839 -1.1145  0.3675 -0.6784
 2123TIP3    H2 6315   3.171   1.087   2.988  1.3922 -2.0905 -0.2119
 2124TIP3   OH2 6316   3.670   1.754   2.780  0.3594 -0.3633 -0.1776
 2124TIP3    H1 6317   3.667   1.660   2.800 -0.5439 -0.7314 -1.8910
 2124TIP3    H2 6318   3.716   1.759   2.696 -0.4107  0.6363 -0.5490
 2125TIP3   OH2 6319   1.117   0.131   3.942 -0.3554  0.5063 -0.0851
 2125TIP3    H1 6320   1.187   0.167   3.996  0.3952 -0.6289 -0.2860
 2125TIP3    H2 6321   1.143   0.041   3.925 -1.3983  0.3516 -0.9607
 2126TIP3   OH2 6322   1.153   7.968   1.982 -0.2444  0.7629 -0.4189
 2126TIP3    H1 6323   1.117   8.040   1.931 -0.6986  0.9603  0.1794
 2126TIP3    H2 6324   1.079   7.911   2.001 -0.3064  1.3061  1.0332
 2127TIP3   OH2 6325   4.705   0.748   4.091 -0.1403  0.2703  0.0929
 2127TIP3    H1 6326   4.649   0.704   4.028 -1.3605  1.1915  0.5139
 2127TIP3    H2 6327   4.648   0.764   4.167  0.4354  1.9822  0.1908
 2128TIP3   OH2 6328   2.538   7.951   2.268 -0.6448  0.0395  0.3839
 2128TIP3    H1 6329   2.554   7.992   2.353 -0.0327  0.6044  0.0044
 2128TIP3    H2 6330   2.496   7.867   2.289 -0.9925  0.4166  1.2105
 2129TIP3   OH2 6331   8.254   7.964   2.154 -0.1858  0.1116  0.2320
 2129TIP3    H1 6332   8.241   8.038   2.214  0.4752  0.2138  0.2561
 2129TIP3    H2 6333   8.181   7.905   2.173  0.5867 -0.3609  1.8849
 2130TIP3   OH2 6334   6.171   2.940   2.973  0.0336 -0.0374  0.1555
 2130TIP3    H1 6335   6.196   2.856   2.933  1.3464 -0.3403  1.6039
 2130TIP3    H2 6336   6.103   2.916   3.036 -1.2443  0.3023 -1.0655
 2131TIP3   OH2 6337   6.358   1.327   0.109  0.0903 -0.0825 -0.2098
 2131TIP3    H1 6338   6.372   1.241   0.069 -0.1074  0.1636 -0.7975
 2131TIP3    H2 6339   6.423   1.331   0.179  1.3372  0.0366 -1.3593
 2132TIP3   OH2 6340   2.609   7.660   2.526  1.0165 -0.1142 -0.2758
 2132TIP3    H1 6341   2.601   7.606   2.447  1.2738 -0.6880  0.0813
 2132TIP3    H2 6342   2.703   7.662   2.543  0.8709 -0.8704  0.6132
 2133TIP3   OH2 6343   5.663   1.717   2.161  0.8816  0.5935 -0.1278
 2133TIP3    H1 6344   5.630   1.805   2.144  0.8355  0.7260  0.6012
 2133TIP3    H2 6345   5.740   1.731   2.216  0.4961  0.1492  0.5394
 2134TIP3   OH2 6346   4.566   7.782   0.690  0.2130  0.0091 -0.1815
 2134TIP3    H1 6347   4.590   7.860   0.639 -0.5190  1.7470  2.0511
 2134TIP3    H2 6348   4.480   7.757   0.657  0.4913  0.0877 -0.9763
 2135TIP3   OH2 6349   5.360   0.178   1.110 -0.0001  0.2303 -0.0149
 2135TIP3    H1 6350   5.350   0.229   1.190  1.9294 -0.0599  0.4402
 2135TIP3    H2 6351   5.331   0.090   1.135  0.5742  0.1449  0.3700
 2136TIP3   OH2 6352   4.926   1.774   2.048 -0.2554 -0.4231 -0.0891
 2136TIP3    H1 6353   4.917   1.853   1.993  1.2007 -1.0985 -1.3578
 2136TIP3    H2 6354   5.016   1.779   2.080 -0.1719 -1.5541 -0.1481
 2137TIP3   OH2 6355   6.823   1.871   4.047 -1.0002  0.4437 -0.1667
 2137TIP3    H1 6356   6.887   1.885   4.116 -0.2895 -1.7989 -0.3278
 2137TIP3    H2 6357   6.875   1.863   3.967 -1.6116  0.4342 -0.5648
 2138TIP3   OH2 6358   7.538   3.226   3.227  0.4357 -0.1472  0.1641
 2138TIP3    H1 6359   7.549   3.285   3.153  2.4467 -1.3396 -0.5362
 2138TIP3    H2 6360   7.579   3.272   3.301 -0.8212  0.6731  0.3711
 2139TIP3   OH2 6361   5.830   2.045   2.208  0.5324 -0.1217 -0.3158
 2139TIP3    H1 6362   5.833   2.009   2.297  0.7114  1.4078  0.3050
 2139TIP3    H2 6363   5.920   2.040   2.177  0.4265 -0.8814 -0.5051
 2140TIP3   OH2 6364   3.824   7.071   1.506  0.9318  0.2206 -0.2492
 2140TIP3    H1 6365   3.917   7.069   1.527  0.9114 -2.3419 -0.2041
 2140TIP3    H2 6366   3.819   7.035   1.417 -0.1395 -1.1071  0.3341
 2141TIP3   OH2 6367   4.773   0.139   1.998 -0.3575 -0.7405 -0.0590
 2141TIP3    H1 6368   4.717   0.072   1.960  0.0533 -0.3420 -1.4120
 2141TIP3    H2 6369   4.748   0.219   1.952  2.0719 -0.7639 -1.5046
 2142TIP3   OH2 6370   0.567   2.459   0.993  0.7804  0.5718 -0.0457
 2142TIP3    H1 6371   0.584   2.442   1.086  0.9276  1.4533  0.0984
 2142TIP3    H2 6372   0.545   2.374   0.956 -1.3813  0.5100  1.2606
 2143TIP3   OH2 6373   4.065   7.989   1.098 -0.3825  0.5304  0.2898
 2143TIP3    H1 6374   4.115   7.913   1.128  0.3047  0.0651 -1.9150
 2143TIP3    H2 6375   3.974   7.957   1.093 -0.1729 -0.0074 -0.1612
 2144TIP3   OH2 6376   6.597   0.719   3.181  0.3576  0.2585 -0.1253
 2144TIP3    H1 6377   6.651   0.692   3.108  0.5128 -2.5552  0.9708
 2144TIP3    H2 6378   6.535   0.647   3.194  0.2229  0.7608  2.3934
 2145TIP3   OH2 6379   3.514   7.151   1.824 -0.3611 -0.5325 -0.3905
 2145TIP3    H1 6380   3.459   7.217   1.867 -1.4174 -1.6611  0.0176
 2145TIP3    H2 6381   3.459   7.073   1.818  1.3294 -1.8408  0.4538
 2146TIP3   OH2 6382   7.357   0.888   4.295 -0.2892 -0.1358  0.1327
 2146TIP3    H1 6383   7.395   0.800   4.289  1.9296  0.9265 -1.7085
 2146TIP3    H2 6384   7.290   0.890   4.226  1.2146  0.3516 -1.3387
 2147TIP3   OH2 6385   2.729   7.520   1.412  0.2734  0.1926  0.2099
 2147TIP3    H1 6386   2.800   7.584   1.425  0.0880  0.5179 -0.3799
 2147TIP3    H2 6387   2.649   7.571   1.419  0.1153 -0.0342  0.0458
 2148TIP3   OH2 6388   3.163   6.716   2.279  0.0774 -0.2384  0.1348
 2148TIP3    H1 6389   3.194   6.788   2.224 -1.3389 -0.7256 -1.3582
 2148TIP3    H2 6390   3.087   6.681   2.232 -0.1826 -1.7248  1.6019
 2149TIP3   OH2 6391   6.544   0.502   4.365  0.2668  0.7264 -0.3087
 2149TIP3    H1 6392   6.488   0.440   4.413  0.9964  0.3633  0.0931
 2149TIP3    H2 6393   6.483   0.561   4.321 -0.4599 -0.4629 -0.9419
 2150TIP3   OH2 6394   3.101   7.657   1.128  0.1314  0.5033  0.3022
 2150TIP3    H1 6395   3.007   7.639   1.135  0.0771  1.2018  1.4853
 2150TIP3    H2 6396   3.107   7.730   1.067  0.0971 -1.0750 -1.6649
 2151TIP3   OH2 6397   0.853   6.264   6.282  0.7034  0.2314  0.0707
 2151TIP3    H1 6398   0.866   6.169   6.276  0.5480  0.2750 -1.0340
 2151TIP3    H2 6399   0.800   6.286   6.206 -0.2573  1.0480  0.9559
 2152TIP3   OH2 6400   6.244   2.325   2.506  0.2093 -0.5411  0.2082
 2152TIP3    H1 6401   6.284   2.389   2.447 -2.6156  0.3365 -0.8552
 2152TIP3    H2 6402   6.286   2.242   2.484  1.6158  0.3867 -0.6584
 2153TIP3   OH2 6403   3.489   7.510   0.464  0.1007 -0.7776  0.4069
 2153TIP3    H1 6404   3.443   7.441   0.511  0.1484  0.7050  2.7173
 2153TIP3    H2 6405   3.575   7.515   0.507  0.7490 -0.4624 -0.8969
 2154TIP3   OH2 6406   3.894   7.733   3.087 -0.4413 -0.4850 -0.6495
 2154TIP3    H1 6407   3.826   7.678   3.049 -0.0920 -0.3956 -1.4065
 2154TIP3    H2 6408   3.937   7.676   3.152 -2.7574  0.1868  1.5586
 2155TIP3   OH2 6409   6.577   0.251   1.315 -0.4109 -0.6432 -0.4853
 2155TIP3    H1 6410   6.499   0.213   1.355 -0.2763  1.8830  2.3787
 2155TIP3    H2 6411   6.545   0.293   1.235 -1.7068 -0.9674 -0.1540
 2156TIP3   OH2 6412   0.727   1.421   1.091 -0.2584  0.4912  0.3311
 2156TIP3    H1 6413   0.667   1.466   1.032 -0.7976  0.6716  1.0150
 2156TIP3    H2 6414   0.675   1.403   1.169  0.2535 -0.3758  0.4741
 2157TIP3   OH2 6415   5.912   0.506   1.991 -0.3928  0.2021  0.3094
 2157TIP3    H1 6416   5.822   0.478   1.974 -0.4672  0.3205  0.5061
 2157TIP3    H2 6417   5.948   0.525   1.905 -0.1769 -1.0042  0.1203
 2158TIP3   OH2 6418   6.975  -0.016   2.761  0.0351 -0.3893 -0.5319
 2158TIP3    H1 6419   6.926  -0.023   2.843 -0.0757 -0.6692 -0.6227
 2158TIP3    H2 6420   7.049   0.042   2.782 -0.4491  0.2086 -0.4527
 2159TIP3   OH2 6421   2.320   7.395   1.935 -0.0428  0.6092  0.3451
 2159TIP3    H1 6422   2.412   7.383   1.911  0.4431  2.0124  1.5001
 2159TIP3    H2 6423   2.321   7.413   2.028 -1.5329  0.3107  0.4321
 2160TIP3   OH2 6424   4.826   6.951   2.180 -0.4569  0.5573 -0.2445
 2160TIP3    H1 6425   4.880   6.912   2.248 -0.3255  0.0602 -0.6324
 2160TIP3    H2 6426   4.882   6.953   2.103 -0.6379  1.0344 -0.3643
 2161TIP3   OH2 6427   6.458   1.077   3.952 -0.0055  0.0187  0.1243
 2161TIP3    H1 6428   6.407   1.029   3.886 -1.6021  0.7448  0.8137
 2161TIP3    H2 6429   6.479   1.160   3.911 -0.4505  0.2163  0.2963
 2162TIP3   OH2 6430   7.882   1.896   3.123  0.2927  0.8088  0.0784
 2162TIP3    H1 6431   7.791   1.924   3.133 -0.4601 -1.0233 -1.4448
 2162TIP3    H2 6432   7.879   1.801   3.128  2.0036  0.6850 -0.9289
 2163TIP3   OH2 6433   4.177   7.304   1.570  0.3012 -0.3004  0.2683
 2163TIP3    H1 6434   4.095   7.345   1.540  1.4241  1.6431 -0.3032
 2163TIP3    H2 6435   4.173   7.215   1.537 -1.4886 -0.1518  0.0452
 2164TIP3   OH2 6436   5.872   0.685   3.202 -0.4638  0.4877 -0.0597
 2164TIP3    H1 6437   5.891   0.613   3.142 -0.5119  1.8762 -1.7622
 2164TIP3    H2 6438   5.957   0.708   3.240 -0.6220 -1.2474  1.4434
 2165TIP3   OH2 6439   5.896   0.513   1.710  0.0024  0.1488  0.5526
 2165TIP3    H1 6440   5.973   0.566   1.690 -0.2778  0.5609  0.5745
 2165TIP3    H2 6441   5.927   0.422   1.703  0.2851  0.3012 -0.2571
 2166TIP3   OH2 6442   2.322   7.625   5.001  0.0695  0.0297  0.2689
 2166TIP3    H1 6443   2.407   7.663   4.977 -1.0845  1.2408 -2.0659
 2166TIP3    H2 6444   2.330   7.606   5.094  2.4974  1.2401  0.3543
 2167TIP3   OH2 6445   4.408   6.793   0.121 -0.2848  0.4856 -0.2763
 2167TIP3    H1 6446   4.326   6.749   0.097  0.3108 -0.8849  0.1813
 2167TIP3    H2 6447   4.472   6.761   0.058 -0.0727  1.5097 -0.5970
 2168TIP3   OH2 6448   0.973   3.293   6.534  0.0144 -0.2947  0.3401
 2168TIP3    H1 6449   0.962   3.372   6.587 -1.9599  1.7376 -2.9828
 2168TIP3    H2 6450   0.884   3.263   6.515  0.6009 -0.1875 -2.8859
 2169TIP3   OH2 6451   5.737   0.817   4.240 -0.0485 -0.4192  0.1957
 2169TIP3    H1 6452   5.704   0.859   4.320 -0.7814 -0.0475 -0.2913
 2169TIP3    H2 6453   5.668   0.755   4.216 -1.0648  1.3098 -1.5799
 2170TIP3   OH2 6454   7.015   0.794   3.450  0.1914 -0.3219 -0.0229
 2170TIP3    H1 6455   6.957   0.802   3.374  2.4391 -1.9439 -1.9947
 2170TIP3    H2 6456   7.003   0.705   3.481  0.7301 -0.2734  0.3308
 2171TIP3   OH2 6457   5.408   0.091   1.979  0.1336  0.0168 -0.4167
 2171TIP3    H1 6458   5.337   0.078   2.042  0.8430 -0.1949  0.3485
 2171TIP3    H2 6459   5.476   0.136   2.028  0.5637  0.1508 -1.1261
 2172TIP3   OH2 6460   2.318   7.701   1.904  0.3837  0.0085  0.5204
 2172TIP3    H1 6461   2.324   7.606   1.912  3.5407  0.2892  2.2932
 2172TIP3    H2 6462   2.266   7.729   1.979 -2.6736 -0.4570 -1.3459
 2173TIP3   OH2 6463   6.383   0.613   3.575 -0.3704  0.4265 -0.2872
 2173TIP3    H1 6464   6.441   0.686   3.555 -0.4049  0.6481  0.4121
 2173TIP3    H2 6465   6.393   0.599   3.669 -0.4048 -0.4340 -0.4015
 2174TIP3   OH2 6466   5.189   7.897   1.105  0.2897  0.3776  0.7235
 2174TIP3    H1 6467   5.244   7.906   1.027  0.1164 -1.7059  0.3396
 2174TIP3    H2 6468   5.244   7.927   1.177  1.2746  0.0975  0.0939
 2175TIP3   OH2 6469   6.844   2.985   1.680  0.5510  0.7080 -0.2959
 2175TIP3    H1 6470   6.839   2.909   1.623  0.7259  0.7959 -0.4287
 2175TIP3    H2 6471   6.782   3.048   1.642 -1.7234 -0.4099  1.4027
 2176TIP3   OH2 6472   5.364   0.630   2.800 -0.1911  0.3325 -0.0723
 2176TIP3    H1 6473   5.331   0.689   2.868  0.1880 -0.7974  1.1048
 2176TIP3    H2 6474   5.417   0.686   2.744  1.4279  0.8470  1.9119
 2177TIP3   OH2 6475   6.005   0.716   2.855 -0.3397 -0.2913 -0.7319
 2177TIP3    H1 6476   5.954   0.781   2.902 -0.2544 -1.6535  1.3208
 2177TIP3    H2 6477   6.096   0.742   2.869 -0.2613 -1.4294  1.0224
 2178TIP3   OH2 6478   7.019   1.779   3.246 -0.5345 -0.3806 -0.0211
 2178TIP3    H1 6479   7.039   1.831   3.168 -1.5205  1.8792  1.1567
 2178TIP3    H2 6480   7.033   1.840   3.319 -1.3020 -1.9269  1.4594
 2179TIP3   OH2 6481   3.309   5.052   2.630  0.3277 -0.6620  0.0566
 2179TIP3    H1 6482   3.249   5.098   2.689 -0.5447 -0.3454 -1.0746
 2179TIP3    H2 6483   3.374   5.117   2.605  0.5177 -0.7117  0.4237
 2180TIP3   OH2 6484   3.777   0.054   2.888  0.0785 -0.2129 -0.0139
 2180TIP3    H1 6485   3.720   0.088   2.819  0.5178  1.5584  0.4795
 2180TIP3    H2 6486   3.798   0.130   2.942  0.2947 -1.4486  1.6902
 2181TIP3   OH2 6487   7.182   0.718   2.117  0.1097 -0.0348  0.0986
 2181TIP3    H1 6488   7.136   0.724   2.034  0.9197 -1.4393 -0.4856
 2181TIP3    H2 6489   7.131   0.656   2.168 -0.9008  1.5324  1.0190
 2182TIP3   OH2 6490   2.288   7.482   3.453  0.0318 -0.4260 -0.0143
 2182TIP3    H1 6491   2.349   7.435   3.510 -0.7702 -1.6785 -0.1751
 2182TIP3    H2 6492   2.207   7.487   3.504 -0.3016 -0.4103 -0.5390
 2183TIP3   OH2 6493   4.919   0.137   4.548  0.3828  0.5008 -0.0528
 2183TIP3    H1 6494   4.869   0.216   4.567 -0.6766 -0.0492 -0.4996
 2183TIP3    H2 6495   4.891   0.075   4.615  0.2257  0.0881 -0.4965
 2184TIP3   OH2 6496   7.756   2.442   3.546 -0.6422 -0.3241 -0.4336
 2184TIP3    H1 6497   7.682   2.395   3.509 -0.4308 -1.1458  0.1669
 2184TIP3    H2 6498   7.774   2.397   3.629 -0.8264  1.1965  0.4535
 2185TIP3   OH2 6499   3.528   6.811   1.806  0.2515  0.3468 -0.0278
 2185TIP3    H1 6500   3.558   6.728   1.768  2.2507  0.3231  1.4889
 2185TIP3    H2 6501   3.599   6.873   1.787 -1.2706  1.7564 -1.2339
 2186TIP3   OH2 6502   2.844   7.964   2.710  0.2240  0.0030 -0.5562
 2186TIP3    H1 6503   2.838   8.002   2.797  0.2336  1.4273 -1.1707
 2186TIP3    H2 6504   2.890   7.881   2.723  0.3833  0.2943  0.7612
 2187TIP3   OH2 6505   2.253   7.114   2.608  0.2087 -0.3305  0.2412
 2187TIP3    H1 6506   2.258   7.191   2.551 -0.4720 -1.0688 -0.8219
 2187TIP3    H2 6507   2.175   7.068   2.580  0.3235 -1.1427  1.2318
 2188TIP3   OH2 6508   5.723   1.013   3.105 -0.2554 -0.6137  0.0505
 2188TIP3    H1 6509   5.816   0.998   3.086 -0.2454 -0.7311  0.1868
 2188TIP3    H2 6510   5.706   0.958   3.182 -0.4159 -0.5254  0.0773
 2189TIP3   OH2 6511   5.817   0.173   2.576  0.2849 -0.6933 -0.0254
 2189TIP3    H1 6512   5.823   0.086   2.616  0.1464 -0.8268 -0.2942
 2189TIP3    H2 6513   5.903   0.212   2.591  0.2556 -0.7690  0.3458
 2190TIP3   OH2 6514   7.910   2.185   0.666 -0.8302  0.1885  0.3728
 2190TIP3    H1 6515   7.910   2.193   0.571  1.0911 -0.6531  0.2860
 2190TIP3    H2 6516   7.818   2.195   0.691 -1.4949 -0.6714 -1.6561
 2191TIP3   OH2 6517   4.506   2.325   2.821 -0.1011  0.2725 -0.6327
 2191TIP3    H1 6518   4.433   2.349   2.879  0.5469  0.2972  0.1932
 2191TIP3    H2 6519   4.551   2.408   2.804 -0.4424  0.3017 -1.3807
 2192TIP3   OH2 6520   4.412   7.836   1.145  0.1294 -0.1908 -0.2404
 2192TIP3    H1 6521   4.394   7.873   1.059  0.8860 -0.6890 -0.6133
 2192TIP3    H2 6522   4.327   7.806   1.177 -0.0996 -0.2917 -0.9449
 2193TIP3   OH2 6523   7.630   0.614   3.167 -0.2519  0.0632  0.4384
 2193TIP3    H1 6524   7.656   0.681   3.231  0.2744 -0.4366  0.7518
 2193TIP3    H2 6525   7.682   0.537   3.191 -0.4565 -0.2896 -0.2593
 2194TIP3   OH2 6526   2.683   7.384   1.647 -0.0225  0.1751  0.2935
 2194TIP3    H1 6527   2.660   7.437   1.571  0.7943 -0.6178 -0.5177
 2194TIP3    H2 6528   2.779   7.383   1.647 -0.0271 -0.5954  0.8044
 2195TIP3   OH2 6529   5.448   7.319   1.008 -0.5966 -0.3293  0.1619
 2195TIP3    H1 6530   5.438   7.414   1.018 -1.2380 -0.3333 -0.3963
 2195TIP3    H2 6531   5.387   7.296   0.938  0.6103 -0.9460 -0.7139
 2196TIP3   OH2 6532   7.215   1.080   3.454  0.2477  0.4158 -0.8686
 2196TIP3    H1 6533   7.129   1.107   3.421  0.2247  0.0339 -1.1222
 2196TIP3    H2 6534   7.232   1.138   3.528 -0.8626 -0.4290  0.0627
 2197TIP3   OH2 6535   6.859   1.346   3.163 -0.1740 -0.0748  0.0831
 2197TIP3    H1 6536   6.857   1.296   3.245 -0.6150  1.4050  1.0108
 2197TIP3    H2 6537   6.847   1.281   3.094 -0.6640 -1.2421  1.2503
 2198TIP3   OH2 6538   5.887   3.967   3.353 -0.1714  0.5069 -0.1051
 2198TIP3    H1 6539   5.976   3.938   3.373  0.5025  1.1291 -2.1205
 2198TIP3    H2 6540   5.867   3.929   3.268 -1.2422  1.6742 -0.3929
 2199TIP3   OH2 6541   3.309   7.504   3.185  0.0056  0.4408 -0.2472
 2199TIP3    H1 6542   3.227   7.545   3.212 -1.2222 -1.7025 -0.5881
 2199TIP3    H2 6543   3.290   7.470   3.097  1.2057 -0.2431 -0.2424
 2200TIP3   OH2 6544   3.458   7.915   4.522 -0.2211  0.1169  0.0233
 2200TIP3    H1 6545   3.443   7.949   4.434  0.6228  1.3411  0.3348
 2200TIP3    H2 6546   3.543   7.870   4.516 -0.6059 -0.6179 -0.0074
 2201TIP3   OH2 6547   5.634   7.362   1.912  0.3711  0.2989 -0.3934
 2201TIP3    H1 6548   5.585   7.429   1.866  0.1468  1.1535  1.0613
 2201TIP3    H2 6549   5.570   7.292   1.929  0.2832  0.2946 -0.7439
 2202TIP3   OH2 6550   3.438   7.524   3.603 -0.3600  0.0092  0.5997
 2202TIP3    H1 6551   3.466   7.453   3.661  0.7051  0.3905  0.5541
 2202TIP3    H2 6552   3.518   7.573   3.583 -0.7210 -0.0699 -1.1393
 2203TIP3   OH2 6553   5.610   7.906   4.531 -0.1245 -0.2151  0.1683
 2203TIP3    H1 6554   5.587   7.828   4.580 -1.9796  0.3025  0.1651
 2203TIP3    H2 6555   5.659   7.960   4.593  0.6066 -1.0840  0.3574
 2204TIP3   OH2 6556   2.399   7.217   1.107  0.0363 -0.0222 -0.2247
 2204TIP3    H1 6557   2.489   7.213   1.139 -0.0892  2.3847  0.5261
 2204TIP3    H2 6558   2.348   7.245   1.183 -0.7770  2.3628 -1.5954
 2205TIP3   OH2 6559   4.511   1.041   4.368  0.0207  0.1937 -0.0692
 2205TIP3    H1 6560   4.579   1.086   4.319 -0.1225  0.5483  0.0560
 2205TIP3    H2 6561   4.548   1.027   4.455  0.1086 -0.0367 -0.1427
 2206TIP3   OH2 6562   2.818   5.914   3.977 -0.0951 -0.3447  0.4308
 2206TIP3    H1 6563   2.740   5.867   4.005 -1.3011  0.9000 -0.7384
 2206TIP3    H2 6564   2.816   5.906   3.881 -0.4302  2.2217  0.2063
 2207TIP3   OH2 6565   0.730   3.919   6.843  0.0338 -0.2186 -0.5025
 2207TIP3    H1 6566   0.741   4.014   6.848 -1.1724  0.0634 -2.5956
 2207TIP3    H2 6567   0.820   3.885   6.838  0.4403  0.9001 -1.0485
 2208TIP3   OH2 6568   6.977   0.984   3.033 -0.2312  0.1413  0.1251
 2208TIP3    H1 6569   7.064   1.004   3.068 -0.9437 -2.5144  3.7652
 2208TIP3    H2 6570   6.986   0.899   2.990 -1.0307 -0.2160  0.6431
 2209TIP3   OH2 6571   5.036   1.363   2.475 -0.1397 -0.1995  1.0490
 2209TIP3    H1 6572   4.988   1.350   2.393  1.4822 -0.4007  0.1169
 2209TIP3    H2 6573   5.044   1.274   2.511  3.1549 -0.7867 -0.9006
 2210TIP3   OH2 6574   8.279   2.179   1.001 -0.0962  0.1986  0.1062
 2210TIP3    H1 6575   8.240   2.228   0.928 -0.5038 -1.0080 -0.5082
 2210TIP3    H2 6576   8.267   2.236   1.077  0.5090  1.5648 -0.7915
 2211TIP3   OH2 6577   1.080   7.184   6.448 -0.4209 -0.1940 -0.3649
 2211TIP3    H1 6578   1.039   7.120   6.506  1.9588 -1.0594  0.4179
 2211TIP3    H2 6579   1.070   7.147   6.360 -0.1975 -0.9978 -0.0524
 2212TIP3   OH2 6580   6.120   0.680   3.519  0.1625 -0.3510 -0.4795
 2212TIP3    H1 6581   6.116   0.668   3.614  2.5319  0.6051 -0.2322
 2212TIP3    H2 6582   6.202   0.638   3.494 -0.3784 -0.4522 -2.1011
 2213TIP3   OH2 6583   6.478   2.948   2.687 -0.1605  0.3227  0.0478
 2213TIP3    H1 6584   6.443   2.861   2.674 -0.6232  0.4382  0.4880
 2213TIP3    H2 6585   6.566   2.934   2.723 -0.7282  0.0418  1.3385
 2214TIP3   OH2 6586   2.622   7.566   0.937 -1.0662 -0.4424 -1.0344
 2214TIP3    H1 6587   2.594   7.482   0.899 -1.7121 -0.8255  0.2752
 2214TIP3    H2 6588   2.573   7.573   1.018  0.1815  0.4463 -0.3410
 2215TIP3   OH2 6589   3.426   0.671   0.818  0.0169 -0.6329  0.0276
 2215TIP3    H1 6590   3.511   0.696   0.782  1.3872 -1.5334  2.5524
 2215TIP3    H2 6591   3.372   0.652   0.741  2.4219 -1.1066 -1.5897
 2216TIP3   OH2 6592   0.474   6.079   0.992 -0.0229 -0.3438 -0.3798
 2216TIP3    H1 6593   0.446   6.035   1.072  0.8553 -1.2517 -0.5538
 2216TIP3    H2 6594   0.397   6.127   0.963  0.2165  1.6058  2.0639
 2217TIP3   OH2 6595   5.430   1.181   3.039  0.0134  0.3776 -0.2775
 2217TIP3    H1 6596   5.388   1.227   3.112  0.7208  0.8999 -0.1898
 2217TIP3    H2 6597   5.363   1.177   2.971 -0.0527  1.5833 -0.2940
 2218TIP3   OH2 6598   0.479   5.422   6.585 -0.0837 -0.1985  0.7143
 2218TIP3    H1 6599   0.466   5.330   6.564  0.2389 -0.6887  2.5937
 2218TIP3    H2 6600   0.434   5.435   6.669  0.3124  1.2211  0.7328
 2219TIP3   OH2 6601   3.324   7.339   0.585 -0.2777 -0.0955 -0.1729
 2219TIP3    H1 6602   3.330   7.251   0.622  1.1150  0.0335 -0.0736
 2219TIP3    H2 6603   3.230   7.358   0.585 -0.5281 -1.2514  0.5687
 2220TIP3   OH2 6604   6.333   0.559   1.335  0.7982 -0.1600  0.3716
 2220TIP3    H1 6605   6.333   0.493   1.265  0.4354  0.0600  0.1622
 2220TIP3    H2 6606   6.421   0.597   1.332 -0.0401  1.6472 -1.6716
 2221TIP3   OH2 6607   4.535   7.232   1.364  0.0766 -0.3861 -0.0629
 2221TIP3    H1 6608   4.448   7.230   1.323  0.8017  2.5026 -1.8414
 2221TIP3    H2 6609   4.595   7.244   1.291  1.9286 -1.4325  1.2537
 2222TIP3   OH2 6610   1.263   7.067   1.768  0.1225  0.1399  0.0655
 2222TIP3    H1 6611   1.311   7.071   1.851  0.2067  0.4363  0.0029
 2222TIP3    H2 6612   1.185   7.121   1.782  0.0537  0.0548  0.0086
 2223TIP3   OH2 6613   3.814   6.379   0.972 -0.0938 -0.4008  0.3925
 2223TIP3    H1 6614   3.756   6.314   0.934  0.9558 -1.5139  0.6728
 2223TIP3    H2 6615   3.794   6.378   1.066 -0.3844  0.0075  0.3388
 2224TIP3   OH2 6616   7.428   0.036   1.221  0.1431  0.1730 -0.3048
 2224TIP3    H1 6617   7.379  -0.043   1.200  1.1370 -0.5758  0.1778
 2224TIP3    H2 6618   7.455   0.025   1.312 -0.0895  1.2688 -0.0961
 2225TIP3   OH2 6619   0.692   4.761   6.942  0.0591  1.2544 -0.1850
 2225TIP3    H1 6620   0.650   4.847   6.945 -0.9904  0.9129 -3.4117
 2225TIP3    H2 6621   0.783   4.779   6.919  0.6948  1.6682  2.4205
 2226TIP3   OH2 6622   3.750   1.943   2.966 -0.2309  0.2480  0.0266
 2226TIP3    H1 6623   3.699   1.893   2.903 -1.4036 -0.4944  1.5284
 2226TIP3    H2 6624   3.684   1.995   3.013  0.3574 -0.8526  2.1046
 2227TIP3   OH2 6625   5.931   0.453   2.875  0.4424 -0.0458 -0.4446
 2227TIP3    H1 6626   5.977   0.532   2.848 -1.9019  1.7166  0.5650
 2227TIP3    H2 6627   5.881   0.427   2.798  0.3227  0.1213 -0.4238
 2228TIP3   OH2 6628   3.698   7.525   0.947  0.0752  0.2873  0.1370
 2228TIP3    H1 6629   3.622   7.468   0.934  0.2945  0.1491 -0.5544
 2228TIP3    H2 6630   3.663   7.600   0.994 -0.5310  0.2984 -0.3182
 2229TIP3   OH2 6631   6.101   1.913   1.136 -0.6731  0.2874  0.1915
 2229TIP3    H1 6632   6.041   1.850   1.176 -1.3667 -0.0103 -1.3193
 2229TIP3    H2 6633   6.183   1.902   1.185 -1.7293  0.4607  2.0326
 2230TIP3   OH2 6634   6.275   2.620   3.370 -0.2573  0.0293  0.1389
 2230TIP3    H1 6635   6.336   2.648   3.302  0.5720 -1.0412  0.4228
 2230TIP3    H2 6636   6.224   2.698   3.391  1.2535  1.0303  0.1474
 2231TIP3   OH2 6637   3.055   7.368   2.490  0.6754  0.2981 -0.1114
 2231TIP3    H1 6638   3.021   7.363   2.580  1.8205  2.7662  0.5093
 2231TIP3    H2 6639   3.000   7.308   2.440 -1.5266  0.6731  1.7869
 2232TIP3   OH2 6640   7.777   4.803   5.309  0.2306 -0.8916  0.0813
 2232TIP3    H1 6641   7.835   4.828   5.381  0.1542 -2.4637  0.7136
 2232TIP3    H2 6642   7.693   4.842   5.332  0.8957  1.0181 -0.6146
 2233TIP3   OH2 6643   5.418   1.918   4.769  0.3978  0.4328  0.5798
 2233TIP3    H1 6644   5.505   1.929   4.809  0.0707  1.4457  1.0394
 2233TIP3    H2 6645   5.416   1.983   4.699 -0.3626  1.1059  1.2207
 2234TIP3   OH2 6646   4.982   7.856   0.657  0.1779 -0.5508  0.2285
 2234TIP3    H1 6647   4.929   7.893   0.728 -1.4431  0.2304 -1.3461
 2234TIP3    H2 6648   5.041   7.927   0.632 -1.5995  0.3833 -1.4748
 2235TIP3   OH2 6649   7.403   0.525   1.168 -0.1859  0.4152  0.0819
 2235TIP3    H1 6650   7.367   0.443   1.203  1.4602  0.1349  1.1796
 2235TIP3    H2 6651   7.423   0.506   1.077 -0.6063 -0.1495  0.1058
 2236TIP3   OH2 6652   2.181   6.428   3.711  0.5665  0.2643 -0.0330
 2236TIP3    H1 6653   2.148   6.518   3.712  0.5294  0.2709  2.6406
 2236TIP3    H2 6654   2.275   6.438   3.726  0.6140 -0.1301 -0.0770
 2237TIP3   OH2 6655   6.123   0.377   2.117 -0.1549 -0.1333 -0.6086
 2237TIP3    H1 6656   6.163   0.323   2.049 -0.6648 -0.6123 -0.5353
 2237TIP3    H2 6657   6.041   0.407   2.078 -1.4095 -2.0248  0.4799
 2238TIP3   OH2 6658   6.612   1.098   3.025 -0.1745  0.0782 -0.0341
 2238TIP3    H1 6659   6.646   1.010   3.007  1.4833  0.7362 -0.1965
 2238TIP3    H2 6660   6.582   1.129   2.940 -3.2733 -1.3377  0.4761
 2239TIP3   OH2 6661   4.550   7.735   3.224 -0.0837  0.2261  0.3682
 2239TIP3    H1 6662   4.620   7.709   3.284 -0.4797  0.0196  0.7443
 2239TIP3    H2 6663   4.522   7.654   3.183  1.4925  0.6183 -1.5368
 2240TIP3   OH2 6664   7.010   1.582   4.029  0.1945  0.4457 -0.4559
 2240TIP3    H1 6665   6.989   1.596   3.937  0.5674  0.6038 -0.5162
 2240TIP3    H2 6666   7.028   1.669   4.063  2.2145  0.1522 -0.7581
 2241TIP3   OH2 6667   4.822   1.716   2.301  0.6193  0.3240  0.0875
 2241TIP3    H1 6668   4.859   1.715   2.213  1.6780  0.1552  0.5208
 2241TIP3    H2 6669   4.881   1.772   2.351 -0.4579  1.1180  0.4919
 2242TIP3   OH2 6670   6.220   0.150   4.642 -0.3915 -0.2675 -0.1403
 2242TIP3    H1 6671   6.269   0.078   4.602 -1.0468 -0.4717 -0.5775
 2242TIP3    H2 6672   6.240   0.226   4.588 -0.2480 -0.2670 -0.0875
 2243TIP3   OH2 6673   1.750   7.730   2.741  0.2260  0.3470 -0.7273
 2243TIP3    H1 6674   1.782   7.787   2.811  1.1690  0.0779 -0.9294
 2243TIP3    H2 6675   1.709   7.657   2.786 -1.2033  1.2930 -0.4658
 2244TIP3   OH2 6676   5.895   1.091   3.862  0.3673 -0.6165  0.1473
 2244TIP3    H1 6677   5.930   1.180   3.850 -4.1453  1.7867  3.1696
 2244TIP3    H2 6678   5.853   1.071   3.779  0.5210  0.5470 -0.2303
 2245TIP3   OH2 6679   7.015   0.075   5.044 -0.0367 -0.2002  0.4768
 2245TIP3    H1 6680   6.944   0.093   4.983 -1.1177 -0.3463  1.6849
 2245TIP3    H2 6681   6.974   0.030   5.118  1.4195 -0.9407  0.8743
 2246TIP3   OH2 6682   7.651   1.321   2.169 -0.2152 -0.5087 -0.0692
 2246TIP3    H1 6683   7.603   1.244   2.199 -2.0206  0.0262 -1.4583
 2246TIP3    H2 6684   7.583   1.385   2.148  1.1275  0.4321 -1.7074
 2247TIP3   OH2 6685   5.275   0.497   3.185  0.2151 -0.1544 -0.2182
 2247TIP3    H1 6686   5.365   0.528   3.194  0.3309 -0.9096  1.5395
 2247TIP3    H2 6687   5.282   0.422   3.127  0.8354 -0.6125  0.4304
 2248TIP3   OH2 6688   2.887   7.872   3.389 -0.8232 -0.1116 -0.0249
 2248TIP3    H1 6689   2.793   7.864   3.372 -0.6601 -0.7057 -0.7107
 2248TIP3    H2 6690   2.899   7.834   3.476 -1.0772 -1.0288 -0.3740
 2249TIP3   OH2 6691   1.466   6.824   1.702  0.3900 -0.4651  0.1432
 2249TIP3    H1 6692   1.489   6.863   1.786 -0.5819  0.7804 -0.1531
 2249TIP3    H2 6693   1.437   6.898   1.648  0.3424 -1.3396 -1.0601
 2250TIP3   OH2 6694   7.610   0.296   2.711 -0.3051  0.2496  0.2910
 2250TIP3    H1 6695   7.646   0.274   2.797  0.6300  0.5652 -0.0101
 2250TIP3    H2 6696   7.663   0.370   2.681 -2.3748  1.8874  0.5840
 2251TIP3   OH2 6697   7.491   1.081   2.168 -0.4604 -0.2924  0.2480
 2251TIP3    H1 6698   7.505   1.047   2.079 -0.3823  2.2797 -0.7453
 2251TIP3    H2 6699   7.544   1.023   2.224  0.2738 -1.3214 -1.4841
 2252TIP3   OH2 6700   3.313   7.190   1.537 -0.0424  0.0588 -0.1611
 2252TIP3    H1 6701   3.280   7.258   1.479  1.5989  2.0248  1.1554
 2252TIP3    H2 6702   3.379   7.234   1.591 -1.0300 -1.8762  2.7379
 2253TIP3   OH2 6703   7.936   2.666   0.419  0.2881 -0.8148  0.0294
 2253TIP3    H1 6704   7.856   2.654   0.469 -0.6740  0.4384 -1.1462
 2253TIP3    H2 6705   7.924   2.613   0.340 -0.0647  0.5309 -0.8539
 2254TIP3   OH2 6706   7.853   1.970   2.178 -0.2877  0.1332  0.1603
 2254TIP3    H1 6707   7.899   1.911   2.237  0.0392  1.7013  1.5180
 2254TIP3    H2 6708   7.761   1.960   2.200 -0.1045  1.2896  1.5017
 2255TIP3   OH2 6709   7.153   2.616   4.005  0.1977  0.3466 -0.2757
 2255TIP3    H1 6710   7.072   2.647   4.045 -0.4099 -1.7504  0.2047
 2255TIP3    H2 6711   7.222   2.648   4.062 -0.2695  2.2503 -0.7529
 2256TIP3   OH2 6712   6.644   0.746   2.367  0.1606 -0.8762 -0.0168
 2256TIP3    H1 6713   6.578   0.676   2.369 -0.9730  0.2244  1.3795
 2256TIP3    H2 6714   6.700   0.729   2.442 -0.9226  0.4648  1.1228
 2257TIP3   OH2 6715   3.202   0.307   2.882 -0.2564  0.4367 -0.2571
 2257TIP3    H1 6716   3.158   0.391   2.870 -0.4060  0.5123  0.7905
 2257TIP3    H2 6717   3.132   0.246   2.904 -0.2342 -0.1089 -1.6333
 2258TIP3   OH2 6718   7.013   0.526   3.488  0.4893  0.5605 -0.8071
 2258TIP3    H1 6719   6.939   0.495   3.436 -0.1048 -0.3135  0.5225
 2258TIP3    H2 6720   7.022   0.461   3.557  1.6808  1.3579 -0.1979
 2259TIP3   OH2 6721   5.107   0.094   0.798 -0.0728 -0.1135  0.5527
 2259TIP3    H1 6722   5.107   0.008   0.839  3.2391 -0.1571  0.5567
 2259TIP3    H2 6723   5.199   0.119   0.793 -0.9462  3.3597  0.3783
 2260TIP3   OH2 6724   3.186   6.611   2.963 -0.1883 -0.0754 -0.6008
 2260TIP3    H1 6725   3.095   6.603   2.933  0.1118 -1.6309 -1.1384
 2260TIP3    H2 6726   3.181   6.598   3.058 -0.5818  0.3766 -0.5543
 2261TIP3   OH2 6727   6.975   0.465   2.697 -0.2494  0.4837 -0.7680
 2261TIP3    H1 6728   6.890   0.425   2.677  0.0663 -0.2630 -0.6205
 2261TIP3    H2 6729   7.029   0.392   2.728  0.0143  1.2197  0.4987
 2262TIP3   OH2 6730   1.607   6.817   3.650 -0.9459  0.0767 -0.4051
 2262TIP3    H1 6731   1.567   6.781   3.730  2.2040  0.3908  1.4175
 2262TIP3    H2 6732   1.629   6.740   3.598 -3.9317 -0.0953 -1.4996
 2263TIP3   OH2 6733   4.264   0.187   2.665  0.5935 -0.1040 -0.1333
 2263TIP3    H1 6734   4.261   0.164   2.572 -0.1337 -0.9106  0.0862
 2263TIP3    H2 6735   4.186   0.146   2.703  0.5733  0.7050  0.7264
 2264TIP3   OH2 6736   5.177   6.973   0.522  0.2788 -0.0637  0.0198
 2264TIP3    H1 6737   5.104   6.951   0.465  0.6021  0.4504 -0.6009
 2264TIP3    H2 6738   5.202   6.890   0.562  0.1882 -0.4646 -0.7449
 2265TIP3   OH2 6739   5.604   3.111   2.900 -0.1301 -0.0564  0.2277
 2265TIP3    H1 6740   5.512   3.136   2.893 -0.3359 -0.7455  0.4890
 2265TIP3    H2 6741   5.627   3.133   2.991  0.0909  0.5439  0.0284
 2266TIP3   OH2 6742   7.016   1.793   1.012  0.1027  0.3087 -0.0781
 2266TIP3    H1 6743   6.935   1.817   0.967 -0.5751  0.3198  1.1338
 2266TIP3    H2 6744   7.028   1.700   0.991 -0.9893 -0.0535  0.9080
 2267TIP3   OH2 6745   6.538   1.061   3.461 -0.3687  0.2036  0.1980
 2267TIP3    H1 6746   6.525   0.967   3.450 -0.8559  0.3176 -0.2183
 2267TIP3    H2 6747   6.633   1.073   3.456 -0.2688 -0.3284  0.7621
 2268TIP3   OH2 6748   6.048   1.005   2.306 -0.5445 -0.2062 -0.4358
 2268TIP3    H1 6749   6.076   0.967   2.222 -1.1962 -0.2219 -0.6472
 2268TIP3    H2 6750   6.092   1.090   2.309 -1.4654  0.3089 -1.3459
 2269TIP3   OH2 6751   6.559   1.374   3.541  0.6104 -0.4477  0.2251
 2269TIP3    H1 6752   6.522   1.349   3.456  1.1296  2.7758 -1.0160
 2269TIP3    H2 6753   6.643   1.415   3.519  0.6815  0.5526  2.2712
 2270TIP3   OH2 6754   6.168   2.399   3.779  0.2061  0.1544  0.2377
 2270TIP3    H1 6755   6.218   2.461   3.725  0.1150 -1.2203 -1.4869
 2270TIP3    H2 6756   6.111   2.354   3.716 -1.7122  0.2455  1.8696
 2271TIP3   OH2 6757   8.306   3.086   3.384  0.0977  0.3293  0.4874
 2271TIP3    H1 6758   8.281   3.029   3.457  1.7294 -0.1549  0.6749
 2271TIP3    H2 6759   8.264   3.047   3.307  1.8537 -1.5884  0.4894
 2272TIP3   OH2 6760   7.191   1.091   2.188  0.4598 -0.2365 -0.5143
 2272TIP3    H1 6761   7.287   1.097   2.193  0.6873 -3.2480 -0.2519
 2272TIP3    H2 6762   7.164   1.073   2.278 -0.5177  2.1556 -0.3115
 2273TIP3   OH2 6763   5.571   7.901   3.451 -0.0295  0.1891 -0.4324
 2273TIP3    H1 6764   5.663   7.903   3.475 -0.0900 -0.4726 -0.1320
 2273TIP3    H2 6765   5.535   7.984   3.482  0.0795 -0.2871  0.9957
 2274TIP3   OH2 6766   7.245   2.448   0.406  0.5556 -0.0573  0.4625
 2274TIP3    H1 6767   7.170   2.442   0.464  0.3814 -0.4590  0.1913
 2274TIP3    H2 6768   7.218   2.511   0.338  0.7150  0.3187  0.7433
 2275TIP3   OH2 6769   5.727   1.114   2.552  0.2731  0.8786  0.6667
 2275TIP3    H1 6770   5.762   1.180   2.491  0.5229 -0.2656 -0.4445
 2275TIP3    H2 6771   5.633   1.118   2.540  0.4396 -0.8278 -1.3769
 2276TIP3   OH2 6772   3.899   1.373   2.041 -0.1709  0.1346 -0.1681
 2276TIP3    H1 6773   3.959   1.448   2.034 -1.5571  1.3526  0.7559
 2276TIP3    H2 6774   3.922   1.333   2.125  1.6435 -1.4681 -1.3713
 2277TIP3   OH2 6775   5.879   2.358   3.310  0.4953 -0.0647  0.2078
 2277TIP3    H1 6776   5.823   2.416   3.259  0.7861  2.5339  2.6855
 2277TIP3    H2 6777   5.818   2.306   3.363  0.2702 -1.2065 -1.1564
 2278TIP3   OH2 6778   7.707   1.964   0.970  0.0181 -0.4618 -0.1120
 2278TIP3    H1 6779   7.656   2.035   1.009  0.1395 -0.1396 -0.5253
 2278TIP3    H2 6780   7.790   2.006   0.945  0.8116 -1.1509  1.2789
 2279TIP3   OH2 6781   0.959   5.974   6.277 -0.2049 -0.8006  0.3471
 2279TIP3    H1 6782   1.054   5.957   6.275  0.0514  0.5614  0.6367
 2279TIP3    H2 6783   0.927   5.924   6.352  0.2026 -1.6611 -0.0459
 2280TIP3   OH2 6784   6.756   3.183   2.833 -0.1105  0.1151  0.6843
 2280TIP3    H1 6785   6.761   3.101   2.882  2.5904  0.4830  1.1336
 2280TIP3    H2 6786   6.772   3.158   2.742 -2.4252 -0.2294  0.3562
 2281TIP3   OH2 6787   8.454   1.359   1.913 -0.2126 -0.3509 -0.3842
 2281TIP3    H1 6788   8.526   1.367   1.851 -0.6714 -1.1182 -1.0272
 2281TIP3    H2 6789   8.378   1.394   1.866 -0.0074  1.7646  0.7855
 2282TIP3   OH2 6790   0.501   1.445   1.532 -0.5361 -0.2882 -0.1510
 2282TIP3    H1 6791   0.429   1.487   1.580 -1.0604  0.7306 -1.7986
 2282TIP3    H2 6792   0.580   1.485   1.569 -0.9416  0.6033 -0.2146
 2283TIP3   OH2 6793   6.794   0.595   1.886  0.2619 -0.0208  0.2088
 2283TIP3    H1 6794   6.766   0.664   1.947  0.4130 -0.6865  1.0395
 2283TIP3    H2 6795   6.873   0.630   1.845  1.0405 -0.2090  1.5359
 2284TIP3   OH2 6796   1.480   5.043   6.874 -0.2746 -0.0648 -0.2406
 2284TIP3    H1 6797   1.485   4.953   6.843  1.5946  0.7545 -2.5640
 2284TIP3    H2 6798   1.533   5.045   6.953  0.6137 -0.7736 -0.8123
 2285TIP3   OH2 6799   7.586   1.978   2.289 -0.1108 -0.4371 -0.1212
 2285TIP3    H1 6800   7.510   2.007   2.240  0.2510 -0.3793 -0.6494
 2285TIP3    H2 6801   7.605   2.051   2.348 -0.3701 -0.3924 -0.0918
 2286TIP3   OH2 6802   1.060   4.577   6.784  0.3574 -0.1980 -0.1689
 2286TIP3    H1 6803   1.047   4.583   6.689  1.4010 -1.9403 -0.4537
 2286TIP3    H2 6804   1.146   4.617   6.798 -0.0060  0.4836  0.1028
 2287TIP3   OH2 6805   7.855   2.209   0.373  0.6447 -0.0006 -0.1611
 2287TIP3    H1 6806   7.851   2.304   0.358  0.2552 -0.1400 -0.9331
 2287TIP3    H2 6807   7.771   2.176   0.342  0.4874 -0.5080  0.7879
 2288TIP3   OH2 6808   7.054   0.147   1.305  0.9079 -0.1392  0.1979
 2288TIP3    H1 6809   7.077   0.100   1.224  1.2055 -0.7013  0.6090
 2288TIP3    H2 6810   6.964   0.121   1.324 -0.0751  1.9363 -1.3230
 2289TIP3   OH2 6811   6.231   1.657   4.510 -0.1417  0.5077  0.2517
 2289TIP3    H1 6812   6.236   1.598   4.434 -0.2072  0.2888  0.4157
 2289TIP3    H2 6813   6.252   1.601   4.585  0.3211  0.8193  0.3499
 2290TIP3   OH2 6814   5.999   0.963   4.861  0.3086 -0.0079  0.3391
 2290TIP3    H1 6815   5.913   0.922   4.874 -0.2553  1.2633  0.6525
 2290TIP3    H2 6816   6.060   0.889   4.858 -0.7645 -0.9120  0.3064
 2291TIP3   OH2 6817   5.848   2.173   4.688 -0.5260 -0.4546  0.3701
 2291TIP3    H1 6818   5.901   2.161   4.767 -1.3097  1.7355  1.2606
 2291TIP3    H2 6819   5.906   2.147   4.617  0.5817 -1.3792  1.5747
 2292TIP3   OH2 6820   7.754   1.716   0.615  0.1999  0.4073 -0.1821
 2292TIP3    H1 6821   7.816   1.704   0.686  0.9871  1.9243 -0.5926
 2292TIP3    H2 6822   7.668   1.716   0.657  0.7250  2.4602  0.9386
 2293TIP3   OH2 6823   7.449   1.704   2.755 -0.0015 -1.4243  0.3221
 2293TIP3    H1 6824   7.478   1.682   2.843  2.4621 -2.1673 -0.6209
 2293TIP3    H2 6825   7.521   1.755   2.718 -1.5682  0.0183 -0.8197
 2294TIP3   OH2 6826   6.112   7.150   1.951  0.4346  0.2937  0.3278
 2294TIP3    H1 6827   6.171   7.167   2.024  0.3580 -2.6621  1.1440
 2294TIP3    H2 6828   6.168   7.113   1.883 -0.2565 -1.4900  0.7025
 2295TIP3   OH2 6829   6.243   1.034   2.007  0.4131  0.3909 -0.0950
 2295TIP3    H1 6830   6.177   0.965   2.002 -0.8053  1.4582  0.9739
 2295TIP3    H2 6831   6.308   1.001   2.069 -0.1857  0.2137  0.4446
 2296TIP3   OH2 6832   6.579   3.614   1.089 -0.2281  0.3692 -0.3434
 2296TIP3    H1 6833   6.521   3.691   1.094 -0.8816 -0.1164 -0.3289
 2296TIP3    H2 6834   6.548   3.567   1.011  0.0328  0.0141 -0.2294
 2297TIP3   OH2 6835   7.727   1.874   1.887  0.2567  0.1507  0.0249
 2297TIP3    H1 6836   7.805   1.822   1.868 -0.2675  0.1117 -2.1693
 2297TIP3    H2 6837   7.754   1.933   1.957  2.0275 -0.3922 -0.1707
 2298TIP3   OH2 6838   5.409   7.581   0.943  0.1450 -0.1702  0.2203
 2298TIP3    H1 6839   5.477   7.648   0.932  0.8742 -0.8978  0.2302
 2298TIP3    H2 6840   5.327   7.630   0.943  0.5354  0.5262 -1.8281
 2299TIP3   OH2 6841   4.048   7.977   3.029 -0.1303  0.3660  0.7077
 2299TIP3    H1 6842   3.995   8.057   3.036 -2.4090 -1.2381  2.4358
 2299TIP3    H2 6843   3.999   7.911   3.078  1.7641 -2.0929 -0.5840
 2300TIP3   OH2 6844   7.200   2.085   0.122  0.1910 -0.2411  0.0953
 2300TIP3    H1 6845   7.293   2.061   0.119  0.6819  1.5143  0.2268
 2300TIP3    H2 6846   7.164   2.036   0.195  1.0986 -0.7077  0.2273
 2301TIP3   OH2 6847   7.635   0.501   1.967  0.2858 -0.9206 -0.2666
 2301TIP3    H1 6848   7.709   0.544   1.924  0.5138 -0.7061  0.3242
 2301TIP3    H2 6849   7.584   0.574   2.005  0.8105 -1.1883  0.9566
 2302TIP3   OH2 6850   6.128   2.851   3.389  0.4453  0.1369 -0.0328
 2302TIP3    H1 6851   6.177   2.934   3.387  0.6365  0.0119 -1.1841
 2302TIP3    H2 6852   6.076   2.853   3.309  0.1687 -0.6945  0.1284
 2303TIP3   OH2 6853   0.093   1.947   0.208  0.3882  0.3429 -0.0153
 2303TIP3    H1 6854   0.043   1.908   0.280 -0.7040  2.3945  0.3811
 2303TIP3    H2 6855   0.146   2.015   0.250  0.5214  0.8496 -0.9978
 2304TIP3   OH2 6856   4.072   7.987   3.500  0.2780 -0.2215 -0.2902
 2304TIP3    H1 6857   4.144   8.029   3.453 -0.3691  0.9263 -0.2789
 2304TIP3    H2 6858   4.036   7.925   3.436 -0.8967  1.6738 -1.5224
 2305TIP3   OH2 6859   7.335   3.751   0.521  0.1691  0.1909  0.0840
 2305TIP3    H1 6860   7.258   3.797   0.555  0.5692  1.4375 -0.6801
 2305TIP3    H2 6861   7.402   3.763   0.588  0.4516  1.2289 -0.3810
 2306TIP3   OH2 6862   1.714   4.817   6.337  0.3602  0.3947 -0.3864
 2306TIP3    H1 6863   1.798   4.772   6.337  0.6148  0.8718 -0.0969
 2306TIP3    H2 6864   1.652   4.752   6.371  1.2538  1.2272  2.9489
 2307TIP3   OH2 6865   1.336   3.610   1.029 -0.1611 -0.1434 -0.3984
 2307TIP3    H1 6866   1.323   3.671   1.102  0.8921  0.9975 -1.1557
 2307TIP3    H2 6867   1.265   3.628   0.969  0.4017  0.6536 -0.8301
 2308TIP3   OH2 6868   8.171   1.196   3.043  0.0748 -0.1826 -0.3629
 2308TIP3    H1 6869   8.233   1.169   2.975  1.7416  0.4817  0.8543
 2308TIP3    H2 6870   8.203   1.281   3.072 -2.5436  1.0796 -1.0449
 2309TIP3   OH2 6871   2.021   1.364   4.365  0.0638  0.4425 -0.4815
 2309TIP3    H1 6872   2.006   1.296   4.299  0.8606  0.4377 -0.6585
 2309TIP3    H2 6873   2.115   1.359   4.383 -0.6155 -1.6834  2.9210
 2310TIP3   OH2 6874   0.257   0.864   1.564  0.2430 -0.4100  0.6977
 2310TIP3    H1 6875   0.349   0.888   1.563  0.0339  0.4035 -0.5851
 2310TIP3    H2 6876   0.241   0.832   1.653  1.4968  0.4103  1.2278
 2311TIP3   OH2 6877   0.668   0.657   3.785 -0.0315 -0.6866  0.3738
 2311TIP3    H1 6878   0.646   0.718   3.715 -0.5635 -0.3656  0.8254
 2311TIP3    H2 6879   0.584   0.626   3.817  0.2202 -1.0111  0.7223
 2312TIP3   OH2 6880   1.568   3.188   3.559  0.3155  0.6688  0.0768
 2312TIP3    H1 6881   1.578   3.190   3.464 -0.2105 -0.1224 -0.0072
 2312TIP3    H2 6882   1.512   3.263   3.579 -1.9964 -0.8049 -0.5869
 2313TIP3   OH2 6883   1.898   2.176   1.884 -0.1750  0.3443 -0.1737
 2313TIP3    H1 6884   1.815   2.157   1.840  0.9763 -0.5194 -2.0106
 2313TIP3    H2 6885   1.961   2.184   1.813  1.6267 -0.5766  1.2990
 2314TIP3   OH2 6886   0.626   2.935   4.797 -0.1694  0.1006  0.3245
 2314TIP3    H1 6887   0.604   2.989   4.873 -0.3472  0.4383  0.0368
 2314TIP3    H2 6888   0.542   2.909   4.760 -0.0861 -0.6727  0.6632
 2315TIP3   OH2 6889   1.385   1.728   5.417  0.0338 -0.0458 -0.4663
 2315TIP3    H1 6890   1.375   1.633   5.406  0.4700 -0.1313 -0.1108
 2315TIP3    H2 6891   1.471   1.747   5.380  0.2264  0.1152  0.0685
 2316TIP3   OH2 6892   1.932   2.311   4.159 -0.1709  0.3851  0.0673
 2316TIP3    H1 6893   1.965   2.400   4.146  0.2763  0.0633 -1.1039
 2316TIP3    H2 6894   1.889   2.289   4.076 -0.6957 -0.3110  0.5163
 2317TIP3   OH2 6895   7.621   0.839   1.475 -0.3348  0.5344 -0.0121
 2317TIP3    H1 6896   7.621   0.754   1.433 -1.0736  0.4640  0.1211
 2317TIP3    H2 6897   7.541   0.882   1.444  0.1631  1.2858 -0.2886
 2318TIP3   OH2 6898   8.437   1.987   1.742  0.4745 -0.1308 -0.1184
 2318TIP3    H1 6899   8.468   1.916   1.687  0.7804  0.4354 -0.6878
 2318TIP3    H2 6900   8.375   2.035   1.688  0.2818  0.0451  0.2552
 2319TIP3   OH2 6901   7.512   7.240   3.522  0.6003 -0.3787  0.2292
 2319TIP3    H1 6902   7.491   7.235   3.429 -2.0203 -1.5301  0.8141
 2319TIP3    H2 6903   7.601   7.205   3.529  0.9539  0.0421 -1.8741
 2320TIP3   OH2 6904   0.371   1.716   5.331  0.1365 -0.1991 -0.6519
 2320TIP3    H1 6905   0.312   1.788   5.353 -1.0025 -1.0477 -0.9069
 2320TIP3    H2 6906   0.386   1.725   5.237  0.2424 -0.1180 -0.6280
 2321TIP3   OH2 6907   7.809   0.017   2.757 -0.3359  0.1699  0.4407
 2321TIP3    H1 6908   7.783   0.089   2.815 -0.2495  0.5923 -0.0426
 2321TIP3    H2 6909   7.794   0.050   2.669  1.0845  0.1418  0.1756
 2322TIP3   OH2 6910   0.131   2.442   2.513 -0.3810 -0.5784 -0.1080
 2322TIP3    H1 6911   0.186   2.478   2.443 -0.3138 -0.7088 -0.1224
 2322TIP3    H2 6912   0.045   2.430   2.472 -0.4408 -0.2992 -0.0630
 2323TIP3   OH2 6913   2.111   0.505   6.055  0.3171 -0.0959  0.6360
 2323TIP3    H1 6914   2.150   0.424   6.023  2.4665  0.2235  2.3363
 2323TIP3    H2 6915   2.077   0.483   6.142 -1.4366  0.1767  0.0311
 2324TIP3   OH2 6916   8.522   1.626   3.577 -0.4952  0.3077 -0.3561
 2324TIP3    H1 6917   8.473   1.548   3.549  0.3924 -0.5638  0.4833
 2324TIP3    H2 6918   8.454   1.692   3.594 -1.5479 -1.4269  2.5775
 2325TIP3   OH2 6919   0.151   2.915   3.648  0.5263  0.2375 -0.5173
 2325TIP3    H1 6920   0.216   2.845   3.636 -0.2299 -0.5959  0.1534
 2325TIP3    H2 6921   0.079   2.891   3.590 -0.3534 -0.3301  0.7810
 2326TIP3   OH2 6922   0.171   0.700   4.151  0.0777  0.1473 -0.0150
 2326TIP3    H1 6923   0.142   0.610   4.142 -1.4574  0.5276  0.8686
 2326TIP3    H2 6924   0.239   0.697   4.218  0.7486 -0.4935 -0.7259
 2327TIP3   OH2 6925   1.218   0.957   3.946 -0.7167  0.1261 -0.0388
 2327TIP3    H1 6926   1.284   0.942   3.878 -0.5324 -0.0061  0.1690
 2327TIP3    H2 6927   1.212   1.052   3.952 -1.6739  0.1485 -1.1539
 2328TIP3   OH2 6928   0.470   1.233   3.650 -0.0329 -0.0901  0.2680
 2328TIP3    H1 6929   0.394   1.238   3.592  0.4283 -1.4942 -0.4741
 2328TIP3    H2 6930   0.536   1.288   3.607 -0.7260  1.4181  1.0940
 2329TIP3   OH2 6931   1.870   2.177   3.916  0.5426 -0.0595  0.0354
 2329TIP3    H1 6932   1.901   2.144   3.832 -0.1560  0.7847 -0.5679
 2329TIP3    H2 6933   1.779   2.148   3.920  0.0216  1.4498 -0.3460
 2330TIP3   OH2 6934   1.537   1.161   1.755  0.0011 -0.0625 -0.0177
 2330TIP3    H1 6935   1.551   1.098   1.826  1.0985 -0.2443 -0.3911
 2330TIP3    H2 6936   1.452   1.136   1.719 -1.7535  1.5664  2.7943
 2331TIP3   OH2 6937   7.157   0.160   2.020 -0.5340  0.0972  0.3112
 2331TIP3    H1 6938   7.110   0.233   1.979  0.9739  2.2155  2.2416
 2331TIP3    H2 6939   7.124   0.159   2.110  1.5480  0.2621  1.0864
 2332TIP3   OH2 6940   6.577   7.966   4.061 -0.5042 -0.4398 -0.1956
 2332TIP3    H1 6941   6.654   7.914   4.036 -0.4011 -1.1524  1.5408
 2332TIP3    H2 6942   6.588   8.049   4.015  0.2162 -1.3177 -1.6394
 2333TIP3   OH2 6943   6.969   1.341   2.603  0.3705  0.8858  0.2221
 2333TIP3    H1 6944   6.948   1.248   2.599  1.4829  0.6709 -4.2794
 2333TIP3    H2 6945   7.065   1.344   2.604  0.3503  1.9544  0.0562
 2334TIP3   OH2 6946   8.122   2.724   2.569  0.2007  0.5115  0.4660
 2334TIP3    H1 6947   8.035   2.689   2.553  0.0397  1.6488 -1.3391
 2334TIP3    H2 6948   8.180   2.648   2.567 -0.7559 -0.2730  1.8933
 2335TIP3   OH2 6949   8.292   1.843   2.846  0.2794  0.1966 -0.1045
 2335TIP3    H1 6950   8.291   1.934   2.875 -0.3495  0.8061 -1.9950
 2335TIP3    H2 6951   8.290   1.848   2.751  0.7236 -1.7924 -0.2393
 2336TIP3   OH2 6952   7.797   2.115   3.685  0.0285 -0.1056 -0.9558
 2336TIP3    H1 6953   7.840   2.044   3.638  1.9890 -0.7761  1.7508
 2336TIP3    H2 6954   7.863   2.184   3.691 -1.2437  1.2284 -1.9286
 2337TIP3   OH2 6955   1.269   1.068   4.597  0.3646  0.1102  0.0445
 2337TIP3    H1 6956   1.340   1.033   4.651 -0.2391  0.7989  1.3006
 2337TIP3    H2 6957   1.293   1.160   4.583 -0.6033  0.5253  1.0457
 2338TIP3   OH2 6958   7.228   2.456   3.805  0.2631  0.4303  0.3449
 2338TIP3    H1 6959   7.239   2.498   3.720 -0.4591 -1.4575 -0.6956
 2338TIP3    H2 6960   7.202   2.528   3.863  1.8724  1.9427 -0.7450
 2339TIP3   OH2 6961   8.324   2.739   3.791 -0.1257 -0.7711  0.8194
 2339TIP3    H1 6962   8.324   2.707   3.701 -2.2590  0.3005  0.3998
 2339TIP3    H2 6963   8.353   2.830   3.784  2.1113 -1.3803  1.5502
 2340TIP3   OH2 6964   2.096   2.926   4.481  0.1678  0.2102  0.1999
 2340TIP3    H1 6965   2.132   2.927   4.392 -0.4101 -2.7722 -0.1137
 2340TIP3    H2 6966   2.149   2.990   4.529 -0.2006  2.6200 -2.5229
 2341TIP3   OH2 6967   1.998   0.541   3.381 -0.1837 -0.4893 -0.3506
 2341TIP3    H1 6968   2.088   0.537   3.348  0.8714 -1.1065  2.4094
 2341TIP3    H2 6969   1.965   0.626   3.351  1.5547  0.0343 -0.8481
 2342TIP3   OH2 6970   8.509   1.814   4.235  0.3929  0.2138  0.0971
 2342TIP3    H1 6971   8.416   1.835   4.239  0.5024  0.4279  1.6362
 2342TIP3    H2 6972   8.513   1.734   4.182 -0.5179  1.0144 -1.2059
 2343TIP3   OH2 6973   7.434   0.983   2.868 -0.2020  0.1268  0.0031
 2343TIP3    H1 6974   7.508   1.037   2.842  0.6292 -2.3846 -3.2455
 2343TIP3    H2 6975   7.473   0.903   2.902 -1.3933 -0.9949 -1.2078
 2344TIP3   OH2 6976   0.697   1.512   4.389  0.2666 -0.1044  0.1376
 2344TIP3    H1 6977   0.623   1.543   4.338 -0.0261 -1.2132 -0.1360
 2344TIP3    H2 6978   0.678   1.419   4.404  2.4248 -0.8555 -1.4777
 2345TIP3   OH2 6979   2.413   2.223   3.168  0.8550 -0.1434 -0.0003
 2345TIP3    H1 6980   2.438   2.199   3.078 -1.4231 -0.3549 -0.6015
 2345TIP3    H2 6981   2.434   2.146   3.220  1.7187 -0.2105 -0.4431
 2346TIP3   OH2 6982   7.856   1.818   2.418  0.0586 -0.6473 -0.3083
 2346TIP3    H1 6983   7.904   1.772   2.487 -2.0858 -0.9464  1.0329
 2346TIP3    H2 6984   7.772   1.774   2.414 -0.8201  1.0641 -1.3143
 2347TIP3   OH2 6985   8.456   1.759   1.604 -0.2977  0.3244  0.1263
 2347TIP3    H1 6986   8.440   1.679   1.554  0.5421  0.1841  0.0669
 2347TIP3    H2 6987   8.476   1.825   1.538 -1.2307  0.6468  0.1618
 2348TIP3   OH2 6988   8.331   1.155   2.814  0.4285  0.5188 -0.0427
 2348TIP3    H1 6989   8.311   1.101   2.738  2.3066 -2.0650  1.2131
 2348TIP3    H2 6990   8.403   1.210   2.786  0.0252  0.7409 -0.6446
 2349TIP3   OH2 6991   8.307   2.592   4.028  0.2686  1.0019 -0.1257
 2349TIP3    H1 6992   8.215   2.571   4.043  0.2670  1.2273  0.1805
 2349TIP3    H2 6993   8.309   2.638   3.945  0.4857 -1.8700 -1.7989
 2350TIP3   OH2 6994   7.391   4.118   5.480 -0.7269  0.0378 -0.1758
 2350TIP3    H1 6995   7.427   4.196   5.521 -2.0251 -1.1178  3.3328
 2350TIP3    H2 6996   7.460   4.087   5.422  0.3699  2.9094 -0.4766
 2351TIP3   OH2 6997   1.892   1.696   5.793 -0.0155  0.0596 -0.3369
 2351TIP3    H1 6998   1.906   1.769   5.853 -0.3151 -1.0266  1.0833
 2351TIP3    H2 6999   1.801   1.705   5.766  0.5775  1.5025 -1.9521
 2352TIP3   OH2 7000   0.734   2.235   6.627  0.1439  0.2983  0.0096
 2352TIP3    H1 7001   0.663   2.189   6.670 -1.9191  2.4026 -0.9996
 2352TIP3    H2 7002   0.771   2.292   6.695  1.6135 -1.5923  0.8203
 2353TIP3   OH2 7003   8.147   0.934   3.149 -0.4268  0.3798 -0.4615
 2353TIP3    H1 7004   8.151   1.028   3.130  0.0841  0.2313 -1.1355
 2353TIP3    H2 7005   8.228   0.899   3.111  0.2026 -0.0836  1.2409
 2354TIP3   OH2 7006   0.958   4.339   5.682 -0.4979  0.0653  0.3172
 2354TIP3    H1 7007   1.033   4.349   5.740 -0.8110  1.3301  0.5332
 2354TIP3    H2 7008   0.995   4.342   5.594 -0.4052  1.9272  0.3975
 2355TIP3   OH2 7009   1.061   1.871   3.104 -0.8085  0.0144  0.4285
 2355TIP3    H1 7010   0.995   1.923   3.150 -0.2504  1.4050 -0.3085
 2355TIP3    H2 7011   1.129   1.934   3.080 -1.4605 -0.4671 -3.0166
 2356TIP3   OH2 7012   1.278   0.810   2.259 -0.0925  0.6646 -0.1593
 2356TIP3    H1 7013   1.223   0.750   2.209 -0.1336 -0.2019  0.9129
 2356TIP3    H2 7014   1.295   0.883   2.199 -1.1060  0.1931 -1.0286
 2357TIP3   OH2 7015   1.383   2.476   1.643  0.6357 -0.5526 -0.2186
 2357TIP3    H1 7016   1.330   2.554   1.658  0.2581 -0.7792 -0.3757
 2357TIP3    H2 7017   1.325   2.402   1.663  1.1217 -0.7829  0.3296
 2358TIP3   OH2 7018   7.917   2.509   3.899 -0.1378  0.0665  0.2146
 2358TIP3    H1 7019   7.866   2.445   3.947 -0.0062 -0.4294 -0.2943
 2358TIP3    H2 7020   7.972   2.457   3.840  0.6140  0.6079  0.4280
 2359TIP3   OH2 7021   0.993   1.995   3.353  0.3753  0.2465 -0.4850
 2359TIP3    H1 7022   0.924   1.929   3.361 -0.7593  1.4893  0.3398
 2359TIP3    H2 7023   1.025   2.008   3.442  0.2673  1.1237 -0.5648
 2360TIP3   OH2 7024   1.679   1.270   4.295 -0.0433  0.1719  0.1387
 2360TIP3    H1 7025   1.691   1.209   4.368  2.2810  0.8073  0.3364
 2360TIP3    H2 7026   1.603   1.323   4.320 -0.4782 -0.8988  1.1641
 2361TIP3   OH2 7027   3.261   2.169   6.060  0.0122 -0.3658  0.2654
 2361TIP3    H1 7028   3.172   2.136   6.070  0.5455 -2.3188 -1.0086
 2361TIP3    H2 7029   3.316   2.092   6.073  1.3615  0.2711 -1.4791
 2362TIP3   OH2 7030   0.183   2.608   3.341 -0.2322 -0.0344  0.2515
 2362TIP3    H1 7031   0.151   2.519   3.328  1.0672 -0.5095  0.1960
 2362TIP3    H2 7032   0.105   2.659   3.363 -0.6911 -1.6110  2.4572
 2363TIP3   OH2 7033   2.146   2.584   5.876 -0.0461 -0.0642 -0.5014
 2363TIP3    H1 7034   2.207   2.636   5.825 -0.0988 -0.1120 -0.6137
 2363TIP3    H2 7035   2.062   2.595   5.831  0.4311 -2.3104 -2.0503
 2364TIP3   OH2 7036   8.113   2.941   2.763  0.2362  0.3782 -1.4580
 2364TIP3    H1 7037   8.062   3.004   2.814 -0.5327 -1.2362 -0.1927
 2364TIP3    H2 7038   8.049   2.901   2.704  0.3986 -0.3485 -1.1439
 2365TIP3   OH2 7039   6.899   0.376   3.123 -0.1002 -0.8030  0.2233
 2365TIP3    H1 7040   6.870   0.319   3.052  0.0801 -0.5483 -0.0584
 2365TIP3    H2 7041   6.981   0.414   3.091 -0.4579 -0.0295  0.2105
 2366TIP3   OH2 7042   0.824   2.044   3.984 -0.2199 -0.6390  0.5290
 2366TIP3    H1 7043   0.869   2.042   4.069  2.1727 -1.9336 -0.7069
 2366TIP3    H2 7044   0.858   2.123   3.942  0.3999 -1.2677 -0.1544
 2367TIP3   OH2 7045   1.907   0.528   0.602 -0.0846 -0.2634  0.7020
 2367TIP3    H1 7046   1.861   0.599   0.645 -1.3314  1.6818 -3.5869
 2367TIP3    H2 7047   1.999   0.547   0.615 -0.4245  1.5927  0.4572
 2368TIP3   OH2 7048   1.942   2.401   5.654  0.8657 -0.6763  0.0802
 2368TIP3    H1 7049   1.917   2.421   5.564  1.2179 -1.4908 -0.2134
 2368TIP3    H2 7050   1.925   2.481   5.703 -0.6619 -0.6786 -0.4350
 2369TIP3   OH2 7051   5.486   0.245   2.929  0.7403  0.1946 -0.0346
 2369TIP3    H1 7052   5.510   0.336   2.941  1.1919 -0.0658  1.1003
 2369TIP3    H2 7053   5.407   0.234   2.982  1.1769 -0.2841  0.5205
 2370TIP3   OH2 7054   2.762   1.385   6.478  0.1673  0.1033 -0.0290
 2370TIP3    H1 7055   2.822   1.402   6.406 -1.8861 -0.2399 -1.8969
 2370TIP3    H2 7056   2.802   1.312   6.526  1.8574  0.7260 -0.4623
 2371TIP3   OH2 7057   1.924   4.019   5.477 -0.2013  0.2923  0.2377
 2371TIP3    H1 7058   1.852   4.054   5.424 -0.1383  0.4843  0.2817
 2371TIP3    H2 7059   1.880   3.978   5.552 -0.1758  1.9550  1.1845
 2372TIP3   OH2 7060   2.036   1.105   4.205 -0.2737 -0.2219  0.6191
 2372TIP3    H1 7061   2.090   1.048   4.260 -0.7964 -1.3780 -0.0238
 2372TIP3    H2 7062   2.093   1.130   4.133  0.1247  0.5138  1.1929
 2373TIP3   OH2 7063   0.464   1.291   2.731 -0.0899 -0.3841  0.2439
 2373TIP3    H1 7064   0.550   1.299   2.772 -0.0291  0.2613 -0.0058
 2373TIP3    H2 7065   0.460   1.364   2.669 -1.5833  0.7682  1.6490
 2374TIP3   OH2 7066   7.770   1.259   4.275  0.2479  0.4466  0.1853
 2374TIP3    H1 7067   7.754   1.167   4.253  0.9932  0.2692  0.3642
 2374TIP3    H2 7068   7.757   1.264   4.369  0.2788  0.5099  0.1863
 2375TIP3   OH2 7069   0.328   2.780   5.183 -0.3939 -0.8645 -0.6592
 2375TIP3    H1 7070   0.266   2.775   5.256 -0.1603 -0.9528 -0.4655
 2375TIP3    H2 7071   0.363   2.691   5.176  0.7818 -0.4752  0.1658
 2376TIP3   OH2 7072   0.685   3.719   4.572  0.0407 -0.1364  0.0519
 2376TIP3    H1 7073   0.711   3.740   4.662  1.1198  0.1406 -0.3119
 2376TIP3    H2 7074   0.717   3.629   4.559 -0.3986 -0.2908  0.0548
 2377TIP3   OH2 7075   4.316   7.412   0.874  1.0363 -0.1133 -0.0265
 2377TIP3    H1 7076   4.245   7.371   0.824 -0.1829  1.9565 -0.0599
 2377TIP3    H2 7077   4.377   7.444   0.807  0.8116  0.1821 -0.0911
 2378TIP3   OH2 7078   0.790   2.705   3.021  0.0343 -0.2709 -0.2003
 2378TIP3    H1 7079   0.788   2.750   2.937  1.0265  1.0884  0.5005
 2378TIP3    H2 7080   0.812   2.614   2.999 -0.5353 -0.1054 -1.4739
 2379TIP3   OH2 7081   7.569   1.536   4.726 -1.2367  0.3515 -0.4721
 2379TIP3    H1 7082   7.560   1.449   4.765  0.7324 -0.2987 -1.3685
 2379TIP3    H2 7083   7.551   1.597   4.798  0.7387 -0.8288  1.0839
 2380TIP3   OH2 7084   1.045   0.412   3.759  0.0387 -0.3498  0.4587
 2380TIP3    H1 7085   1.092   0.329   3.769  1.0540  0.2789  0.9746
 2380TIP3    H2 7086   1.104   0.478   3.795 -0.1860  0.7756 -1.1453
 2381TIP3   OH2 7087   2.276   0.936   3.125 -0.1707  0.6368  0.0162
 2381TIP3    H1 7088   2.350   0.983   3.163 -0.4355  1.9528 -1.0388
 2381TIP3    H2 7089   2.205   1.001   3.122 -0.7205  0.0112 -0.9304
 2382TIP3   OH2 7090   7.629   2.044   3.188  0.6883 -0.0711 -0.4183
 2382TIP3    H1 7091   7.615   2.055   3.282  1.2638  0.1633 -0.3558
 2382TIP3    H2 7092   7.545   2.012   3.155  0.3472  0.2694  0.1027
 2383TIP3   OH2 7093   0.312   0.796   2.401  0.4261  0.1475 -0.6501
 2383TIP3    H1 7094   0.279   0.731   2.339 -1.1192  0.8759 -0.6027
 2383TIP3    H2 7095   0.344   0.745   2.475 -0.4206 -0.5716 -0.7804
 2384TIP3   OH2 7096   0.474   1.945   2.701  0.1173 -0.2671  0.9282
 2384TIP3    H1 7097   0.486   1.853   2.675  1.4659  0.7412 -2.1943
 2384TIP3    H2 7098   0.380   1.956   2.707 -0.1640 -1.1514 -1.4334
 2385TIP3   OH2 7099   1.552   1.863   3.354 -0.1247 -0.6792  0.2855
 2385TIP3    H1 7100   1.515   1.789   3.305 -4.1631  1.2680  0.1292
 2385TIP3    H2 7101   1.528   1.846   3.445 -2.6097  1.1651  0.0416
 2386TIP3   OH2 7102   1.602   0.860   4.596  0.3975  0.0225  0.1798
 2386TIP3    H1 7103   1.619   0.838   4.504 -1.7889  0.8342 -0.4342
 2386TIP3    H2 7104   1.606   0.775   4.641 -0.0044 -0.5753 -0.8916
 2387TIP3   OH2 7105   4.910   7.194   4.491 -0.2614  0.0191 -0.6483
 2387TIP3    H1 7106   4.969   7.155   4.427  0.8050 -0.2063  0.4534
 2387TIP3    H2 7107   4.823   7.185   4.453  0.1489 -1.8627 -1.1922
 2388TIP3   OH2 7108   0.670   2.710   6.500 -0.4380 -0.4171  0.2939
 2388TIP3    H1 7109   0.717   2.638   6.458 -1.6530 -1.6325  1.0089
 2388TIP3    H2 7110   0.723   2.732   6.576  1.5017  1.4474 -1.5067
 2389TIP3   OH2 7111   1.423   1.195   5.111 -0.1484 -0.0490 -0.4275
 2389TIP3    H1 7112   1.493   1.228   5.055 -0.9095  1.0505 -0.7661
 2389TIP3    H2 7113   1.463   1.182   5.197  0.7720 -0.7060 -0.9555
 2390TIP3   OH2 7114   2.613   1.247   5.787 -0.1078  1.0268  0.0028
 2390TIP3    H1 7115   2.680   1.268   5.722  0.5960 -0.1860  0.3230
 2390TIP3    H2 7116   2.656   1.262   5.872  0.0065 -0.3878  0.2204
 2391TIP3   OH2 7117   0.068   1.296   2.774  0.0060  0.3120 -0.6265
 2391TIP3    H1 7118   0.087   1.274   2.865  1.7568  0.0981 -1.0325
 2391TIP3    H2 7119   0.134   1.249   2.723 -0.3215  1.2349 -1.9372
 2392TIP3   OH2 7120   4.847   7.948   3.052 -0.1070  0.0588 -0.4473
 2392TIP3    H1 7121   4.909   8.012   3.088 -0.0316 -1.0160  1.4049
 2392TIP3    H2 7122   4.768   7.961   3.104 -0.7504 -0.0301 -1.3913
 2393TIP3   OH2 7123   7.549   2.035   3.818  0.3956 -0.0411  0.1999
 2393TIP3    H1 7124   7.548   1.941   3.838  0.0715 -0.2480 -0.8077
 2393TIP3    H2 7125   7.642   2.056   3.806  0.2765 -0.7579 -2.0654
 2394TIP3   OH2 7126   1.886   1.342   2.234  0.7503  0.0898 -0.7278
 2394TIP3    H1 7127   1.865   1.261   2.189  2.0496 -0.3593 -0.5526
 2394TIP3    H2 7128   1.975   1.363   2.206  1.2225  0.3148  0.8800
 2395TIP3   OH2 7129   1.089   3.494   0.079 -0.1065  0.1194 -0.1897
 2395TIP3    H1 7130   1.074   3.570   0.022 -0.1894 -0.2977 -0.7212
 2395TIP3    H2 7131   1.009   3.490   0.133 -0.0538  0.4765 -0.0798
 2396TIP3   OH2 7132   8.297   1.004   5.887  0.3148 -0.1110  0.3878
 2396TIP3    H1 7133   8.249   1.058   5.950 -0.1618  1.0049 -0.9135
 2396TIP3    H2 7134   8.313   1.062   5.813 -0.9201 -1.9847 -1.4114
 2397TIP3   OH2 7135   1.830   2.445   5.113  0.0885  0.3376 -0.5970
 2397TIP3    H1 7136   1.786   2.417   5.033  1.4479 -1.4241 -0.7529
 2397TIP3    H2 7137   1.923   2.431   5.096  0.5111  1.3746  0.7459
 2398TIP3   OH2 7138   7.478   0.548   4.016  0.5369  0.0690  0.1902
 2398TIP3    H1 7139   7.526   0.560   4.098  1.6074 -2.0736 -0.0871
 2398TIP3    H2 7140   7.547   0.531   3.951 -0.4349 -0.4730 -0.7040
 2399TIP3   OH2 7141   8.436   2.220   4.716 -0.1977 -0.2442  0.2759
 2399TIP3    H1 7142   8.369   2.157   4.743 -0.0368 -1.7918 -2.6725
 2399TIP3    H2 7143   8.517   2.186   4.755 -0.5254 -0.4566  0.7763
 2400TIP3   OH2 7144   2.295   1.275   4.431 -0.8919  0.1452  0.1728
 2400TIP3    H1 7145   2.257   1.188   4.444 -0.2969 -0.1196  0.1529
 2400TIP3    H2 7146   2.309   1.282   4.337  0.2802 -0.2581  0.3116
 2401TIP3   OH2 7147   0.380   0.577   5.683  0.6018 -0.0218  0.5001
 2401TIP3    H1 7148   0.317   0.649   5.681 -0.2225 -0.7280  0.2015
 2401TIP3    H2 7149   0.417   0.574   5.595  0.5504 -0.0270  0.4778
 2402TIP3   OH2 7150   0.677   0.682   3.325  0.1040 -0.0174 -0.0204
 2402TIP3    H1 7151   0.690   0.751   3.260  1.0635 -1.0753 -0.9584
 2402TIP3    H2 7152   0.739   0.704   3.395  0.4942  0.0147 -0.3707
 2403TIP3   OH2 7153   8.044   3.274   4.937 -0.5542 -0.1682  0.1573
 2403TIP3    H1 7154   8.013   3.365   4.937 -0.9885 -0.3198 -0.3543
 2403TIP3    H2 7155   8.137   3.282   4.916 -0.5219  0.1775  0.4058
 2404TIP3   OH2 7156   7.592   1.703   3.993  0.6827  0.1448 -0.0494
 2404TIP3    H1 7157   7.529   1.710   3.921 -0.9756 -0.3107  1.3090
 2404TIP3    H2 7158   7.556   1.633   4.048  2.3325 -0.0334  0.8174
 2405TIP3   OH2 7159   1.395   2.213   3.524 -0.2830 -0.3209 -0.0496
 2405TIP3    H1 7160   1.482   2.175   3.518 -1.1986 -2.5324  0.1801
 2405TIP3    H2 7161   1.388   2.244   3.615  0.3563  0.0890 -0.1429
 2406TIP3   OH2 7162   1.247   0.778   3.668 -0.2792 -0.4709  0.2090
 2406TIP3    H1 7163   1.324   0.759   3.615  0.6464 -0.5754  1.5504
 2406TIP3    H2 7164   1.255   0.719   3.743 -1.3967 -0.1173  0.6095
 2407TIP3   OH2 7165   8.156   0.312   2.641  0.6651  0.8736  0.0478
 2407TIP3    H1 7166   8.151   0.270   2.727  0.9496  0.1805 -0.2673
 2407TIP3    H2 7167   8.250   0.323   2.625  0.5394  4.5423  1.5145
 2408TIP3   OH2 7168   5.803   7.027   4.555  0.3117  0.4059 -0.4023
 2408TIP3    H1 7169   5.898   7.025   4.541  0.0809  1.7831 -2.3262
 2408TIP3    H2 7170   5.769   6.954   4.503  0.3714 -0.5367  0.8655
 2409TIP3   OH2 7171   1.768   2.170   4.613  0.2624  0.0039 -0.1630
 2409TIP3    H1 7172   1.772   2.086   4.659 -0.4048 -0.6084 -1.1837
 2409TIP3    H2 7173   1.827   2.227   4.661 -0.0993 -0.7434  1.1906
 2410TIP3   OH2 7174   3.719   0.938   5.623 -0.1734 -0.3431 -0.0507
 2410TIP3    H1 7175   3.630   0.970   5.613  0.3035  0.5312 -1.7086
 2410TIP3    H2 7176   3.756   0.942   5.535  1.5235 -0.6444  0.6258
 2411TIP3   OH2 7177   4.334   4.385   0.261 -0.8516  0.8229  0.4623
 2411TIP3    H1 7178   4.405   4.339   0.305 -1.5095  1.3990  2.1602
 2411TIP3    H2 7179   4.367   4.474   0.247 -0.6737  0.6641 -0.1564
 2412TIP3   OH2 7180   6.660   0.767   6.273 -0.2596  0.1079  0.5992
 2412TIP3    H1 7181   6.722   0.795   6.340 -0.0104  1.3490 -0.1522
 2412TIP3    H2 7182   6.576   0.762   6.319 -0.3062  2.0485  0.7664
 2413TIP3   OH2 7183   6.702   0.866   2.915 -0.1739 -0.4619  0.1546
 2413TIP3    H1 7184   6.656   0.793   2.873 -0.9327 -1.3675  2.5137
 2413TIP3    H2 7185   6.795   0.845   2.903 -0.3767 -1.0763 -0.4059
 2414TIP3   OH2 7186   1.953   1.620   2.467  0.0101 -0.0512 -0.3385
 2414TIP3    H1 7187   1.939   1.627   2.373  0.5918  1.8141 -0.3015
 2414TIP3    H2 7188   1.880   1.668   2.506  0.7454  0.7363  0.0978
 2415TIP3   OH2 7189   1.977   1.291   4.816  0.2585  0.3406  0.8192
 2415TIP3    H1 7190   1.975   1.379   4.853 -0.3957  0.0893  1.4022
 2415TIP3    H2 7191   2.067   1.262   4.828  0.2544  0.5795  1.4800
 2416TIP3   OH2 7192   1.001   1.684   4.431  0.2803  0.2809  0.2546
 2416TIP3    H1 7193   0.977   1.598   4.466 -1.4105  1.0573  1.0650
 2416TIP3    H2 7194   1.006   1.741   4.508 -0.7070  1.3835 -0.4884
 2417TIP3   OH2 7195   0.789   0.880   3.166  0.5220  0.4771 -0.3933
 2417TIP3    H1 7196   0.862   0.938   3.186 -0.5162  1.9994 -0.8918
 2417TIP3    H2 7197   0.728   0.935   3.117 -1.1784 -0.6333  0.4286
 2418TIP3   OH2 7198   1.135   1.341   3.685 -0.4494  0.4187 -0.1025
 2418TIP3    H1 7199   1.200   1.306   3.746  0.7684  0.7901 -1.1756
 2418TIP3    H2 7200   1.085   1.264   3.658 -0.3419  0.1012  0.5864
 2419TIP3   OH2 7201   1.655   1.871   1.687  0.6284  0.1694 -0.3737
 2419TIP3    H1 7202   1.742   1.834   1.701  0.7598  0.6920  0.2375
 2419TIP3    H2 7203   1.612   1.810   1.627  0.1457 -2.0365  2.1289
 2420TIP3   OH2 7204   0.980   1.677   5.300  0.7158 -0.2927 -0.2708
 2420TIP3    H1 7205   1.005   1.728   5.223  2.2608 -1.3773 -0.5016
 2420TIP3    H2 7206   1.050   1.691   5.363 -0.4731  0.4840  0.9250
 2421TIP3   OH2 7207   8.328   2.105   4.097  0.5705 -0.7968 -0.0905
 2421TIP3    H1 7208   8.258   2.087   4.033 -1.5543  0.6294  1.7449
 2421TIP3    H2 7209   8.381   2.174   4.056 -1.3980  0.8729  0.0609
 2422TIP3   OH2 7210   1.703   3.079   3.134 -0.3658 -0.7066  0.6314
 2422TIP3    H1 7211   1.770   3.098   3.068 -0.6923 -0.1061  0.4715
 2422TIP3    H2 7212   1.663   2.997   3.105 -0.3763 -0.5474  0.1911
 2423TIP3   OH2 7213   2.195   3.518   3.699 -0.0041 -0.0631 -0.0493
 2423TIP3    H1 7214   2.112   3.473   3.714 -0.5895  1.7874  2.6113
 2423TIP3    H2 7215   2.258   3.472   3.754  1.0713 -2.2192 -2.9676
 2424TIP3   OH2 7216   0.883   0.859   1.364 -0.2275  0.0601  0.2672
 2424TIP3    H1 7217   0.963   0.812   1.340  0.7927  1.1148  1.5673
 2424TIP3    H2 7218   0.881   0.935   1.306 -0.7750 -0.4381 -0.3813
 2425TIP3   OH2 7219   1.810   1.732   3.669 -0.6292  0.0051 -0.5416
 2425TIP3    H1 7220   1.870   1.668   3.630  0.2794  0.0088  0.8120
 2425TIP3    H2 7221   1.827   1.813   3.621  0.4035 -0.0102 -0.1972
 2426TIP3   OH2 7222   2.728   2.772   4.067  0.3188 -0.0679 -0.2031
 2426TIP3    H1 7223   2.697   2.825   3.993 -0.6441  0.2362  0.4013
 2426TIP3    H2 7224   2.783   2.831   4.117  0.3367 -0.0398 -0.2557
 2427TIP3   OH2 7225   1.414   0.495   4.095  0.0091  0.0436 -0.0581
 2427TIP3    H1 7226   1.385   0.536   4.177 -0.5123 -0.2700 -0.0863
 2427TIP3    H2 7227   1.506   0.521   4.087  0.0967 -0.0287  0.6909
 2428TIP3   OH2 7228   0.711   0.978   1.812 -1.0252  0.1348  0.3239
 2428TIP3    H1 7229   0.686   0.899   1.860 -2.2339  0.1545 -0.2640
 2428TIP3    H2 7230   0.689   1.050   1.871  0.3991  0.0315  1.0025
 2429TIP3   OH2 7231   0.293   0.914   5.130  0.3416 -0.3030  0.2335
 2429TIP3    H1 7232   0.327   0.904   5.041  0.6461 -2.4574  0.5765
 2429TIP3    H2 7233   0.207   0.956   5.118  1.4439  1.7391 -0.8735
 2430TIP3   OH2 7234   0.340   0.422   3.530  0.6112 -0.2199  0.1125
 2430TIP3    H1 7235   0.429   0.387   3.535  0.2950 -1.0071  0.3251
 2430TIP3    H2 7236   0.337   0.467   3.446  1.1704 -0.3064  0.0438
 2431TIP3   OH2 7237   8.393   0.330   2.473 -0.6117  0.4645  0.0790
 2431TIP3    H1 7238   8.364   0.303   2.386 -0.9115  0.4734  0.1748
 2431TIP3    H2 7239   8.385   0.426   2.472  0.0432  0.5199 -0.1162
 2432TIP3   OH2 7240   8.518   0.942   4.573  0.4198 -0.3558  0.4538
 2432TIP3    H1 7241   8.528   0.933   4.478  1.3848  1.9870  0.3038
 2432TIP3    H2 7242   8.424   0.955   4.586  0.1540 -1.6623 -0.0662
 2433TIP3   OH2 7243   0.405   2.364   3.375 -0.2073 -0.0156  0.1186
 2433TIP3    H1 7244   0.473   2.298   3.383  0.1438  0.2978 -0.2514
 2433TIP3    H2 7245   0.452   2.447   3.388 -0.5438  0.1896  0.0147
 2434TIP3   OH2 7246   0.576   2.125   5.117 -0.0691  0.1654 -0.4096
 2434TIP3    H1 7247   0.496   2.088   5.080 -0.2148  0.0489  0.0221
 2434TIP3    H2 7248   0.621   2.049   5.154  0.3795  0.1851 -0.9021
 2435TIP3   OH2 7249   1.386   1.042   3.483 -0.2619  0.2157  0.0399
 2435TIP3    H1 7250   1.459   1.092   3.519 -0.2572  0.3646 -0.1792
 2435TIP3    H2 7251   1.424   0.995   3.408  0.5000 -2.5078  2.0615
 2436TIP3   OH2 7252   2.447   3.799   4.400  0.1421  0.4140  0.3840
 2436TIP3    H1 7253   2.542   3.787   4.389  0.0025  0.7983 -1.3642
 2436TIP3    H2 7254   2.434   3.893   4.390 -0.6004  0.1896 -0.8868
 2437TIP3   OH2 7255   7.895   1.385   4.734  0.2952  0.2813 -0.6971
 2437TIP3    H1 7256   7.878   1.297   4.767  0.4241  0.3312 -0.4992
 2437TIP3    H2 7257   7.989   1.387   4.715  0.5976  0.8865  0.8242
 2438TIP3   OH2 7258   1.279   1.338   4.554 -0.3639  0.2221 -0.3989
 2438TIP3    H1 7259   1.255   1.334   4.461  2.7906  0.9085 -1.3160
 2438TIP3    H2 7260   1.328   1.420   4.562  1.9035 -1.2520  1.2403
 2439TIP3   OH2 7261   8.196   2.236   3.253  0.4886  0.0856 -0.6249
 2439TIP3    H1 7262   8.153   2.188   3.182 -0.5109  1.0987 -0.7154
 2439TIP3    H2 7263   8.210   2.170   3.321 -0.1994 -0.4903 -1.0337
 2440TIP3   OH2 7264   1.223   2.189   4.738 -0.3053 -0.2916  0.0652
 2440TIP3    H1 7265   1.153   2.168   4.675 -1.4713 -1.6093  1.7645
 2440TIP3    H2 7266   1.188   2.163   4.823  3.0237 -2.9215  0.7535
 2441TIP3   OH2 7267   7.387   1.183   2.551  1.0147 -0.0628 -0.5484
 2441TIP3    H1 7268   7.466   1.235   2.533  2.0172 -0.5319  2.2298
 2441TIP3    H2 7269   7.417   1.092   2.546 -0.0233 -0.3255 -2.2806
 2442TIP3   OH2 7270   7.916   0.438   0.963 -0.0925  0.8412  0.6286
 2442TIP3    H1 7271   7.912   0.377   1.037  0.2837  0.8793  0.6822
 2442TIP3    H2 7272   7.976   0.396   0.901 -1.0537  0.4081 -0.0259
 2443TIP3   OH2 7273   0.244   2.945   3.968 -0.6345 -0.3981  0.0669
 2443TIP3    H1 7274   0.239   2.857   3.931 -1.2650 -0.7967  1.0917
 2443TIP3    H2 7275   0.338   2.962   3.978 -0.5005 -0.7994 -0.4653
 2444TIP3   OH2 7276   0.880   1.722   4.726 -0.2123  0.1007 -0.1668
 2444TIP3    H1 7277   0.799   1.683   4.692 -0.1573 -0.7467  0.6472
 2444TIP3    H2 7278   0.881   1.810   4.689 -1.7833  0.3144  0.2315
 2445TIP3   OH2 7279   3.317   2.665   2.512 -0.6098 -0.9174  0.7806
 2445TIP3    H1 7280   3.362   2.580   2.510  1.7751  0.2956  0.8700
 2445TIP3    H2 7281   3.247   2.656   2.448  1.2940 -2.0640 -1.2161
 2446TIP3   OH2 7282   6.431   7.819   4.489  0.1085 -0.0390  1.0255
 2446TIP3    H1 7283   6.367   7.759   4.450  2.1960 -1.3894 -0.4255
 2446TIP3    H2 7284   6.420   7.807   4.583 -0.3113 -1.8311  0.7720
 2447TIP3   OH2 7285   1.705   1.288   3.976  0.4915 -0.1668  0.4249
 2447TIP3    H1 7286   1.694   1.337   4.057 -2.9840  2.0038 -1.2167
 2447TIP3    H2 7287   1.762   1.343   3.922 -0.8541  0.6487 -0.2208
 2448TIP3   OH2 7288   0.258   1.570   1.636  0.1621  0.1971 -0.7562
 2448TIP3    H1 7289   0.250   1.651   1.688  0.6675  1.2691 -2.3082
 2448TIP3    H2 7290   0.188   1.576   1.571  1.9875  0.8463 -2.7494
 2449TIP3   OH2 7291   1.281   3.793   4.103 -0.2525 -0.2671 -0.4848
 2449TIP3    H1 7292   1.315   3.812   4.016 -0.1306  1.1352 -0.1579
 2449TIP3    H2 7293   1.346   3.735   4.143  0.1081 -0.2433 -1.0367
 2450TIP3   OH2 7294   8.292   7.287   3.724  0.4995  0.1368  0.3473
 2450TIP3    H1 7295   8.269   7.364   3.672  0.4057  1.1796  1.8993
 2450TIP3    H2 7296   8.373   7.255   3.684  0.8353  1.3683  0.0169
 2451TIP3   OH2 7297   0.839   1.101   3.695  0.2737 -0.5971  0.5496
 2451TIP3    H1 7298   0.895   1.045   3.750  0.2642  0.6365  1.8351
 2451TIP3    H2 7299   0.764   1.122   3.751  0.1692  0.5001  0.0056
 2452TIP3   OH2 7300   1.926   2.264   2.131 -0.0784  0.3766  0.1331
 2452TIP3    H1 7301   1.920   2.216   2.048  3.4384  0.4362 -0.2184
 2452TIP3    H2 7302   1.857   2.330   2.124 -2.2911 -1.9859 -1.1183
 2453TIP3   OH2 7303   1.211   0.423   3.114  0.6354  0.0345 -0.4327
 2453TIP3    H1 7304   1.215   0.496   3.176  1.3567  0.1945 -0.6655
 2453TIP3    H2 7305   1.288   0.434   3.058 -0.3857  0.2829 -1.8087
 2454TIP3   OH2 7306   2.273   0.788   6.269  0.3506  0.0542  0.9272
 2454TIP3    H1 7307   2.279   0.696   6.298  1.1949  0.0294  0.6913
 2454TIP3    H2 7308   2.230   0.783   6.184 -2.2766  0.1390  2.1812
 2455TIP3   OH2 7309   6.396   3.033   4.635  0.3464  0.2375 -0.2342
 2455TIP3    H1 7310   6.478   3.056   4.679  0.1513  0.5006 -0.0022
 2455TIP3    H2 7311   6.328   3.073   4.689  0.1498  1.2696 -1.2336
 2456TIP3   OH2 7312   0.868   0.278   4.004 -0.0599  0.5443  0.3353
 2456TIP3    H1 7313   0.961   0.258   3.989 -0.4189 -0.7588 -0.1573
 2456TIP3    H2 7314   0.855   0.363   3.961  0.6443  0.2099 -0.5491
 2457TIP3   OH2 7315   0.909   2.481   4.701 -0.2579  0.8140  0.3661
 2457TIP3    H1 7316   0.908   2.458   4.608  0.0323 -1.5742  0.9376
 2457TIP3    H2 7317   0.855   2.561   4.706 -2.9070 -0.7863 -1.4023
 2458TIP3   OH2 7318   2.058   2.447   4.903 -0.2224  0.1359 -0.2163
 2458TIP3    H1 7319   2.079   2.359   4.874 -0.5982 -0.2421  0.6483
 2458TIP3    H2 7320   2.117   2.463   4.977  0.5698  1.0049 -1.0117
 2459TIP3   OH2 7321   3.578   1.494   3.908  0.1641 -0.0048 -0.1180
 2459TIP3    H1 7322   3.550   1.486   3.999 -1.0726 -1.3243 -0.6030
 2459TIP3    H2 7323   3.516   1.555   3.869  1.0363  1.0063  0.0431
 2460TIP3   OH2 7324   1.973   3.131   4.917 -0.5198 -0.2908  0.2097
 2460TIP3    H1 7325   2.035   3.181   4.865 -1.7193 -0.3230 -1.2811
 2460TIP3    H2 7326   1.977   3.042   4.881 -1.1815 -0.3689  0.3076
 2461TIP3   OH2 7327   0.895   0.324   3.365 -0.2038  0.3654 -0.6867
 2461TIP3    H1 7328   0.898   0.373   3.447  1.3265 -1.5150  0.4033
 2461TIP3    H2 7329   0.862   0.238   3.389 -0.5692  0.0661 -2.2021
 2462TIP3   OH2 7330   2.265   2.480   4.274 -0.4163  0.4540  0.3609
 2462TIP3    H1 7331   2.334   2.508   4.213  0.7565  0.3696  1.6324
 2462TIP3    H2 7332   2.190   2.534   4.251 -0.2062 -0.0406 -1.6220
 2463TIP3   OH2 7333   1.617   1.120   4.516 -0.1091 -0.3010  0.4416
 2463TIP3    H1 7334   1.703   1.158   4.534  0.0688 -0.4179 -0.1626
 2463TIP3    H2 7335   1.613   1.042   4.572  0.0613 -0.1360  0.6837
 2464TIP3   OH2 7336   0.157   3.243   2.956 -0.2705 -0.6941  0.5077
 2464TIP3    H1 7337   0.182   3.326   2.996 -0.3214  0.0148 -0.8906
 2464TIP3    H2 7338   0.113   3.195   3.026  0.6650  0.0385  1.6099
 2465TIP3   OH2 7339   3.701   3.053   3.065  0.2732  0.0137  0.0376
 2465TIP3    H1 7340   3.696   3.031   3.158  2.5428 -0.1858  0.1324
 2465TIP3    H2 7341   3.792   3.038   3.042 -0.6694 -1.7979 -2.6964
 2466TIP3   OH2 7342   0.668   7.864   2.470  0.5108 -0.0379  0.2757
 2466TIP3    H1 7343   0.629   7.940   2.426  0.8786  0.9606  1.6327
 2466TIP3    H2 7344   0.596   7.802   2.481  0.5131 -0.5026 -2.1273
 2467TIP3   OH2 7345   1.507   1.883   6.335  0.0113  0.3839  0.0246
 2467TIP3    H1 7346   1.421   1.867   6.373  0.4179 -0.5107  0.5780
 2467TIP3    H2 7347   1.547   1.947   6.394 -0.0431  0.3424  0.1067
 2468TIP3   OH2 7348   2.502   1.170   2.497 -0.1372 -1.0268  0.1903
 2468TIP3    H1 7349   2.439   1.124   2.552  0.4276 -1.4405  0.4893
 2468TIP3    H2 7350   2.565   1.103   2.472  2.4963  0.1802  3.2219
 2469TIP3   OH2 7351   3.979   2.208   3.369 -0.0470 -0.9667 -0.2531
 2469TIP3    H1 7352   3.908   2.161   3.414 -0.0359 -0.1841  0.6199
 2469TIP3    H2 7353   4.057   2.156   3.386 -0.1728 -1.0702  0.0184
 2470TIP3   OH2 7354   2.326   1.247   2.283 -0.4568  0.0647 -0.1953
 2470TIP3    H1 7355   2.343   1.211   2.370 -0.3066 -1.2098 -0.7544
 2470TIP3    H2 7356   2.307   1.340   2.300  1.2491  0.2238  1.0189
 2471TIP3   OH2 7357   1.329   2.127   6.106 -0.2837  0.0569  0.0632
 2471TIP3    H1 7358   1.309   2.162   6.193  2.2362 -0.5712  0.9422
 2471TIP3    H2 7359   1.413   2.082   6.117 -1.0478 -2.0442 -2.1645
 2472TIP3   OH2 7360   6.729   7.652   2.789 -0.3001  0.2317 -0.0349
 2472TIP3    H1 7361   6.764   7.590   2.725 -0.8141 -0.1334  0.0315
 2472TIP3    H2 7362   6.638   7.665   2.762 -0.6492 -0.2582  0.8666
 2473TIP3   OH2 7363   0.988   6.967   2.863 -0.2054  0.0013 -0.8473
 2473TIP3    H1 7364   0.984   6.916   2.944 -0.9421  0.1502 -0.7860
 2473TIP3    H2 7365   0.954   6.909   2.795  0.0822 -0.0024 -0.9890
 2474TIP3   OH2 7366   8.418   7.897   3.846  0.0314  0.0349  0.3685
 2474TIP3    H1 7367   8.510   7.885   3.873 -0.2339 -1.2215  0.7284
 2474TIP3    H2 7368   8.413   7.858   3.759 -0.0509  0.5515  0.1399
 2475TIP3   OH2 7369   2.091   2.039   4.020  0.1851  0.1047 -0.2187
 2475TIP3    H1 7370   2.003   2.065   3.993 -0.7945  0.7972  3.4727
 2475TIP3    H2 7371   2.077   1.965   4.080  2.3278 -1.7820 -1.9278
 2476TIP3   OH2 7372   2.538   2.538   2.750 -0.3336  0.1626 -0.0461
 2476TIP3    H1 7373   2.512   2.451   2.779  0.3461 -0.3971 -1.0888
 2476TIP3    H2 7374   2.600   2.523   2.679  0.7800  1.4897  0.6126
 2477TIP3   OH2 7375   0.989   0.253   2.212 -0.1225  0.5175  0.3431
 2477TIP3    H1 7376   0.939   0.237   2.293  0.5009  0.3129  0.6855
 2477TIP3    H2 7377   1.013   0.166   2.182  0.1500  0.6281  0.2461
 2478TIP3   OH2 7378   2.436   2.438   3.611  0.4519  0.2321 -0.2340
 2478TIP3    H1 7379   2.448   2.359   3.663 -0.4490 -1.1576 -2.0884
 2478TIP3    H2 7380   2.485   2.422   3.530 -0.6053  1.1151 -1.0769
 2479TIP3   OH2 7381   2.027   2.546   2.044 -0.2553  0.3191  0.3202
 2479TIP3    H1 7382   2.093   2.510   1.986 -0.5926  1.1424 -0.5877
 2479TIP3    H2 7383   1.975   2.471   2.072  0.9350 -0.3067  0.8949
 2480TIP3   OH2 7384   3.301   1.930   3.836  0.1353 -0.0409 -0.1101
 2480TIP3    H1 7385   3.318   1.962   3.925  0.2963 -0.3865 -0.0164
 2480TIP3    H2 7386   3.207   1.913   3.833  0.3396 -1.2882  0.4056
 2481TIP3   OH2 7387   5.932   1.105   1.918  0.4490  0.1749  0.3737
 2481TIP3    H1 7388   5.877   1.125   1.842 -0.7124  2.1780  1.7042
 2481TIP3    H2 7389   5.922   1.011   1.931 -2.0003  0.3621  0.0661
 2482TIP3   OH2 7390   3.679   0.194   2.665  0.4183 -0.4127 -0.3815
 2482TIP3    H1 7391   3.588   0.222   2.669  0.7880  0.6171  0.7364
 2482TIP3    H2 7392   3.674   0.106   2.627 -1.0750 -0.5727  0.1307
 2483TIP3   OH2 7393   6.989   5.721   3.606  0.0149  0.1161 -0.1380
 2483TIP3    H1 7394   6.901   5.729   3.641  0.0966 -1.6610  0.5624
 2483TIP3    H2 7395   7.042   5.778   3.662 -0.6982  1.2744 -0.6302
 2484TIP3   OH2 7396   3.004   1.983   4.473 -0.0469 -0.2366  0.5768
 2484TIP3    H1 7397   2.933   2.022   4.524  1.0373  1.2842  0.9637
 2484TIP3    H2 7398   3.037   1.912   4.528 -0.2992 -0.0035  1.0355
 2485TIP3   OH2 7399   1.625   1.796   2.917 -0.4890  0.1273 -0.2568
 2485TIP3    H1 7400   1.643   1.857   2.846  0.2380 -0.9660 -1.0180
 2485TIP3    H2 7401   1.541   1.825   2.953  0.5923  2.5227  0.4090
 2486TIP3   OH2 7402   4.039   5.107   6.829 -0.3883  0.1155 -0.4430
 2486TIP3    H1 7403   4.133   5.114   6.841 -0.6924  1.5806  1.3248
 2486TIP3    H2 7404   4.002   5.171   6.890 -2.6345 -2.1861  0.7011
 2487TIP3   OH2 7405   1.897   0.898   6.045  0.0820  0.6709  0.1552
 2487TIP3    H1 7406   1.883   0.860   6.132 -0.8558  0.6308 -0.0026
 2487TIP3    H2 7407   1.991   0.896   6.033  0.0676 -1.4061  0.2241
 2488TIP3   OH2 7408   4.738   2.687   1.287  0.2753  0.3134  0.0849
 2488TIP3    H1 7409   4.749   2.667   1.194  0.4926  0.0690  0.1631
 2488TIP3    H2 7410   4.825   2.675   1.324 -0.0712 -0.8149  0.5522
 2489TIP3   OH2 7411   2.007   1.797   5.176 -0.4246  0.2067  0.5052
 2489TIP3    H1 7412   2.037   1.711   5.205  0.3929  0.4859  0.4780
 2489TIP3    H2 7413   2.063   1.859   5.221 -0.2706  0.6923 -0.3478
 2490TIP3   OH2 7414   2.356   2.149   0.804 -0.0122  0.3508 -0.5378
 2490TIP3    H1 7415   2.351   2.188   0.891  1.2931  0.0313 -0.3085
 2490TIP3    H2 7416   2.445   2.168   0.775  0.2345 -1.3561 -0.9446
 2491TIP3   OH2 7417   1.401   0.182   2.328 -0.0998  0.2278  0.0204
 2491TIP3    H1 7418   1.418   0.274   2.351  1.2686 -0.2754  1.0928
 2491TIP3    H2 7419   1.345   0.149   2.398 -0.6083  0.2415 -0.3754
 2492TIP3   OH2 7420   3.253   1.653   1.928 -0.4367  0.1371  0.0384
 2492TIP3    H1 7421   3.271   1.560   1.917 -0.5293  0.0785  0.3574
 2492TIP3    H2 7422   3.277   1.671   2.019  0.0532  0.5346 -0.1689
 2493TIP3   OH2 7423   1.928   1.457   3.125 -0.0429 -0.1529  0.5536
 2493TIP3    H1 7424   1.890   1.534   3.167 -0.6499  0.2555 -0.7285
 2493TIP3    H2 7425   2.015   1.486   3.097 -0.1978  0.0116  0.2414
 2494TIP3   OH2 7426   3.836   2.375   3.177 -0.3752 -0.0749 -0.2103
 2494TIP3    H1 7427   3.862   2.351   3.265  1.5052  1.9875 -0.1480
 2494TIP3    H2 7428   3.876   2.309   3.121  1.7063  0.8117  0.2014
 2495TIP3   OH2 7429   0.267   4.145   4.710  0.6954  0.0634  0.0974
 2495TIP3    H1 7430   0.194   4.180   4.660 -1.3975 -0.8662  2.3923
 2495TIP3    H2 7431   0.333   4.123   4.645 -0.4650  2.3189 -1.8953
 2496TIP3   OH2 7432   2.301   3.639   3.140  0.3682 -0.1642  0.0585
 2496TIP3    H1 7433   2.272   3.569   3.198  0.5032  0.3203  0.7112
 2496TIP3    H2 7434   2.290   3.719   3.191 -2.0396  0.5557 -1.4985
 2497TIP3   OH2 7435   1.062   2.425   3.526  0.8911 -0.2449 -0.1310
 2497TIP3    H1 7436   0.994   2.454   3.464  2.0027 -0.4187 -1.4384
 2497TIP3    H2 7437   1.064   2.330   3.517  1.8397 -0.1773 -0.6578
 2498TIP3   OH2 7438   7.836   2.506   3.254  0.0031 -0.1541 -0.2371
 2498TIP3    H1 7439   7.858   2.419   3.220  1.9284  0.4894 -0.7157
 2498TIP3    H2 7440   7.849   2.498   3.349  1.3702 -0.0836 -0.3994
 2499TIP3   OH2 7441   5.599   2.388   3.235  0.1408 -0.1124 -0.0505
 2499TIP3    H1 7442   5.532   2.451   3.211 -2.3536 -2.3558  0.8525
 2499TIP3    H2 7443   5.637   2.360   3.151 -1.2504 -0.0972 -0.6977
 2500TIP3   OH2 7444   5.326   2.132   5.005  0.0774  0.1098  0.3885
 2500TIP3    H1 7445   5.317   2.163   5.095  0.9568 -0.6193  0.7341
 2500TIP3    H2 7446   5.371   2.048   5.013  0.3130  0.1208 -0.7522
 2501TIP3   OH2 7447   1.082   1.219   3.058  0.0141 -0.0891 -0.0259
 2501TIP3    H1 7448   1.173   1.234   3.033  0.6535 -2.0155  1.0469
 2501TIP3    H2 7449   1.080   1.128   3.085 -1.9875  0.2697  1.0775
 2502TIP3   OH2 7450   2.722   3.617   3.050 -0.4766  0.1301 -0.1333
 2502TIP3    H1 7451   2.785   3.562   3.003 -3.5747 -3.6633 -0.0482
 2502TIP3    H2 7452   2.637   3.574   3.037 -2.5741  3.1722  2.6229
 2503TIP3   OH2 7453   3.725   2.679   4.124  0.0856 -0.3024  0.4950
 2503TIP3    H1 7454   3.812   2.718   4.112 -0.4610  0.3236 -1.6612
 2503TIP3    H2 7455   3.734   2.590   4.089 -0.1580 -0.1863  0.1265
 2504TIP3   OH2 7456   3.463   2.162   4.876 -0.4174 -0.4262  0.6505
 2504TIP3    H1 7457   3.552   2.170   4.911  0.5810  0.2721 -1.9619
 2504TIP3    H2 7458   3.468   2.091   4.812 -2.2110 -1.6639  1.8481
 2505TIP3   OH2 7459   2.374   4.155   1.080 -0.4628 -0.2106 -0.2124
 2505TIP3    H1 7460   2.388   4.248   1.060  1.1351 -0.8597 -2.2825
 2505TIP3    H2 7461   2.423   4.141   1.161  2.5000 -0.0299 -1.8714
 2506TIP3   OH2 7462   2.674   1.316   3.063  0.6967  0.5914  0.4431
 2506TIP3    H1 7463   2.741   1.250   3.043  1.2424  1.8747 -2.0796
 2506TIP3    H2 7464   2.724   1.397   3.077 -0.2523  1.3224 -0.3594
 2507TIP3   OH2 7465   2.559   1.805   3.797  0.3533  0.4534  0.2550
 2507TIP3    H1 7466   2.530   1.825   3.886  1.3690  0.7140  0.5314
 2507TIP3    H2 7467   2.614   1.727   3.807  0.1227  0.2332 -0.2013
 2508TIP3   OH2 7468   2.200   2.150   2.128 -0.0243  0.1069  0.1985
 2508TIP3    H1 7469   2.212   2.143   2.033 -1.4628  1.8272 -0.1363
 2508TIP3    H2 7470   2.277   2.199   2.158  0.3855 -0.3539 -0.0819
 2509TIP3   OH2 7471   7.784   7.183   3.553  0.4658 -0.0308 -0.1049
 2509TIP3    H1 7472   7.846   7.212   3.486  0.1330 -1.1331 -0.9268
 2509TIP3    H2 7473   7.784   7.252   3.618 -0.3867  1.8504 -2.0424
 2510TIP3   OH2 7474   1.952   1.267   2.652 -0.1445 -0.2036  0.4520
 2510TIP3    H1 7475   1.995   1.183   2.641 -0.3999 -0.1903 -0.7068
 2510TIP3    H2 7476   1.953   1.283   2.747  0.9822 -0.9325  0.5659
 2511TIP3   OH2 7477   1.709   2.327   4.900  0.4863  0.3399  0.0756
 2511TIP3    H1 7478   1.739   2.359   4.814 -1.2320  2.4625  0.2074
 2511TIP3    H2 7479   1.646   2.259   4.879 -0.9934  1.8340 -0.4027
 2512TIP3   OH2 7480   8.426   7.419   3.331 -0.0036  0.1312 -0.7394
 2512TIP3    H1 7481   8.394   7.434   3.420  1.0992  0.9354 -0.4595
 2512TIP3    H2 7482   8.363   7.464   3.275  0.9745  2.2721 -0.1603
 2513TIP3   OH2 7483   2.838   1.328   3.449 -0.3006 -0.1025 -0.1427
 2513TIP3    H1 7484   2.754   1.372   3.466 -0.7640 -0.6693 -0.9444
 2513TIP3    H2 7485   2.815   1.236   3.438  0.1579  0.0455 -2.4357
 2514TIP3   OH2 7486   2.052   1.642   4.387 -0.0055 -0.2144 -0.2300
 2514TIP3    H1 7487   2.019   1.650   4.476  0.1538 -2.1522  0.0210
 2514TIP3    H2 7488   2.035   1.551   4.363  2.8811 -0.6029 -1.0026
 2515TIP3   OH2 7489   3.013   1.656   2.901 -0.5931  0.1449  0.1285
 2515TIP3    H1 7490   3.057   1.650   2.817  1.0293 -1.2730  1.0485
 2515TIP3    H2 7491   2.938   1.596   2.893 -0.0863 -0.4663 -0.1025
 2516TIP3   OH2 7492   3.585   2.057   3.447  0.0602 -0.1713 -0.6453
 2516TIP3    H1 7493   3.506   2.013   3.479  0.0606  0.8176  0.8024
 2516TIP3    H2 7494   3.567   2.150   3.461  1.7091  0.0306  0.2326
 2517TIP3   OH2 7495   1.445   1.629   3.281 -0.2333  0.0697  0.1412
 2517TIP3    H1 7496   1.439   1.564   3.352  0.3931  0.1816  0.2945
 2517TIP3    H2 7497   1.353   1.650   3.261 -0.4694 -1.3611 -0.3750
 2518TIP3   OH2 7498   2.094   2.195   4.350 -0.0280 -0.1039 -0.1115
 2518TIP3    H1 7499   2.049   2.142   4.415  0.4943 -0.9871 -0.4553
 2518TIP3    H2 7500   2.029   2.206   4.280 -0.1448 -0.2749 -0.0308
 2519TIP3   OH2 7501   7.947   7.342   4.311 -0.2919  0.1847 -0.4295
 2519TIP3    H1 7502   7.954   7.298   4.226 -1.2180 -3.0822  1.1100
 2519TIP3    H2 7503   7.853   7.352   4.324 -0.1395  0.9938  0.0558
 2520TIP3   OH2 7504   0.620   2.937   1.043 -0.1079 -0.4803  0.3312
 2520TIP3    H1 7505   0.648   2.956   0.954  0.3759  1.1742  0.8339
 2520TIP3    H2 7506   0.691   2.884   1.079  1.7997  2.5064  1.1396
 2521TIP3   OH2 7507   3.518   1.492   4.645  0.1271  0.2599  0.1171
 2521TIP3    H1 7508   3.431   1.532   4.658 -0.4628 -2.3117  5.0540
 2521TIP3    H2 7509   3.500   1.410   4.600 -0.1520 -0.7628  2.0665
 2522TIP3   OH2 7510   2.962   1.618   4.214 -0.1176  0.2128 -0.1262
 2522TIP3    H1 7511   3.008   1.551   4.162  2.0894  1.0108  0.7123
 2522TIP3    H2 7512   2.897   1.569   4.264  0.5612 -1.1383 -0.5434
 2523TIP3   OH2 7513   2.667   2.246   4.471  0.2270 -0.4773 -0.1477
 2523TIP3    H1 7514   2.727   2.198   4.529  0.7994 -1.6987 -1.7314
 2523TIP3    H2 7515   2.693   2.338   4.481 -1.7466 -0.2606  3.9293
 2524TIP3   OH2 7516   6.744   6.891   2.443 -0.3756  0.0709 -0.0551
 2524TIP3    H1 7517   6.650   6.877   2.453 -0.8555  2.2820 -1.2379
 2524TIP3    H2 7518   6.762   6.874   2.351  0.6057 -1.4608  0.4010
 2525TIP3   OH2 7519   1.190   0.186   4.926  0.0220  0.3774 -0.4817
 2525TIP3    H1 7520   1.276   0.152   4.950  1.1212  0.9278 -3.4296
 2525TIP3    H2 7521   1.205   0.278   4.904 -1.7152  1.0344  0.8865
 2526TIP3   OH2 7522   2.890   3.114   2.438 -0.1425 -0.1268 -0.3803
 2526TIP3    H1 7523   2.955   3.183   2.451 -0.1288  0.0100 -1.1970
 2526TIP3    H2 7524   2.940   3.037   2.411 -0.3655  0.1077 -1.4648
 2527TIP3   OH2 7525   2.882   3.083   5.252 -0.6329 -0.9125 -0.3472
 2527TIP3    H1 7526   2.909   3.132   5.331  1.7502 -2.6588 -0.0223
 2527TIP3    H2 7527   2.787   3.089   5.252 -0.5597  1.0717  1.4129
 2528TIP3   OH2 7528   1.359   2.125   1.300 -0.0259  0.2840  0.0199
 2528TIP3    H1 7529   1.326   2.184   1.232  1.4889  1.0266 -0.1144
 2528TIP3    H2 7530   1.304   2.143   1.376 -0.0755  1.3429 -0.2502
 2529TIP3   OH2 7531   3.787   2.342   2.602 -0.0619 -0.0831 -0.2801
 2529TIP3    H1 7532   3.779   2.376   2.512 -0.3414 -0.4388 -0.3898
 2529TIP3    H2 7533   3.815   2.251   2.591 -2.9709 -1.0468 -0.1102
 2530TIP3   OH2 7534   4.071   2.315   1.696  0.2337 -0.3109 -0.4498
 2530TIP3    H1 7535   4.095   2.235   1.649 -0.0938  0.4395 -1.9070
 2530TIP3    H2 7536   4.041   2.375   1.628 -0.4198  0.7305  0.7413
 2531TIP3   OH2 7537   2.259   2.478   2.523 -0.0930 -0.1248 -0.1459
 2531TIP3    H1 7538   2.350   2.458   2.498  0.3616 -1.8667  2.5632
 2531TIP3    H2 7539   2.263   2.568   2.555  0.3906  0.2803 -1.3204
 2532TIP3   OH2 7540   3.962   0.832   2.031  0.3136  0.3738 -0.0533
 2532TIP3    H1 7541   3.953   0.923   2.005 -1.1444  0.1724 -0.2820
 2532TIP3    H2 7542   3.953   0.833   2.126 -1.0404  0.3234 -0.1703
 2533TIP3   OH2 7543   1.568   2.205   2.949 -0.0082 -0.1190  0.0035
 2533TIP3    H1 7544   1.640   2.148   2.977  1.2992  0.3126 -2.3596
 2533TIP3    H2 7545   1.566   2.275   3.013  1.7361 -0.1053  0.0592
 2534TIP3   OH2 7546   8.207   7.640   3.979 -0.3929  0.7320  0.6045
 2534TIP3    H1 7547   8.272   7.572   3.997 -0.9123 -0.3182 -1.2873
 2534TIP3    H2 7548   8.248   7.695   3.912 -1.2585  0.3446 -0.2501
 2535TIP3   OH2 7549   2.550   4.064   5.421  0.2032 -0.3427  0.1393
 2535TIP3    H1 7550   2.510   4.005   5.484  0.6602 -0.0642  0.6992
 2535TIP3    H2 7551   2.486   4.134   5.410  1.4696  1.3353  2.8334
 2536TIP3   OH2 7552   3.743   0.476   2.659 -0.0792 -0.2390  0.5526
 2536TIP3    H1 7553   3.683   0.497   2.588 -0.7179 -2.3794  0.4536
 2536TIP3    H2 7554   3.760   0.382   2.652 -0.9997 -0.7316  3.8367
 2537TIP3   OH2 7555   2.592   3.879   1.263  0.2027 -0.0472 -0.0657
 2537TIP3    H1 7556   2.572   3.851   1.174 -2.1993 -0.1951  0.4861
 2537TIP3    H2 7557   2.561   3.807   1.318 -0.5060  1.0746  1.0224
 2538TIP3   OH2 7558   4.544   1.115   1.509 -0.1670  0.1453 -0.3525
 2538TIP3    H1 7559   4.448   1.120   1.510 -0.2433 -1.2135 -0.4593
 2538TIP3    H2 7560   4.573   1.205   1.494 -1.4131  0.7371  0.6873
 2539TIP3   OH2 7561   3.340   1.955   3.539 -0.1353  0.2520  0.0719
 2539TIP3    H1 7562   3.252   1.925   3.521  0.1329  0.0782 -0.9510
 2539TIP3    H2 7563   3.344   1.961   3.635 -1.3006  0.4288  0.1185
 2540TIP3   OH2 7564   1.410   1.528   3.894 -0.4094 -0.2701  0.0673
 2540TIP3    H1 7565   1.347   1.493   3.957  1.0521 -0.6578  1.3527
 2540TIP3    H2 7566   1.470   1.581   3.948  1.1800 -1.0379 -0.9168
 2541TIP3   OH2 7567   0.798   2.341   1.769 -0.1935 -0.5842 -0.3700
 2541TIP3    H1 7568   0.816   2.434   1.759 -1.2878 -0.1088  1.7276
 2541TIP3    H2 7569   0.868   2.309   1.826 -1.4668 -0.3935  1.3344
 2542TIP3   OH2 7570   1.906   2.229   2.840  0.5253  0.5586 -0.3788
 2542TIP3    H1 7571   1.836   2.292   2.858 -0.8266 -0.9070 -0.4327
 2542TIP3    H2 7572   1.978   2.258   2.896 -1.1046  0.4014  1.8601
 2543TIP3   OH2 7573   3.132   2.270   2.678  0.6198 -0.7141  0.2486
 2543TIP3    H1 7574   3.119   2.328   2.753 -1.2841  0.2945 -0.8088
 2543TIP3    H2 7575   3.189   2.320   2.619  0.4584 -0.6394  0.1512
 2544TIP3   OH2 7576   1.312   0.233   4.099 -0.1314  0.3056  0.0616
 2544TIP3    H1 7577   1.319   0.327   4.081 -0.7823  0.7089  1.8532
 2544TIP3    H2 7578   1.396   0.211   4.140  0.2346 -0.0316 -0.8416
 2545TIP3   OH2 7579   2.350   3.042   3.954 -0.2291  0.0215 -0.0469
 2545TIP3    H1 7580   2.400   2.997   4.022  3.0119  1.4673 -1.3976
 2545TIP3    H2 7581   2.346   2.980   3.882 -2.9915 -1.2074  1.0822
 2546TIP3   OH2 7582   4.334   1.619   4.360 -0.1215 -0.3891 -0.4928
 2546TIP3    H1 7583   4.255   1.605   4.308  0.2741 -2.3011 -0.6005
 2546TIP3    H2 7584   4.309   1.594   4.449  0.1471 -0.2830 -0.3854
 2547TIP3   OH2 7585   3.388   1.662   3.808 -0.0721 -0.2402  0.2719
 2547TIP3    H1 7586   3.353   1.690   3.892 -0.1988 -1.4025  0.6034
 2547TIP3    H2 7587   3.427   1.741   3.771 -0.7973  0.4768  1.0218
 2548TIP3   OH2 7588   2.163   1.533   6.481  0.5885 -0.8719 -0.4839
 2548TIP3    H1 7589   2.213   1.467   6.432 -1.9753 -2.0545 -1.6372
 2548TIP3    H2 7590   2.086   1.486   6.512 -0.2637  1.1089  0.5089
 2549TIP3   OH2 7591   3.334   0.899   3.911  0.0974  0.4151 -0.4803
 2549TIP3    H1 7592   3.246   0.920   3.881  0.5934  0.5450 -1.9189
 2549TIP3    H2 7593   3.339   0.934   4.000 -1.3646  0.2099 -0.3043
 2550TIP3   OH2 7594   1.132   0.145   3.426  0.8174  0.4429  0.1647
 2550TIP3    H1 7595   1.038   0.151   3.412  0.9623 -0.9808 -1.6198
 2550TIP3    H2 7596   1.144   0.160   3.520 -1.0980  1.4679  0.2583
 2551TIP3   OH2 7597   1.749   1.820   0.821 -0.0101  0.1347  0.1326
 2551TIP3    H1 7598   1.761   1.914   0.831  0.3338 -0.1095  2.3435
 2551TIP3    H2 7599   1.707   1.792   0.903 -0.6803 -1.5457 -0.7426
 2552TIP3   OH2 7600   1.613   1.331   1.552  0.0819 -0.7480 -0.4220
 2552TIP3    H1 7601   1.555   1.405   1.571 -0.3691 -0.7925 -1.5699
 2552TIP3    H2 7602   1.587   1.263   1.615 -0.0333 -0.2018  0.1150
 2553TIP3   OH2 7603   7.219   7.866   4.167  0.0629 -0.0989  0.1459
 2553TIP3    H1 7604   7.202   7.781   4.126  1.0377  0.6727 -1.9376
 2553TIP3    H2 7605   7.135   7.892   4.204 -1.6466  0.3948 -3.8152
 2554TIP3   OH2 7606   3.148   3.048   4.290 -0.0960  0.1387  0.3107
 2554TIP3    H1 7607   3.133   3.107   4.363  1.0599  2.3025 -1.1465
 2554TIP3    H2 7608   3.236   3.013   4.305  0.7551  1.7495 -0.7973
 2555TIP3   OH2 7609   2.912   1.446   2.262 -0.2536 -0.1463  0.3971
 2555TIP3    H1 7610   2.837   1.427   2.319 -0.4807 -0.8647 -0.1281
 2555TIP3    H2 7611   2.956   1.362   2.253 -0.9529 -0.3329 -1.5344
 2556TIP3   OH2 7612   4.776   1.037   1.615  0.0110 -0.4162  0.1630
 2556TIP3    H1 7613   4.689   1.065   1.584  0.9048  2.3897  0.0020
 2556TIP3    H2 7614   4.769   0.942   1.623 -3.2983 -0.1829  0.8489
 2557TIP3   OH2 7615   1.192   2.578   4.688  0.1337  0.5886  0.1627
 2557TIP3    H1 7616   1.271   2.541   4.727 -0.2595  0.5652  0.9529
 2557TIP3    H2 7617   1.123   2.516   4.710  0.2811 -0.5664 -2.4778
 2558TIP3   OH2 7618   0.096   6.519   2.987 -0.1925  0.4181  0.0062
 2558TIP3    H1 7619   0.135   6.526   2.900 -0.4710  2.4777  0.0427
 2558TIP3    H2 7620   0.043   6.439   2.982  1.3154 -0.5461 -1.0955
 2559TIP3   OH2 7621   3.963   1.618   3.792  0.5597 -0.0867  0.8317
 2559TIP3    H1 7622   3.960   1.584   3.881 -0.9338  0.5042  1.0228
 2559TIP3    H2 7623   3.948   1.541   3.737  0.8905 -0.3550  1.1160
 2560TIP3   OH2 7624   3.137   1.238   6.803  0.5789  0.5201 -0.1692
 2560TIP3    H1 7625   3.173   1.150   6.815 -0.4442  0.2645  1.0925
 2560TIP3    H2 7626   3.042   1.225   6.803  0.4317  1.2307 -3.1854
 2561TIP3   OH2 7627   2.252   1.409   3.325  0.1578 -0.2819  0.4915
 2561TIP3    H1 7628   2.190   1.460   3.377 -0.0557 -0.8499  0.7970
 2561TIP3    H2 7629   2.300   1.357   3.389  1.3255  0.5446  0.3134
 2562TIP3   OH2 7630   2.628   3.452   2.478 -0.0998 -0.4325  0.0421
 2562TIP3    H1 7631   2.674   3.536   2.483 -1.4168  0.3199 -0.1966
 2562TIP3    H2 7632   2.560   3.458   2.544 -0.0978 -1.3792  0.1256
 2563TIP3   OH2 7633   2.537   2.023   3.531  0.1788  0.4400 -0.4844
 2563TIP3    H1 7634   2.463   2.043   3.474  0.9486 -1.2831 -2.1318
 2563TIP3    H2 7635   2.612   2.065   3.489  0.3692  1.0757  0.4753
 2564TIP3   OH2 7636   1.125   2.280   5.890 -0.5967 -0.0619  0.8591
 2564TIP3    H1 7637   1.038   2.280   5.851 -0.0560  2.1086 -0.3652
 2564TIP3    H2 7638   1.174   2.346   5.842  1.9739 -1.7605  1.0310
 2565TIP3   OH2 7639   7.304   3.964   1.580  0.2619 -0.3637  0.1148
 2565TIP3    H1 7640   7.261   3.885   1.547  2.2672 -1.0963 -0.8172
 2565TIP3    H2 7641   7.249   4.036   1.548 -1.0196 -1.3140  0.1204
 2566TIP3   OH2 7642   1.584   1.393   3.719  0.2839  0.0862  0.2382
 2566TIP3    H1 7643   1.530   1.416   3.795  1.3304 -0.6646  1.2303
 2566TIP3    H2 7644   1.666   1.442   3.731  0.5290 -0.1788 -0.3095
 2567TIP3   OH2 7645   2.118   4.739   6.138  0.4632  0.5958 -0.7509
 2567TIP3    H1 7646   2.175   4.816   6.149  0.2554  0.2806  3.1981
 2567TIP3    H2 7647   2.172   4.666   6.168 -1.0424 -0.1030  0.2573
 2568TIP3   OH2 7648   2.768   3.173   4.966 -0.1832 -0.2253 -0.2702
 2568TIP3    H1 7649   2.784   3.226   5.044  0.5945 -0.2428 -0.4150
 2568TIP3    H2 7650   2.746   3.236   4.898  0.1331 -0.1298 -0.2856
 2569TIP3   OH2 7651   0.749   2.710   4.738  0.4989 -0.3379  0.1017
 2569TIP3    H1 7652   0.771   2.698   4.830  0.4882  0.4793  0.2178
 2569TIP3    H2 7653   0.727   2.803   4.731  1.1405 -0.2516 -0.8607
 2570TIP3   OH2 7654   1.863   2.169   2.423  0.1496  0.1630  0.0238
 2570TIP3    H1 7655   1.840   2.249   2.471  1.0066 -0.1689  1.0235
 2570TIP3    H2 7656   1.781   2.122   2.413 -0.3397  1.1096 -0.4551
 2571TIP3   OH2 7657   1.128   2.698   5.595 -0.3958  0.1344  0.0315
 2571TIP3    H1 7658   1.126   2.721   5.688 -0.3140 -0.0930  0.0890
 2571TIP3    H2 7659   1.218   2.670   5.578 -0.3229  0.5030 -0.1969
 2572TIP3   OH2 7660   0.736   3.593   0.673 -0.4265  0.5500 -0.4055
 2572TIP3    H1 7661   0.764   3.620   0.585 -1.7800  0.1827 -0.9723
 2572TIP3    H2 7662   0.640   3.598   0.669 -0.5489 -0.8912  0.6000
 2573TIP3   OH2 7663   2.259   2.237   4.112 -0.1722 -0.3752 -0.1887
 2573TIP3    H1 7664   2.194   2.174   4.083  0.9272 -0.8199 -1.7303
 2573TIP3    H2 7665   2.287   2.282   4.032  1.0336  0.1710  0.5230
 2574TIP3   OH2 7666   2.518   0.681   0.778 -0.4723 -0.0963 -0.0652
 2574TIP3    H1 7667   2.493   0.618   0.845  0.1246  0.7067  0.9321
 2574TIP3    H2 7668   2.448   0.746   0.779  0.6703  1.1469  1.4120
 2575TIP3   OH2 7669   2.531   1.838   2.264 -1.5308 -0.5593  0.1079
 2575TIP3    H1 7670   2.447   1.792   2.261 -0.7355 -1.9917 -1.7615
 2575TIP3    H2 7671   2.586   1.783   2.320 -1.4229 -0.4278  0.1310
 2576TIP3   OH2 7672   3.522   1.372   4.982  0.7350 -0.0296 -0.0557
 2576TIP3    H1 7673   3.522   1.305   5.050 -0.7813 -0.1101 -0.1165
 2576TIP3    H2 7674   3.615   1.383   4.959  1.0626 -1.5659  0.4692
 2577TIP3   OH2 7675   0.448   2.699   2.973  0.5773 -0.8046  0.1188
 2577TIP3    H1 7676   0.515   2.707   2.905  0.7541  0.1713  0.4060
 2577TIP3    H2 7677   0.383   2.766   2.951  0.5677 -0.5783  0.8333
 2578TIP3   OH2 7678   1.637   1.466   2.232  0.0057 -0.3786  0.0934
 2578TIP3    H1 7679   1.590   1.399   2.184  0.0738  0.8426 -1.7307
 2578TIP3    H2 7680   1.729   1.440   2.227 -0.0229 -0.4332 -0.1339
 2579TIP3   OH2 7681   1.282   2.008   3.832 -0.5669 -0.1581 -0.1524
 2579TIP3    H1 7682   1.223   2.024   3.906 -2.2848 -0.2933 -1.4624
 2579TIP3    H2 7683   1.243   1.933   3.787  2.0061 -1.8741  0.3795
 2580TIP3   OH2 7684   2.048   3.665   2.429  0.4137 -0.1368  0.4207
 2580TIP3    H1 7685   2.135   3.642   2.461  1.0602 -1.4465 -2.1544
 2580TIP3    H2 7686   2.022   3.591   2.375 -1.6635  0.9238 -0.0915
 2581TIP3   OH2 7687   2.848   1.159   2.722 -0.3900  0.1392  0.7656
 2581TIP3    H1 7688   2.850   1.102   2.646 -1.1387 -0.6821  1.3369
 2581TIP3    H2 7689   2.822   1.244   2.688 -0.3639 -0.1337  0.0576
 2582TIP3   OH2 7690   1.604   1.889   5.254  0.2230  0.2778 -0.6241
 2582TIP3    H1 7691   1.678   1.923   5.203 -0.0808 -0.2150 -1.3855
 2582TIP3    H2 7692   1.592   1.800   5.223 -0.0510  0.0199  0.2148
 2583TIP3   OH2 7693   1.504   1.079   5.351 -0.0948 -0.1933 -0.3670
 2583TIP3    H1 7694   1.515   1.025   5.272 -0.3286  0.4948 -0.8817
 2583TIP3    H2 7695   1.412   1.068   5.375  0.1103 -0.8355  0.1351
 2584TIP3   OH2 7696   2.222   0.699   1.789 -0.0522 -0.2765  0.3131
 2584TIP3    H1 7697   2.312   0.675   1.808 -0.0294 -0.0090  0.5384
 2584TIP3    H2 7698   2.228   0.785   1.748 -0.1158 -0.7658 -0.7318
 2585TIP3   OH2 7699   2.035   2.577   4.108 -0.0261 -0.2048  0.0461
 2585TIP3    H1 7700   1.968   2.642   4.087  0.0457  0.3929  1.6076
 2585TIP3    H2 7701   2.102   2.589   4.040 -1.2794 -0.5057 -1.2582
 2586TIP3   OH2 7702   2.152   1.969   4.855 -0.3072  0.6100 -0.0066
 2586TIP3    H1 7703   2.056   1.974   4.851 -0.4707 -1.8519 -0.2455
 2586TIP3    H2 7704   2.176   1.926   4.773  0.8121 -0.7276  1.0013
 2587TIP3   OH2 7705   1.547   0.125   4.315 -0.3116  0.1828  0.3841
 2587TIP3    H1 7706   1.534   0.060   4.246 -1.9426 -0.0118  0.8571
 2587TIP3    H2 7707   1.634   0.160   4.298  0.0360 -1.1386 -0.7054
 2588TIP3   OH2 7708   3.151   1.317   4.351 -0.6162  0.3736  0.1433
 2588TIP3    H1 7709   3.167   1.388   4.288 -0.6739  1.3376  1.2044
 2588TIP3    H2 7710   3.143   1.239   4.297  1.3503  0.8618 -0.9167
 2589TIP3   OH2 7711   5.947   1.995   6.405 -0.4043 -0.2021  0.0051
 2589TIP3    H1 7712   5.917   1.993   6.314 -1.0281  1.3506  0.1523
 2589TIP3    H2 7713   6.026   2.049   6.403  1.5086 -2.8920 -0.1113
 2590TIP3   OH2 7714   4.033   1.535   5.461  0.1805  0.4380  0.0943
 2590TIP3    H1 7715   4.092   1.514   5.388 -1.2072 -1.5439 -0.4994
 2590TIP3    H2 7716   3.967   1.592   5.422 -1.2641 -1.6275 -0.5164
 2591TIP3   OH2 7717   6.095   3.917   0.170  0.1260  0.2015 -0.5014
 2591TIP3    H1 7718   6.148   3.960   0.103  1.3049 -1.1538 -0.4658
 2591TIP3    H2 7719   6.052   3.844   0.124 -1.5294  1.1213 -0.4710
 2592TIP3   OH2 7720   2.471   1.928   5.361  0.4124 -0.2975  0.4425
 2592TIP3    H1 7721   2.515   2.003   5.322  0.2555 -0.4316  0.0148
 2592TIP3    H2 7722   2.452   1.869   5.288  1.4252 -1.2112  0.8898
 2593TIP3   OH2 7723   1.970   1.939   2.803  0.0593  0.3729  0.1633
 2593TIP3    H1 7724   1.926   2.024   2.804  3.9308  2.4974  1.1719
 2593TIP3    H2 7725   1.961   1.907   2.893 -1.0021 -0.0901 -0.1013
 2594TIP3   OH2 7726   0.237   4.660   3.148  0.4471  0.3490 -0.3933
 2594TIP3    H1 7727   0.177   4.654   3.074  1.9225 -1.0476 -1.5274
 2594TIP3    H2 7728   0.204   4.733   3.201 -2.2503 -0.4079 -0.9400
 2595TIP3   OH2 7729   7.199   1.772   4.786  0.2850  0.5848 -0.2043
 2595TIP3    H1 7730   7.127   1.782   4.849 -0.7265 -0.3932 -1.1796
 2595TIP3    H2 7731   7.260   1.842   4.808 -0.8839  1.3227  0.7594
 2596TIP3   OH2 7732   1.975   0.294   4.556 -0.1934 -0.3846  0.4062
 2596TIP3    H1 7733   1.883   0.311   4.538 -0.1466 -1.0052 -0.4671
 2596TIP3    H2 7734   2.005   0.371   4.605 -0.5834  0.9806 -1.4228
 2597TIP3   OH2 7735   5.423   2.921   1.734  0.3353  0.1822 -0.5544
 2597TIP3    H1 7736   5.331   2.948   1.731  0.1164 -0.6009 -1.0017
 2597TIP3    H2 7737   5.462   2.975   1.802 -0.2661  1.1296 -0.9477
 2598TIP3   OH2 7738   3.506   1.250   4.223 -0.2960 -0.0374 -0.0751
 2598TIP3    H1 7739   3.492   1.344   4.219 -2.0372 -0.1871  1.6762
 2598TIP3    H2 7740   3.470   1.216   4.141 -0.6917  0.7089 -0.2092
 2599TIP3   OH2 7741   5.571   1.331   1.454 -0.3345  0.1620 -0.2453
 2599TIP3    H1 7742   5.529   1.286   1.381 -0.3009 -1.2311  0.5724
 2599TIP3    H2 7743   5.528   1.417   1.458 -1.2163 -0.2355 -1.1017
 2600TIP3   OH2 7744   2.575   1.398   3.540  0.5252  0.6831  0.3547
 2600TIP3    H1 7745   2.517   1.380   3.613 -0.0433  0.1320 -0.2193
 2600TIP3    H2 7746   2.547   1.336   3.472 -0.0325  2.3039 -0.8999
 2601TIP3   OH2 7747   3.939   3.230   3.784  0.4267  0.5505 -0.0401
 2601TIP3    H1 7748   3.911   3.317   3.755 -1.5708 -0.1298 -0.2326
 2601TIP3    H2 7749   3.858   3.183   3.799  1.5032 -1.6423 -0.9667
 2602TIP3   OH2 7750   2.963   2.963   3.905 -0.1031 -0.2128  0.0311
 2602TIP3    H1 7751   3.011   3.019   3.843 -0.2871 -0.3542 -0.2412
 2602TIP3    H2 7752   2.882   2.940   3.859  0.2664 -1.2408 -0.1082
 2603TIP3   OH2 7753   2.840   3.810   3.238  0.3693  0.2025  0.2249
 2603TIP3    H1 7754   2.764   3.830   3.292  0.5558  1.3141  0.1027
 2603TIP3    H2 7755   2.812   3.737   3.183 -0.5270  0.4442  0.3521
 2604TIP3   OH2 7756   2.516   2.491   3.336  0.2003  0.0254 -0.0097
 2604TIP3    H1 7757   2.562   2.430   3.279 -1.2187  0.4640 -1.6475
 2604TIP3    H2 7758   2.567   2.572   3.331  1.0545 -0.4637  0.7261
 2605TIP3   OH2 7759   1.853   2.325   5.917  0.4136  0.6355  0.7073
 2605TIP3    H1 7760   1.897   2.346   5.834  0.1138  0.4297  0.4912
 2605TIP3    H2 7761   1.906   2.366   5.984  1.1110  0.1287  0.4720
 2606TIP3   OH2 7762   4.567   0.960   2.184 -0.5490 -0.3435 -0.2139
 2606TIP3    H1 7763   4.474   0.977   2.193 -0.5327  0.6621 -1.6854
 2606TIP3    H2 7764   4.596   1.021   2.116  1.2652 -0.3389  0.5341
 2607TIP3   OH2 7765   3.211   0.227   1.714 -0.0400 -0.9244  0.4423
 2607TIP3    H1 7766   3.158   0.297   1.752  0.0348 -0.1441 -0.8503
 2607TIP3    H2 7767   3.153   0.187   1.649  0.3756 -1.1729  0.2246
 2608TIP3   OH2 7768   3.245   1.510   4.708  0.1521 -0.2653  0.7250
 2608TIP3    H1 7769   3.265   1.419   4.726 -0.6923 -0.3011  1.4892
 2608TIP3    H2 7770   3.151   1.519   4.727  0.1266  0.6440  0.2122
 2609TIP3   OH2 7771   1.879   0.212   3.042 -0.3005 -0.3790 -0.0582
 2609TIP3    H1 7772   1.924   0.288   3.003 -0.9208 -0.2833 -0.5970
 2609TIP3    H2 7773   1.946   0.144   3.046  0.1543  0.0676  0.0541
 2610TIP3   OH2 7774   4.303   0.675   3.683 -0.3114 -0.2064 -0.8575
 2610TIP3    H1 7775   4.294   0.726   3.764  1.4864  0.2963 -0.9448
 2610TIP3    H2 7776   4.233   0.610   3.687 -1.0619  0.6641  0.4669
 2611TIP3   OH2 7777   1.822   0.987   5.025 -0.1441 -0.3013  0.0109
 2611TIP3    H1 7778   1.872   0.982   4.944 -2.0127 -1.5262 -1.0814
 2611TIP3    H2 7779   1.859   0.917   5.080  0.2563 -0.3013 -0.2519
 2612TIP3   OH2 7780   2.256   0.185   3.458 -0.0680  0.2165  0.2649
 2612TIP3    H1 7781   2.342   0.203   3.497 -0.6293  0.2032  1.5354
 2612TIP3    H2 7782   2.269   0.106   3.406  0.2174 -0.9864  2.1029
 2613TIP3   OH2 7783   4.157   3.867   3.619  0.2055 -0.6205  0.2433
 2613TIP3    H1 7784   4.076   3.825   3.589 -0.5216  2.0794 -1.8220
 2613TIP3    H2 7785   4.227   3.818   3.576 -0.4414 -1.8624  0.6040
 2614TIP3   OH2 7786   8.190   1.928   2.353 -0.5548  0.0829 -0.2795
 2614TIP3    H1 7787   8.124   1.991   2.383  0.2695  1.1023 -0.5751
 2614TIP3    H2 7788   8.227   1.892   2.434 -0.1166  0.9417 -0.0959
 2615TIP3   OH2 7789   8.427   0.616   2.470 -0.0741  0.0068  0.6100
 2615TIP3    H1 7790   8.358   0.616   2.537 -0.7881 -0.4355 -0.1114
 2615TIP3    H2 7791   8.413   0.696   2.421 -0.9644 -0.7703 -0.4257
 2616TIP3   OH2 7792   2.029   7.569   0.650 -0.2373 -0.6591 -0.1202
 2616TIP3    H1 7793   2.039   7.481   0.688  0.3288  0.1231  1.5787
 2616TIP3    H2 7794   2.118   7.601   0.639 -0.4454 -0.2697 -0.7339
 2617TIP3   OH2 7795   3.966   1.587   4.060  0.6424 -0.2158 -0.4002
 2617TIP3    H1 7796   3.979   1.544   4.145  4.5317 -0.6254 -1.1317
 2617TIP3    H2 7797   3.977   1.680   4.078  0.3771 -0.2040 -0.2903
 2618TIP3   OH2 7798   0.796   2.122   2.613 -0.0136 -0.3616 -0.0945
 2618TIP3    H1 7799   0.874   2.178   2.610 -0.6139  0.4349 -0.9144
 2618TIP3    H2 7800   0.731   2.175   2.660  0.0086 -1.1228  0.8070
 2619TIP3   OH2 7801   0.117   2.306   2.010  0.5244  0.5418 -0.2720
 2619TIP3    H1 7802   0.097   2.316   2.103  0.2594  1.6358 -0.4370
 2619TIP3    H2 7803   0.211   2.324   2.004  1.1940 -2.5252  0.2017
 2620TIP3   OH2 7804   2.002   0.918   5.407 -0.3227 -0.7380 -0.6648
 2620TIP3    H1 7805   1.995   0.974   5.330  1.0652 -1.3954 -1.2914
 2620TIP3    H2 7806   2.065   0.963   5.464  1.3735 -1.9970 -1.5009
 2621TIP3   OH2 7807   1.024   2.224   5.497 -0.6686 -0.1768 -0.4833
 2621TIP3    H1 7808   1.043   2.299   5.440  0.7346  0.5175  0.8684
 2621TIP3    H2 7809   0.974   2.261   5.570 -1.9157 -0.9597 -0.9258
 2622TIP3   OH2 7810   1.712   2.712   2.839  0.1951  0.0081  0.4956
 2622TIP3    H1 7811   1.795   2.752   2.812 -1.1255  2.9548  0.6976
 2622TIP3    H2 7812   1.659   2.710   2.759  0.7317 -2.7884  0.1327
 2623TIP3   OH2 7813   8.366   2.595   2.306 -0.1350 -0.1773 -0.2212
 2623TIP3    H1 7814   8.456   2.614   2.277 -0.2384 -0.2590 -0.5958
 2623TIP3    H2 7815   8.336   2.677   2.346  0.5518 -0.5355  1.0487
 2624TIP3   OH2 7816   1.177   7.190   4.714 -0.0514  0.3323 -0.2599
 2624TIP3    H1 7817   1.094   7.232   4.738  0.1538  1.1071 -0.8844
 2624TIP3    H2 7818   1.162   7.097   4.731 -1.4761  0.3112 -1.4798
 2625TIP3   OH2 7819   3.879   2.542   5.381 -0.5211  0.4268  0.1126
 2625TIP3    H1 7820   3.856   2.599   5.308  0.3191 -0.3064 -0.7373
 2625TIP3    H2 7821   3.850   2.455   5.353 -0.3912  0.1805  0.7446
 2626TIP3   OH2 7822   3.308   2.848   4.892  0.2212  0.2204  0.4973
 2626TIP3    H1 7823   3.220   2.835   4.928 -0.2635  1.1090 -0.3430
 2626TIP3    H2 7824   3.296   2.848   4.797  1.4657 -1.9213  0.3157
 2627TIP3   OH2 7825   3.787   2.718   3.395  0.1933 -1.0457  0.1814
 2627TIP3    H1 7826   3.764   2.798   3.348 -1.9142 -1.5914  0.2498
 2627TIP3    H2 7827   3.865   2.742   3.445 -0.9719  1.2798  0.9700
 2628TIP3   OH2 7828   2.312   3.034   5.260 -0.3027 -0.2867  0.1457
 2628TIP3    H1 7829   2.237   3.084   5.227 -1.4307 -0.8876  1.7443
 2628TIP3    H2 7830   2.342   2.984   5.184 -2.2747 -0.9352 -0.2439
 2629TIP3   OH2 7831   2.216   1.952   5.725  0.2987 -0.4322 -0.6042
 2629TIP3    H1 7832   2.208   2.039   5.685 -0.0300 -0.6880 -1.1055
 2629TIP3    H2 7833   2.126   1.929   5.749  0.4665 -0.3756  0.0841
 2630TIP3   OH2 7834   1.589   1.716   6.090  0.0831  0.1749 -0.3629
 2630TIP3    H1 7835   1.537   1.741   6.167 -2.0458 -0.9313 -1.3877
 2630TIP3    H2 7836   1.673   1.689   6.126 -1.0889 -0.9306  1.6526
 2631TIP3   OH2 7837   2.539   0.634   1.877 -0.1851 -0.3015  0.3410
 2631TIP3    H1 7838   2.580   0.647   1.962  1.1744  0.4109 -0.4018
 2631TIP3    H2 7839   2.561   0.713   1.827 -1.6995 -0.3272 -0.3808
 2632TIP3   OH2 7840   3.445   0.976   0.980  0.0539 -0.0144 -0.1157
 2632TIP3    H1 7841   3.375   1.041   0.972 -0.7075 -0.7986  0.1167
 2632TIP3    H2 7842   3.410   0.898   0.938  0.4244 -0.6921  0.8234
 2633TIP3   OH2 7843   2.090   1.095   3.409 -0.9885  0.8359 -0.1249
 2633TIP3    H1 7844   2.132   1.019   3.450 -1.0838  0.6337 -0.3986
 2633TIP3    H2 7845   2.092   1.163   3.476  0.2756  0.9976 -0.3175
 2634TIP3   OH2 7846   0.354   1.044   2.354 -0.0586 -0.1139  0.3167
 2634TIP3    H1 7847   0.347   0.953   2.382 -1.0570 -0.1549 -0.0375
 2634TIP3    H2 7848   0.392   1.089   2.429  3.5190 -1.3770 -0.6659
 2635TIP3   OH2 7849   2.212   2.206   4.653  0.8979  0.1655  0.3624
 2635TIP3    H1 7850   2.126   2.183   4.689 -0.9843  2.5935 -2.3485
 2635TIP3    H2 7851   2.245   2.124   4.617 -0.7715 -0.6131  0.5470
 2636TIP3   OH2 7852   8.256   7.667   2.694 -0.2871  0.3154  0.1393
 2636TIP3    H1 7853   8.327   7.603   2.687 -0.6647 -0.0623 -0.2008
 2636TIP3    H2 7854   8.275   7.714   2.776  0.2941  0.1470  0.1068
 2637TIP3   OH2 7855   2.534   1.871   1.698  0.6349  0.0180  0.0430
 2637TIP3    H1 7856   2.510   1.780   1.680  0.6018  0.5635 -2.8354
 2637TIP3    H2 7857   2.613   1.864   1.753 -0.3811 -1.7244  1.3433
 2638TIP3   OH2 7858   2.005   4.070   3.473 -0.0351  0.0406 -0.1058
 2638TIP3    H1 7859   1.929   4.123   3.498 -0.5960  0.0477 -1.7289
 2638TIP3    H2 7860   1.967   3.986   3.447  0.4725  0.1677 -1.2833
 2639TIP3   OH2 7861   6.461   6.358   0.639 -0.6244  0.0028  0.6947
 2639TIP3    H1 7862   6.474   6.441   0.592  1.5469 -1.5503 -1.6280
 2639TIP3    H2 7863   6.380   6.322   0.603  0.1154 -0.3480 -0.6797
 2640TIP3   OH2 7864   3.106   1.375   5.010 -0.2789  0.3649  0.1746
 2640TIP3    H1 7865   3.161   1.318   4.956  1.6561  2.4288 -0.0929
 2640TIP3    H2 7866   3.078   1.444   4.951  0.2084  1.5467  1.3082
 2641TIP3   OH2 7867   3.664   3.006   4.667 -0.0707  0.4332 -0.5888
 2641TIP3    H1 7868   3.680   2.915   4.641  1.5789  0.7217 -0.6254
 2641TIP3    H2 7869   3.703   3.013   4.754 -0.9976  0.8632 -0.2119
 2642TIP3   OH2 7870   1.302   1.328   4.836  0.1046 -0.4794 -0.3245
 2642TIP3    H1 7871   1.294   1.340   4.742  0.7822  1.4821 -0.1473
 2642TIP3    H2 7872   1.303   1.233   4.848 -0.9126 -0.7488 -2.1983
 2643TIP3   OH2 7873   0.875   2.138   4.931 -0.5470  0.1533 -0.1265
 2643TIP3    H1 7874   0.784   2.113   4.917 -1.8375  4.3627  0.2245
 2643TIP3    H2 7875   0.876   2.182   5.016  1.8229  0.2111 -0.1305
 2644TIP3   OH2 7876   2.075   3.714   1.933 -0.5819 -0.2091 -0.1472
 2644TIP3    H1 7877   2.032   3.792   1.968  0.2707  0.3955 -0.4289
 2644TIP3    H2 7878   2.156   3.746   1.894 -0.9391 -1.0189 -1.6373
 2645TIP3   OH2 7879   4.813   1.420   4.304  0.4810 -0.2287  0.4642
 2645TIP3    H1 7880   4.897   1.465   4.295  0.8069 -1.0511 -0.6435
 2645TIP3    H2 7881   4.834   1.341   4.354  0.6850 -1.2932 -1.2786
 2646TIP3   OH2 7882   3.098   3.716   3.309 -0.0614 -0.4939 -0.4410
 2646TIP3    H1 7883   3.018   3.723   3.257 -0.1289 -0.3998 -0.3260
 2646TIP3    H2 7884   3.145   3.798   3.291 -0.3139 -0.2451  0.0236
 2647TIP3   OH2 7885   4.306   0.571   1.353 -0.1565  0.3021 -0.3650
 2647TIP3    H1 7886   4.299   0.552   1.259 -1.9227 -0.8902 -0.0221
 2647TIP3    H2 7887   4.330   0.488   1.393  0.6133  0.8120  0.2552
 2648TIP3   OH2 7888   4.774   2.435   2.680  0.1098 -0.5223 -0.6005
 2648TIP3    H1 7889   4.854   2.427   2.732 -0.0800 -0.0275 -0.2261
 2648TIP3    H2 7890   4.771   2.528   2.655 -0.2358 -0.5823 -0.7882
 2649TIP3   OH2 7891   4.482   1.849   3.579 -0.5985 -0.4879  0.7671
 2649TIP3    H1 7892   4.392   1.826   3.557 -0.9458  0.6237  0.9749
 2649TIP3    H2 7893   4.513   1.900   3.504  0.7677 -3.0970 -0.5110
 2650TIP3   OH2 7894   5.259   1.655   1.133 -0.0728 -0.1437  0.0879
 2650TIP3    H1 7895   5.238   1.692   1.219 -1.0899 -1.1418  0.2813
 2650TIP3    H2 7896   5.173   1.636   1.094  0.4006 -0.3849 -0.8424
 2651TIP3   OH2 7897   2.139   1.812   1.967  0.4669  0.9543 -0.0837
 2651TIP3    H1 7898   2.228   1.781   1.948  0.7982  2.0689 -0.3539
 2651TIP3    H2 7899   2.150   1.904   1.989 -0.5415  0.9095  0.6154
 2652TIP3   OH2 7900   7.823   4.808   6.905  0.1085 -0.3347  0.7472
 2652TIP3    H1 7901   7.742   4.756   6.906  1.1402 -1.9773  0.2954
 2652TIP3    H2 7902   7.858   4.799   6.994  0.8243 -1.2897  0.3760
 2653TIP3   OH2 7903   3.328   0.647   3.018 -0.3424 -0.4990  0.4945
 2653TIP3    H1 7904   3.280   0.599   3.086  0.8528 -2.0407  0.2750
 2653TIP3    H2 7905   3.382   0.580   2.975  1.4018  1.0717  0.2141
 2654TIP3   OH2 7906   4.722   1.137   4.216  0.5105 -0.4094  0.1161
 2654TIP3    H1 7907   4.780   1.065   4.193  0.7868 -0.0868 -0.2114
 2654TIP3    H2 7908   4.776   1.196   4.268  0.4195 -0.2114 -0.0128
 2655TIP3   OH2 7909   3.791   1.072   3.068 -0.0997 -0.4554  0.5296
 2655TIP3    H1 7910   3.855   1.078   3.139  0.8857  0.1098 -0.3961
 2655TIP3    H2 7911   3.725   1.137   3.089  1.1377  1.0058 -0.0012
 2656TIP3   OH2 7912   6.364   0.519   0.155 -0.5008  0.1070  0.1174
 2656TIP3    H1 7913   6.283   0.471   0.171 -0.7632 -0.0999 -1.6427
 2656TIP3    H2 7914   6.343   0.577   0.082  0.9864 -0.0845 -0.4794
 2657TIP3   OH2 7915   5.147   2.239   3.029 -0.6736 -0.0674  0.1654
 2657TIP3    H1 7916   5.236   2.212   3.004 -1.2225  0.0426 -1.9651
 2657TIP3    H2 7917   5.147   2.233   3.125  1.5934 -0.1850  0.1901
 2658TIP3   OH2 7918   5.991   2.014   3.621  0.6975  0.0456  0.1515
 2658TIP3    H1 7919   6.065   2.045   3.568 -0.0865 -2.6301 -2.6094
 2658TIP3    H2 7920   6.015   1.926   3.648 -0.9471 -0.3629  0.3545
 2659TIP3   OH2 7921   1.729   0.874   2.966 -0.3730  0.0090  0.2786
 2659TIP3    H1 7922   1.671   0.942   2.933 -0.0647  0.1423  0.0006
 2659TIP3    H2 7923   1.694   0.793   2.931 -0.7986  0.0123  0.6905
 2660TIP3   OH2 7924   0.568   6.864   2.455 -0.4064 -0.2714 -0.1661
 2660TIP3    H1 7925   0.529   6.930   2.513  0.7229 -0.7012  1.0759
 2660TIP3    H2 7926   0.498   6.800   2.443 -0.9759  0.3210 -0.0858
 2661TIP3   OH2 7927   5.271   2.211   2.342  0.1891  0.2646  0.0731
 2661TIP3    H1 7928   5.238   2.123   2.325  0.5958  0.3801 -1.3734
 2661TIP3    H2 7929   5.265   2.221   2.437  0.0940 -1.2925  0.2396
 2662TIP3   OH2 7930   4.821   1.178   1.910 -0.5818 -0.0805  0.3116
 2662TIP3    H1 7931   4.833   1.273   1.918  1.6340 -0.2505 -0.5868
 2662TIP3    H2 7932   4.856   1.157   1.823 -1.6862 -1.6368  0.2297
 2663TIP3   OH2 7933   5.200   1.090   2.614 -0.3180  0.2968 -0.0773
 2663TIP3    H1 7934   5.145   1.027   2.568  1.3393 -1.1007 -0.2135
 2663TIP3    H2 7935   5.289   1.053   2.608  0.3753  1.6042  1.6303
 2664TIP3   OH2 7936   4.048   3.214   1.904  0.5714 -0.4930 -0.0215
 2664TIP3    H1 7937   4.096   3.149   1.955 -1.3593 -1.8159  0.1676
 2664TIP3    H2 7938   3.958   3.183   1.905 -0.0444  1.1650 -1.5734
 2665TIP3   OH2 7939   5.281   3.922   6.829  0.3970 -0.0711  0.3873
 2665TIP3    H1 7940   5.298   4.015   6.843 -1.3736 -0.0228  2.4220
 2665TIP3    H2 7941   5.333   3.878   6.897 -1.2801 -0.3513  1.5311
 2666TIP3   OH2 7942   5.386   1.266   0.285  0.6055  0.1725 -0.2383
 2666TIP3    H1 7943   5.333   1.344   0.268 -2.0690 -1.3513  0.8170
 2666TIP3    H2 7944   5.447   1.293   0.354 -0.5522  1.2138  0.3965
 2667TIP3   OH2 7945   2.612   0.712   4.532 -0.8196  0.1138 -0.5952
 2667TIP3    H1 7946   2.611   0.623   4.497 -2.2292 -0.3865  0.6716
 2667TIP3    H2 7947   2.679   0.757   4.480  2.7841 -2.7407  1.3500
 2668TIP3   OH2 7948   3.074   3.384   3.391 -0.2880  0.4297 -0.2114
 2668TIP3    H1 7949   3.056   3.407   3.300 -1.4319  1.4881  0.2741
 2668TIP3    H2 7950   3.160   3.421   3.408  0.4308 -0.7476 -1.1941
 2669TIP3   OH2 7951   3.274   0.714   1.708 -0.2460  0.0916  0.3049
 2669TIP3    H1 7952   3.277   0.703   1.613 -1.7059 -0.3145  0.2924
 2669TIP3    H2 7953   3.296   0.806   1.723  1.2963 -0.1683 -0.3375
 2670TIP3   OH2 7954   4.102   2.682   5.172  0.4057  0.3134  0.1290
 2670TIP3    H1 7955   4.050   2.741   5.118  0.5491  0.3426  0.0224
 2670TIP3    H2 7956   4.042   2.610   5.194  0.0259  0.8377  0.8319
 2671TIP3   OH2 7957   6.255   0.580   2.244 -0.3978 -0.0878 -0.0331
 2671TIP3    H1 7958   6.226   0.587   2.335  2.9127 -2.3456  1.3256
 2671TIP3    H2 7959   6.207   0.505   2.210 -1.1846  0.3775  0.0335
 2672TIP3   OH2 7960   2.843   2.516   3.544  0.1556  0.2418  0.3031
 2672TIP3    H1 7961   2.926   2.527   3.498  0.1502  1.6746  0.6262
 2672TIP3    H2 7962   2.791   2.592   3.517 -2.3443 -2.3587 -2.6202
 2673TIP3   OH2 7963   7.002   1.267   3.391  0.5008 -0.1192  0.1603
 2673TIP3    H1 7964   7.013   1.336   3.457  1.4264  0.8047 -0.9308
 2673TIP3    H2 7965   7.070   1.285   3.326 -1.6111  0.1824 -2.0542
 2674TIP3   OH2 7966   4.536   3.166   1.583  0.0880 -0.8234 -0.0253
 2674TIP3    H1 7967   4.490   3.209   1.510 -0.7764 -2.1127 -0.2481
 2674TIP3    H2 7968   4.600   3.231   1.612 -0.2330  0.0791 -1.2935
 2675TIP3   OH2 7969   4.516   1.773   2.993 -0.3765 -0.5848  0.1873
 2675TIP3    H1 7970   4.539   1.840   2.929  1.5758 -0.3977  1.0685
 2675TIP3    H2 7971   4.456   1.817   3.054 -2.0848 -0.7068 -1.3421
 2676TIP3   OH2 7972   4.236   2.079   1.845  0.8073 -0.0808 -0.3016
 2676TIP3    H1 7973   4.320   2.101   1.806  0.4372 -0.3947 -1.2949
 2676TIP3    H2 7974   4.196   2.164   1.865  0.9440  0.0884 -0.7385
 2677TIP3   OH2 7975   4.605   1.670   0.769 -0.4626 -0.0115 -0.5337
 2677TIP3    H1 7976   4.700   1.681   0.780 -0.4077  0.1892 -1.1833
 2677TIP3    H2 7977   4.569   1.758   0.784 -0.7086 -0.4179  1.3480
 2678TIP3   OH2 7978   6.194   1.890   1.507  0.1484 -0.1219 -0.1916
 2678TIP3    H1 7979   6.103   1.888   1.536  0.3219  0.4895  0.4203
 2678TIP3    H2 7980   6.214   1.799   1.484 -0.3736 -0.4083  0.4591
 2679TIP3   OH2 7981   5.721   1.182   1.640  0.1614  0.0427 -0.0191
 2679TIP3    H1 7982   5.694   1.093   1.664  2.0414 -0.5751 -0.1085
 2679TIP3    H2 7983   5.654   1.213   1.580 -0.9554 -0.9990  0.6836
 2680TIP3   OH2 7984   4.602   2.626   3.077  0.1426 -0.0447  0.1434
 2680TIP3    H1 7985   4.652   2.545   3.085  0.4456  0.1309  0.0151
 2680TIP3    H2 7986   4.564   2.621   2.989  0.3251  0.0507  0.0613
 2681TIP3   OH2 7987   3.667   1.090   1.600 -0.5398  0.0846 -0.8904
 2681TIP3    H1 7988   3.710   1.167   1.637 -1.3938  0.0966  0.1132
 2681TIP3    H2 7989   3.573   1.108   1.610 -0.7457 -1.4845  0.2431
 2682TIP3   OH2 7990   5.339   2.122   1.701 -0.0492 -0.0401 -0.6543
 2682TIP3    H1 7991   5.278   2.166   1.760 -0.8012  0.5803 -1.8736
 2682TIP3    H2 7992   5.296   2.124   1.615  0.8643 -1.2391 -1.1646
 2683TIP3   OH2 7993   3.842   0.546   3.007  0.5063 -0.0424  0.3477
 2683TIP3    H1 7994   3.798   0.631   3.013 -1.3713 -0.9447 -0.3143
 2683TIP3    H2 7995   3.915   0.562   2.947  0.4856  1.2422  0.6532
 2684TIP3   OH2 7996   5.554   3.166   2.340 -0.0738 -0.4169 -0.0297
 2684TIP3    H1 7997   5.583   3.235   2.280 -1.7678 -0.2209 -0.6719
 2684TIP3    H2 7998   5.610   3.175   2.417 -1.0965  2.5267  0.4395
 2685TIP3   OH2 7999   4.481   2.098   3.443 -0.1653  0.1936  0.3516
 2685TIP3    H1 8000   4.400   2.132   3.404  0.3293 -0.9385 -1.7481
 2685TIP3    H2 8001   4.551   2.145   3.399  0.4069 -0.9542  0.0109
 2686TIP3   OH2 8002   4.133   1.517   3.126 -0.2737  0.2215  0.1959
 2686TIP3    H1 8003   4.071   1.529   3.054 -0.0527 -0.8733 -0.1879
 2686TIP3    H2 8004   4.217   1.501   3.084  0.3353  1.9027  0.7202
 2687TIP3   OH2 8005   3.240   1.214   3.110  0.2875 -0.5606 -0.3951
 2687TIP3    H1 8006   3.309   1.277   3.086  0.7860 -0.5915  0.9239
 2687TIP3    H2 8007   3.165   1.269   3.133  0.4499 -0.4719 -0.0749
 2688TIP3   OH2 8008   3.170   3.107   4.019  0.0390  0.1631  0.5240
 2688TIP3    H1 8009   3.179   3.090   4.113  1.7279 -0.4331  0.2656
 2688TIP3    H2 8010   3.237   3.052   3.978 -1.8985 -1.0009 -1.1818
 2689TIP3   OH2 8011   3.857   3.777   3.814  0.4782  0.2413 -0.0465
 2689TIP3    H1 8012   3.936   3.728   3.793  1.0445  0.1092  2.2681
 2689TIP3    H2 8013   3.875   3.866   3.785  1.4078  0.1711  0.2929
 2690TIP3   OH2 8014   6.462   1.474   0.863  0.1263 -0.3970  0.1630
 2690TIP3    H1 8015   6.369   1.456   0.879  0.6177 -1.4568  2.0304
 2690TIP3    H2 8016   6.494   1.508   0.946  1.4883 -0.4022 -0.3559
 2691TIP3   OH2 8017   2.197   0.275   3.141 -0.0023 -0.1056  0.0138
 2691TIP3    H1 8018   2.158   0.188   3.148  2.5327 -1.1779  1.9002
 2691TIP3    H2 8019   2.195   0.309   3.231  1.3626  0.6955 -0.2444
 2692TIP3   OH2 8020   7.491   2.640   2.933 -0.2142 -0.3086  0.1480
 2692TIP3    H1 8021   7.583   2.640   2.906  0.1586 -0.9001  1.4035
 2692TIP3    H2 8022   7.484   2.571   2.999 -1.6215 -0.4567 -0.1292
 2693TIP3   OH2 8023   4.048   2.505   2.734 -0.1052 -0.4876  0.3033
 2693TIP3    H1 8024   4.105   2.548   2.797  0.6603 -0.6056 -0.3079
 2693TIP3    H2 8025   4.096   2.509   2.651 -1.6588  0.8145 -0.5670
 2694TIP3   OH2 8026   4.145   1.466   1.051 -0.5100 -0.3000 -0.0535
 2694TIP3    H1 8027   4.089   1.388   1.046 -1.3571  0.3661 -1.0322
 2694TIP3    H2 8028   4.156   1.493   0.960  0.7791  0.0272  0.1912
 2695TIP3   OH2 8029   4.371   3.890   4.158 -0.0796 -0.3482 -0.0391
 2695TIP3    H1 8030   4.408   3.839   4.231  0.7104  2.7899  1.8615
 2695TIP3    H2 8031   4.278   3.867   4.158  0.3304 -2.1024  0.4727
 2696TIP3   OH2 8032   3.397   0.956   3.634 -0.1618  0.1490 -0.1240
 2696TIP3    H1 8033   3.332   1.022   3.610  0.5549  1.3858  1.2742
 2696TIP3    H2 8034   3.377   0.933   3.724 -1.8132 -3.2671 -1.2984
 2697TIP3   OH2 8035   4.223   2.630   2.892 -0.0734 -0.7575 -0.1857
 2697TIP3    H1 8036   4.220   2.628   2.987  2.5422 -2.2744 -0.0729
 2697TIP3    H2 8037   4.317   2.633   2.871 -0.4514 -3.8382 -2.7193
 2698TIP3   OH2 8038   3.133   1.438   4.086 -0.0081  0.6856 -0.3138
 2698TIP3    H1 8039   3.167   1.514   4.040  0.1480  0.0422 -1.2825
 2698TIP3    H2 8040   3.119   1.372   4.018 -0.2836 -0.1058  0.4811
 2699TIP3   OH2 8041   5.868   1.366   3.293 -0.0534  0.6483  0.1778
 2699TIP3    H1 8042   5.943   1.329   3.339  0.1688  1.4931  0.5069
 2699TIP3    H2 8043   5.874   1.460   3.308 -1.4486  0.6891  0.6222
 2700TIP3   OH2 8044   4.139   1.151   3.660  0.1134 -0.1138 -0.2340
 2700TIP3    H1 8045   4.117   1.058   3.655  1.3311 -0.7106  3.7780
 2700TIP3    H2 8046   4.227   1.157   3.622  0.8728 -0.9861  1.3472
 2701TIP3   OH2 8047   8.059   0.420   3.603  0.0425  0.1018  0.1890
 2701TIP3    H1 8048   7.979   0.462   3.570 -0.6642  0.4718  2.3208
 2701TIP3    H2 8049   8.130   0.464   3.556 -0.9401  0.4385 -1.0130
 2702TIP3   OH2 8050   2.995   2.156   3.893 -0.2689  0.4294 -0.5779
 2702TIP3    H1 8051   2.920   2.168   3.951  2.2865  1.4168  2.6760
 2702TIP3    H2 8052   3.001   2.062   3.881 -1.4852  0.2824 -0.1074
 2703TIP3   OH2 8053   2.497   1.925   3.114  0.3443 -0.0215  0.5220
 2703TIP3    H1 8054   2.502   1.912   3.019  2.4083  1.7957  0.3547
 2703TIP3    H2 8055   2.574   1.881   3.149 -0.3325 -0.5646  1.3691
 2704TIP3   OH2 8056   6.894   0.796   2.643  0.1118  0.1137 -0.4094
 2704TIP3    H1 8057   6.836   0.733   2.686  0.1125  0.3039 -0.1318
 2704TIP3    H2 8058   6.959   0.818   2.709  0.1654  0.3362 -0.5358
 2705TIP3   OH2 8059   4.905   0.595   1.589  0.0336  0.3235  0.1887
 2705TIP3    H1 8060   4.957   0.562   1.662 -0.9057  0.7505  1.0558
 2705TIP3    H2 8061   4.832   0.642   1.630 -0.6345  0.3606 -1.0127
 2706TIP3   OH2 8062   5.066   0.670   1.907 -0.1891 -0.1081  0.0415
 2706TIP3    H1 8063   5.154   0.654   1.942  0.4320  0.6803 -1.0940
 2706TIP3    H2 8064   5.033   0.583   1.885  0.5852 -0.3626 -0.1421
 2707TIP3   OH2 8065   3.101   1.676   2.653  0.2412  0.1224 -0.1882
 2707TIP3    H1 8066   3.142   1.760   2.633  1.2583 -0.6130 -1.2653
 2707TIP3    H2 8067   3.116   1.623   2.576 -0.1771 -1.1454  0.5843
 2708TIP3   OH2 8068   2.533   0.808   2.651  0.1507 -0.5492 -0.2024
 2708TIP3    H1 8069   2.603   0.869   2.672  1.0746 -1.1497 -1.4860
 2708TIP3    H2 8070   2.510   0.768   2.734  0.9407  0.0516  0.3125
 2709TIP3   OH2 8071   3.980   3.895   2.803 -0.6428  0.0993 -0.1460
 2709TIP3    H1 8072   4.023   3.878   2.887 -0.2503  2.1421  0.0883
 2709TIP3    H2 8073   4.011   3.825   2.746  1.7219  0.5904  0.4813
 2710TIP3   OH2 8074   5.533   1.948   2.887 -0.5950 -0.0014  0.0152
 2710TIP3    H1 8075   5.608   1.897   2.857 -0.6188  0.7114 -1.3141
 2710TIP3    H2 8076   5.458   1.890   2.875 -0.9097  0.9639 -3.4604
 2711TIP3   OH2 8077   3.757   2.997   3.341  0.6684 -0.3323  0.6725
 2711TIP3    H1 8078   3.711   3.019   3.422  0.0059 -1.4690  0.6159
 2711TIP3    H2 8079   3.835   3.052   3.342  0.1305  0.4235  1.5709
 2712TIP3   OH2 8080   5.257   1.454   2.626 -0.6555 -0.0671 -0.3307
 2712TIP3    H1 8081   5.209   1.492   2.699 -0.5168  1.9212 -1.2280
 2712TIP3    H2 8082   5.195   1.395   2.584 -1.4039  0.3533  0.1722
 2713TIP3   OH2 8083   2.615   1.539   1.414  0.5643  0.4677  0.4844
 2713TIP3    H1 8084   2.592   1.602   1.346 -0.5227 -0.9327 -0.4951
 2713TIP3    H2 8085   2.701   1.507   1.388  0.4623  0.4610  0.1449
 2714TIP3   OH2 8086   3.049   0.743   1.478  0.3796 -0.0665  0.0197
 2714TIP3    H1 8087   2.955   0.729   1.488 -0.0406  1.2825 -1.7662
 2714TIP3    H2 8088   3.083   0.660   1.444  0.2588 -1.3681  2.9592
 2715TIP3   OH2 8089   2.278   0.240   0.760  0.4985  0.3430 -0.4737
 2715TIP3    H1 8090   2.338   0.289   0.703  0.9333 -0.9134 -1.1208
 2715TIP3    H2 8091   2.251   0.303   0.827  4.0901  0.4540  1.0148
 2716TIP3   OH2 8092   2.330   0.899   0.797 -0.4983 -0.3859  0.4933
 2716TIP3    H1 8093   2.301   0.989   0.811  0.5974  0.0795 -0.0990
 2716TIP3    H2 8094   2.289   0.874   0.714  0.3492  0.0869 -0.0786
 2717TIP3   OH2 8095   6.470   3.796   5.910  0.1307  0.3383 -0.8386
 2717TIP3    H1 8096   6.411   3.871   5.913  1.5254  1.3738  3.3457
 2717TIP3    H2 8097   6.423   3.726   5.956  1.1591  0.4192  0.3465
 2718TIP3   OH2 8098   4.730   1.818   1.639  0.4397 -0.1274  0.5849
 2718TIP3    H1 8099   4.798   1.756   1.611 -0.1349 -0.2950 -0.4691
 2718TIP3    H2 8100   4.669   1.764   1.691  0.3095 -0.2953  0.2570
 2719TIP3   OH2 8101   2.450   2.201   5.533 -0.3517 -0.3554 -0.2199
 2719TIP3    H1 8102   2.453   2.234   5.444  1.2807  0.7553  0.2209
 2719TIP3    H2 8103   2.371   2.241   5.570  1.2721  2.7407  0.1258
 2720TIP3   OH2 8104   4.224   1.728   1.920 -0.0040  0.6248 -0.1716
 2720TIP3    H1 8105   4.143   1.745   1.871  0.3449  0.4850 -0.7975
 2720TIP3    H2 8106   4.292   1.775   1.872  0.0333  2.1632  1.2959
 2721TIP3   OH2 8107   6.095   1.590   0.320  0.2093 -0.1403  0.2435
 2721TIP3    H1 8108   6.075   1.621   0.408  0.6371 -0.1404  0.3439
 2721TIP3    H2 8109   6.020   1.536   0.296  1.0748 -1.9567  1.4852
 2722TIP3   OH2 8110   2.278   1.558   2.192  0.9114 -0.0975 -0.1079
 2722TIP3    H1 8111   2.275   1.600   2.107 -1.6763 -0.9636 -0.4972
 2722TIP3    H2 8112   2.285   1.630   2.255 -0.4588  0.7522 -0.9091
 2723TIP3   OH2 8113   5.349   2.406   5.572  0.6517  0.6047  0.3383
 2723TIP3    H1 8114   5.435   2.442   5.548  1.0843 -0.1616  0.7306
 2723TIP3    H2 8115   5.369   2.327   5.622 -0.2879  0.0052 -0.2097
 2724TIP3   OH2 8116   3.523   1.371   3.387 -0.1104 -0.1069 -0.1887
 2724TIP3    H1 8117   3.466   1.448   3.386 -0.0880 -0.0186  2.3646
 2724TIP3    H2 8118   3.464   1.298   3.405  0.1972 -0.3859 -0.3008
 2725TIP3   OH2 8119   3.365   0.567   2.695  0.1107 -0.0320 -0.6502
 2725TIP3    H1 8120   3.297   0.634   2.705 -0.1521 -0.3285 -0.4583
 2725TIP3    H2 8121   3.430   0.589   2.762 -0.3778 -0.4642 -0.0390
 2726TIP3   OH2 8122   2.996   3.579   2.662 -0.0719 -0.7509  0.2356
 2726TIP3    H1 8123   3.009   3.657   2.609  0.3149 -1.7788 -1.2319
 2726TIP3    H2 8124   3.082   3.536   2.664 -0.3777 -1.3581  0.6616
 2727TIP3   OH2 8125   4.584   2.791   1.759  0.0937  0.3558 -0.5910
 2727TIP3    H1 8126   4.525   2.716   1.750  0.6111 -0.2398  0.8370
 2727TIP3    H2 8127   4.598   2.821   1.669  1.0944 -2.2208 -1.3552
 2728TIP3   OH2 8128   1.343   7.668   1.863 -0.2926 -0.0232 -0.0010
 2728TIP3    H1 8129   1.426   7.709   1.884 -0.7912  0.2040  1.5680
 2728TIP3    H2 8130   1.292   7.738   1.821 -0.1574  0.1940  0.1941
 2729TIP3   OH2 8131   7.160   3.037   1.303 -0.3006 -0.2915 -0.2449
 2729TIP3    H1 8132   7.161   3.020   1.209 -1.4244  2.4482 -0.8154
 2729TIP3    H2 8133   7.118   2.960   1.341 -0.8786 -0.9282 -2.1233
 2730TIP3   OH2 8134   4.749   1.087   2.607 -0.2265  0.0499  0.2864
 2730TIP3    H1 8135   4.695   1.024   2.559  0.2631 -0.3922  0.3125
 2730TIP3    H2 8136   4.771   1.043   2.689  2.6601 -0.9742 -0.9825
 2731TIP3   OH2 8137   6.736   4.532   6.889  0.2865 -0.2323 -0.1891
 2731TIP3    H1 8138   6.744   4.611   6.835  0.3141  0.0040  0.1638
 2731TIP3    H2 8139   6.665   4.482   6.848  1.1344 -0.6528 -1.2046
 2732TIP3   OH2 8140   0.172   5.577   6.860 -0.3811 -0.0791 -0.3636
 2732TIP3    H1 8141   0.247   5.624   6.898 -1.4122  2.2404 -1.1130
 2732TIP3    H2 8142   0.184   5.585   6.766 -1.9543  0.9466 -0.4844
 2733TIP3   OH2 8143   3.633   2.153   0.136  0.2791 -0.2489 -0.2272
 2733TIP3    H1 8144   3.652   2.083   0.199  0.0699 -0.2132 -0.1243
 2733TIP3    H2 8145   3.612   2.229   0.191 -0.0492 -0.2581 -0.3392
 2734TIP3   OH2 8146   2.950   2.430   2.067  0.1508 -0.5562  0.6380
 2734TIP3    H1 8147   3.045   2.438   2.064  0.3813 -2.9509  0.7294
 2734TIP3    H2 8148   2.925   2.461   2.154  0.6290  1.7709 -0.0076
 2735TIP3   OH2 8149   3.937   2.243   4.725  0.2549  0.2364 -0.4711
 2735TIP3    H1 8150   3.994   2.255   4.801 -0.5955 -0.5260  0.3017
 2735TIP3    H2 8151   3.850   2.268   4.757 -0.2553 -0.9196 -0.9542
 2736TIP3   OH2 8152   4.948   3.655   3.673  0.0343 -0.0020  0.2054
 2736TIP3    H1 8153   4.965   3.696   3.758  0.8990  0.1251 -0.0223
 2736TIP3    H2 8154   4.948   3.561   3.691 -0.8582  0.0548  0.5333
 2737TIP3   OH2 8155   3.432   2.936   2.969  0.1918  0.2564  0.4107
 2737TIP3    H1 8156   3.365   2.926   3.036 -1.0070  3.9396 -0.1186
 2737TIP3    H2 8157   3.503   2.982   3.013 -0.3406  2.1346 -0.6382
 2738TIP3   OH2 8158   5.033   3.185   0.846  0.1527  0.0269 -0.3808
 2738TIP3    H1 8159   5.068   3.096   0.840 -0.3448 -0.1315 -0.9449
 2738TIP3    H2 8160   4.945   3.178   0.811  0.7081  1.0885 -2.0070
 2739TIP3   OH2 8161   4.470   2.939   2.911  0.0293 -0.4261 -0.2404
 2739TIP3    H1 8162   4.529   2.961   2.983 -0.1520  1.0902 -0.5486
 2739TIP3    H2 8163   4.487   3.005   2.844 -2.1479  0.1899 -0.2389
 2740TIP3   OH2 8164   4.637   2.018   1.994 -0.3727  0.3750 -0.1229
 2740TIP3    H1 8165   4.731   2.033   1.999 -0.4936  1.2433 -0.4663
 2740TIP3    H2 8166   4.627   1.924   2.009  0.4530  0.4625  1.0727
 2741TIP3   OH2 8167   4.527   1.560   3.234  0.5119  0.5253  0.1300
 2741TIP3    H1 8168   4.468   1.518   3.172 -0.3444 -0.0461  1.3157
 2741TIP3    H2 8169   4.483   1.641   3.259  1.6960  1.6646 -1.3779
 2742TIP3   OH2 8170   3.562   2.675   2.867  0.1539 -0.8186  0.0710
 2742TIP3    H1 8171   3.567   2.692   2.773  0.1393  1.0831  0.3981
 2742TIP3    H2 8172   3.532   2.757   2.906 -1.5162 -2.0915  1.5838
 2743TIP3   OH2 8173   1.411   1.358   2.447 -0.2916 -0.0807 -0.1237
 2743TIP3    H1 8174   1.431   1.435   2.393 -1.7385  0.8482  0.6045
 2743TIP3    H2 8175   1.458   1.373   2.529 -0.7184  0.1521  0.0877
 2744TIP3   OH2 8176   3.540   0.386   1.954 -0.4528 -0.0932  0.1752
 2744TIP3    H1 8177   3.604   0.454   1.931  1.3998 -0.3764  4.0152
 2744TIP3    H2 8178   3.455   0.428   1.944  0.6277  2.4800  1.3195
 2745TIP3   OH2 8179   4.598   1.867   4.183 -0.0602 -0.0862 -0.5033
 2745TIP3    H1 8180   4.570   1.832   4.099 -1.7677  0.1181 -0.0362
 2745TIP3    H2 8181   4.518   1.872   4.235  1.1734 -1.7057  1.6877
 2746TIP3   OH2 8182   2.965   3.141   2.075 -0.5835  0.7222 -0.1914
 2746TIP3    H1 8183   2.929   3.223   2.111 -0.9667  0.5145 -0.1002
 2746TIP3    H2 8184   3.057   3.143   2.101 -0.9027  0.4760  0.9957
 2747TIP3   OH2 8185   4.249   2.577   3.765 -0.6028  0.0489 -0.0914
 2747TIP3    H1 8186   4.257   2.524   3.686  0.2418  0.1006 -0.0419
 2747TIP3    H2 8187   4.309   2.650   3.752  0.0871 -0.3254  0.9026
 2748TIP3   OH2 8188   6.862   0.771   4.132  0.2995  0.2658  0.2685
 2748TIP3    H1 8189   6.891   0.800   4.045  2.4520  1.3709  1.3168
 2748TIP3    H2 8190   6.773   0.805   4.140  0.7675  1.8144 -0.7623
 2749TIP3   OH2 8191   5.504   0.982   0.702  0.8963 -0.1199  0.4328
 2749TIP3    H1 8192   5.505   1.008   0.794  0.2976  0.3499  0.3090
 2749TIP3    H2 8193   5.597   0.977   0.678  1.0366  0.6589  0.8077
 2750TIP3   OH2 8194   5.237   1.561   0.290  0.0263 -0.4108 -1.2553
 2750TIP3    H1 8195   5.176   1.555   0.363 -0.6104 -0.8288 -1.8231
 2750TIP3    H2 8196   5.299   1.630   0.316 -0.7602  0.1054 -0.7477
 2751TIP3   OH2 8197   5.981   0.952   3.073 -0.6454  0.0028  0.2472
 2751TIP3    H1 8198   6.054   0.979   3.017 -0.0762  0.0911  1.0225
 2751TIP3    H2 8199   6.020   0.943   3.160 -1.4633 -0.4066  0.5757
 2752TIP3   OH2 8200   4.995   2.080   2.347 -0.1662 -0.1230 -0.4440
 2752TIP3    H1 8201   4.903   2.072   2.325  0.2409 -1.1110 -1.8791
 2752TIP3    H2 8202   5.004   2.168   2.382 -1.6204  0.0405 -0.4635
 2753TIP3   OH2 8203   3.633   2.986   2.150  0.0035 -0.4133  0.1180
 2753TIP3    H1 8204   3.538   2.970   2.145 -0.5596  2.4172  0.8418
 2753TIP3    H2 8205   3.642   3.050   2.220  2.1785  1.3475 -1.6956
 2754TIP3   OH2 8206   5.037   3.132   1.515 -0.1243  0.1483  1.2057
 2754TIP3    H1 8207   5.024   3.052   1.463 -1.8974  0.9825  0.3229
 2754TIP3    H2 8208   5.124   3.164   1.488 -0.9444  0.4803 -1.1804
 2755TIP3   OH2 8209   3.901   1.106   1.957 -0.0519 -0.1521  0.7846
 2755TIP3    H1 8210   3.952   1.186   1.955  0.1163 -0.2631  0.5698
 2755TIP3    H2 8211   3.810   1.135   1.946  0.1680 -0.1272 -1.1344
 2756TIP3   OH2 8212   1.923   2.487   2.485 -0.3334 -0.0359  0.4452
 2756TIP3    H1 8213   2.005   2.447   2.512 -0.2491  0.4365  0.8987
 2756TIP3    H2 8214   1.949   2.561   2.430 -0.4534  0.1464  0.6337
 2757TIP3   OH2 8215   3.627   7.796   3.257  0.0116 -0.2097  0.1042
 2757TIP3    H1 8216   3.695   7.765   3.198 -0.3323 -0.4283 -0.1807
 2757TIP3    H2 8217   3.546   7.793   3.205 -0.5684 -1.8941  1.0732
 2758TIP3   OH2 8218   0.872   7.359   2.209  0.4249  0.1918  0.5073
 2758TIP3    H1 8219   0.930   7.304   2.262  0.0826 -0.5570  0.1062
 2758TIP3    H2 8220   0.919   7.369   2.126 -0.0039 -0.3982  0.1891
 2759TIP3   OH2 8221   3.335   1.193   3.501 -0.2155 -0.2599 -0.0122
 2759TIP3    H1 8222   3.367   1.249   3.572  0.6195  0.5287 -0.9899
 2759TIP3    H2 8223   3.243   1.216   3.493  0.0611  0.8259 -0.2432
 2760TIP3   OH2 8224   2.787   0.640   3.530  0.2206  0.2514  0.1898
 2760TIP3    H1 8225   2.822   0.714   3.580 -0.3064 -0.5846  1.8209
 2760TIP3    H2 8226   2.736   0.681   3.460  1.5992  1.4433 -0.1388
 2761TIP3   OH2 8227   4.501   0.650   1.616  0.0054  0.0557  0.0596
 2761TIP3    H1 8228   4.550   0.572   1.589  0.0138  0.1443 -0.1749
 2761TIP3    H2 8229   4.414   0.616   1.638  0.4339 -0.2427  1.3556
 2762TIP3   OH2 8230   2.423   7.821   0.334 -0.0664 -0.1639 -0.3948
 2762TIP3    H1 8231   2.476   7.785   0.263  0.7909  0.4543 -0.0774
 2762TIP3    H2 8232   2.477   7.810   0.412 -1.2415 -1.3616  0.2685
 2763TIP3   OH2 8233   2.216   3.827   3.315 -0.1540 -0.0138  0.3478
 2763TIP3    H1 8234   2.191   3.826   3.407 -0.5033  1.5131  0.2826
 2763TIP3    H2 8235   2.133   3.826   3.267  0.0298 -1.0777  0.0389
 2764TIP3   OH2 8236   5.993   1.039   2.573 -1.0423 -0.2049 -0.4381
 2764TIP3    H1 8237   6.016   1.028   2.480 -0.3346  2.9166 -0.6948
 2764TIP3    H2 8238   5.900   1.061   2.572 -0.6622  1.4088 -0.5386
 2765TIP3   OH2 8239   6.959   0.761   4.402  0.5420 -0.3144  0.4835
 2765TIP3    H1 8240   7.054   0.748   4.402  0.4485 -1.1469 -0.9439
 2765TIP3    H2 8241   6.936   0.766   4.309 -0.7883  0.0179  0.8290
 2766TIP3   OH2 8242   6.858   4.548   2.274 -0.9216  0.4998 -0.1624
 2766TIP3    H1 8243   6.832   4.637   2.300 -0.3553  0.7729 -0.5166
 2766TIP3    H2 8244   6.881   4.505   2.357  0.0522  1.0998 -0.1113
 2767TIP3   OH2 8245   3.006   3.774   1.002  0.4078 -0.6029 -1.0300
 2767TIP3    H1 8246   3.053   3.830   0.940  1.4300 -1.0748 -0.6737
 2767TIP3    H2 8247   2.916   3.806   0.998  1.0727  1.3940 -0.4797
 2768TIP3   OH2 8248   1.767   1.407   0.728 -0.7724  0.4511 -0.3306
 2768TIP3    H1 8249   1.801   1.324   0.763 -0.1721  0.2392 -1.3792
 2768TIP3    H2 8250   1.846   1.458   0.707 -1.0987  0.5216 -1.4528
 2769TIP3   OH2 8251   5.598   2.428   4.080 -0.3714 -0.0934  0.0358
 2769TIP3    H1 8252   5.569   2.345   4.118 -0.4273  0.2105  0.6527
 2769TIP3    H2 8253   5.633   2.478   4.153 -1.9470  1.1218 -0.0135
 2770TIP3   OH2 8254   3.260   2.325   3.644  0.4987 -0.3061 -0.1434
 2770TIP3    H1 8255   3.198   2.255   3.623 -0.7401  0.5480  0.5583
 2770TIP3    H2 8256   3.206   2.393   3.685  1.5329  1.4311 -1.5922
 2771TIP3   OH2 8257   2.821   2.305   4.040 -0.5274  0.1046 -0.0343
 2771TIP3    H1 8258   2.798   2.386   4.086  3.6314  2.7719 -2.4088
 2771TIP3    H2 8259   2.842   2.244   4.110 -3.9529  0.8794  1.8234
 2772TIP3   OH2 8260   3.189   2.388   5.272 -0.2786  0.1695 -0.5930
 2772TIP3    H1 8261   3.162   2.461   5.327  0.5792 -1.0270  1.5165
 2772TIP3    H2 8262   3.118   2.377   5.209 -1.9437  0.7608  1.1309
 2773TIP3   OH2 8263   4.809   2.519   3.300  0.6679 -0.4063  0.1766
 2773TIP3    H1 8264   4.898   2.537   3.269  0.1502 -0.4747 -1.4332
 2773TIP3    H2 8265   4.773   2.604   3.323  0.8010 -0.2459 -0.2017
 2774TIP3   OH2 8266   3.843   1.312   2.319 -0.2705 -0.4924 -0.2453
 2774TIP3    H1 8267   3.937   1.329   2.307 -0.2975 -0.0706  0.1153
 2774TIP3    H2 8268   3.830   1.314   2.414 -0.7396 -0.0121 -0.3147
 2775TIP3   OH2 8269   4.776   3.948   3.803  0.2892 -0.3239  0.7719
 2775TIP3    H1 8270   4.830   4.006   3.749 -0.8894 -0.8883 -1.0306
 2775TIP3    H2 8271   4.733   4.007   3.865  1.1066  0.4163  0.6447
 2776TIP3   OH2 8272   4.267   2.798   3.378 -0.1036  0.7636 -0.2301
 2776TIP3    H1 8273   4.337   2.860   3.395  0.5452 -0.2550  0.8711
 2776TIP3    H2 8274   4.312   2.714   3.363 -1.1243 -0.3265  2.4126
 2777TIP3   OH2 8275   6.758   5.572   6.445 -0.1427  0.7057  0.1449
 2777TIP3    H1 8276   6.808   5.634   6.498 -0.9899  0.1748  1.5622
 2777TIP3    H2 8277   6.743   5.498   6.502  1.1344 -0.9903 -1.6449
 2778TIP3   OH2 8278   3.987   2.145   3.018 -1.0313  0.1036  0.2116
 2778TIP3    H1 8279   4.010   2.061   3.056  0.5328 -0.6963 -2.3799
 2778TIP3    H2 8280   3.902   2.130   2.976 -0.4035 -0.4014 -0.8891
 2779TIP3   OH2 8281   1.735   1.262   2.486 -1.0301 -0.8092  0.5513
 2779TIP3    H1 8282   1.807   1.248   2.547 -0.9715 -0.3446  0.5911
 2779TIP3    H2 8283   1.770   1.323   2.421 -1.8184  0.5054  1.3340
 2780TIP3   OH2 8284   4.777   3.469   2.120  0.6936 -0.0827 -0.0271
 2780TIP3    H1 8285   4.772   3.458   2.025 -0.6316  2.7779 -0.3720
 2780TIP3    H2 8286   4.859   3.516   2.135  0.1149  0.9159  0.0556
 2781TIP3   OH2 8287   1.549   2.208   2.572  0.3597  0.2842  0.1302
 2781TIP3    H1 8288   1.523   2.272   2.638  1.8210  0.1222  0.8910
 2781TIP3    H2 8289   1.537   2.253   2.489  0.9592  1.4055  0.6408
 2782TIP3   OH2 8290   5.967   2.697   0.905  0.2630  0.9409  0.2375
 2782TIP3    H1 8291   5.988   2.713   0.997  3.2009  0.3361 -0.2682
 2782TIP3    H2 8292   6.042   2.648   0.872 -0.1546  2.2788 -2.8340
 2783TIP3   OH2 8293   2.590   1.561   4.567 -0.1368 -0.0036  0.1768
 2783TIP3    H1 8294   2.508   1.583   4.522 -1.1117 -1.0273  1.3923
 2783TIP3    H2 8295   2.573   1.584   4.658  1.4086  0.9739  0.2223
 2784TIP3   OH2 8296   3.917   2.500   2.137 -0.2738  0.2419  0.8580
 2784TIP3    H1 8297   3.830   2.527   2.166 -0.6136 -0.3622  0.4196
 2784TIP3    H2 8298   3.900   2.444   2.061  0.4877 -0.0386  0.8951
 2785TIP3   OH2 8299   3.728   3.075   3.592 -0.0148 -0.0383 -0.0842
 2785TIP3    H1 8300   3.722   3.059   3.686  1.0303  0.4123  0.0666
 2785TIP3    H2 8301   3.796   3.015   3.562 -0.5209 -0.3597 -0.5998
 2786TIP3   OH2 8302   1.318   4.618   6.557 -0.1504 -0.3728 -0.0255
 2786TIP3    H1 8303   1.255   4.690   6.558 -0.0944 -0.3069 -0.8847
 2786TIP3    H2 8304   1.270   4.544   6.520  0.0496 -0.5340  0.0348
 2787TIP3   OH2 8305   3.408   2.500   3.085 -0.3082  0.1732 -0.7706
 2787TIP3    H1 8306   3.421   2.533   3.174 -0.6518  0.5522 -0.8569
 2787TIP3    H2 8307   3.461   2.558   3.030 -0.1861  0.0095 -0.8265
 2788TIP3   OH2 8308   4.160   0.967   1.631  0.4217 -0.3205 -0.4434
 2788TIP3    H1 8309   4.234   1.023   1.607 -1.2706  1.5606 -1.4550
 2788TIP3    H2 8310   4.140   0.918   1.552  1.5735 -2.0181  0.2952
 2789TIP3   OH2 8311   4.288   2.792   1.501 -0.0358  0.1314 -0.1563
 2789TIP3    H1 8312   4.243   2.721   1.455 -1.0696  0.6697  0.0028
 2789TIP3    H2 8313   4.379   2.785   1.472  0.2288 -2.2767  1.1164
 2790TIP3   OH2 8314   5.213   2.489   2.792  0.6416 -0.2426 -0.4704
 2790TIP3    H1 8315   5.285   2.508   2.731  1.8925 -1.6952  0.4964
 2790TIP3    H2 8316   5.241   2.409   2.836 -0.8560  0.0774  1.0797
 2791TIP3   OH2 8317   4.803   1.933   3.374 -0.2601  0.2954 -0.0779
 2791TIP3    H1 8318   4.821   1.870   3.304 -1.0391  0.8654 -0.8035
 2791TIP3    H2 8319   4.768   2.009   3.329 -0.6693  0.7142  0.9296
 2792TIP3   OH2 8320   5.345   0.666   1.776  0.4807 -0.1502 -0.3176
 2792TIP3    H1 8321   5.298   0.743   1.743  0.1005 -0.6484 -0.9393
 2792TIP3    H2 8322   5.348   0.679   1.871 -1.0069 -0.1739 -0.2635
 2793TIP3   OH2 8323   6.445   1.272   3.149  0.3315  0.0222 -0.3376
 2793TIP3    H1 8324   6.395   1.218   3.211 -0.2799 -0.1144 -0.9482
 2793TIP3    H2 8325   6.510   1.211   3.113 -0.0167 -0.1722 -0.6372
 2794TIP3   OH2 8326   4.693   1.094   4.607 -0.4236  0.2798 -0.9723
 2794TIP3    H1 8327   4.703   1.097   4.702  0.9547  0.9808 -1.1320
 2794TIP3    H2 8328   4.630   1.163   4.587  0.2192  0.9635 -0.6762
 2795TIP3   OH2 8329   7.423   4.019   2.829 -0.1484 -0.3367  0.0851
 2795TIP3    H1 8330   7.485   4.056   2.892  0.3005 -2.2191  0.7990
 2795TIP3    H2 8331   7.439   3.924   2.833 -0.9203 -0.5811 -2.0106
 2796TIP3   OH2 8332   4.070   2.039   4.576  0.2746  0.1084  0.1353
 2796TIP3    H1 8333   4.011   2.094   4.628  0.2484  0.4561 -0.2626
 2796TIP3    H2 8334   4.157   2.075   4.593  0.1323  1.0780 -1.1150
 2797TIP3   OH2 8335   3.402   1.400   3.665 -0.4239 -0.0213 -0.0648
 2797TIP3    H1 8336   3.477   1.459   3.663  0.3930 -1.0554 -0.7789
 2797TIP3    H2 8337   3.335   1.447   3.715  0.3354  1.3338 -0.3107
 2798TIP3   OH2 8338   4.360   7.388   4.478 -0.5384  0.4620 -0.0851
 2798TIP3    H1 8339   4.289   7.371   4.539  0.0954  0.8871  0.7992
 2798TIP3    H2 8340   4.378   7.482   4.488  0.3416  0.2986 -0.0669
 2799TIP3   OH2 8341   4.321   3.700   4.383 -0.4396  0.2633  0.1653
 2799TIP3    H1 8342   4.391   3.640   4.408  1.1083  1.6479 -0.7017
 2799TIP3    H2 8343   4.256   3.645   4.341  0.4140 -0.9728  0.4255
 2800TIP3   OH2 8344   3.717   1.468   1.814 -0.5659 -0.2142  0.0727
 2800TIP3    H1 8345   3.775   1.410   1.862  0.2245  1.6076  1.4000
 2800TIP3    H2 8346   3.765   1.491   1.734 -1.7479 -2.9896 -1.4931
 2801TIP3   OH2 8347   4.502   2.253   1.928 -0.2272 -0.4689  0.4232
 2801TIP3    H1 8348   4.538   2.183   1.983  0.7168 -0.0592  0.3500
 2801TIP3    H2 8349   4.524   2.228   1.839  0.4810  0.1198  0.4278
 2802TIP3   OH2 8350   2.352   1.538   4.102 -0.2604 -0.1462 -0.5574
 2802TIP3    H1 8351   2.337   1.624   4.061 -1.0759 -0.9584 -2.0224
 2802TIP3    H2 8352   2.416   1.555   4.171 -0.9721  1.7706 -0.3364
 2803TIP3   OH2 8353   4.899   1.851   4.729  0.0333 -0.2641  0.4767
 2803TIP3    H1 8354   4.960   1.891   4.792  0.0451 -1.4466  1.2184
 2803TIP3    H2 8355   4.916   1.757   4.735  0.5815 -0.3477 -1.8758
 2804TIP3   OH2 8356   5.373   3.677   4.076 -0.0048 -0.1148 -0.5530
 2804TIP3    H1 8357   5.362   3.742   4.007 -1.2233 -0.2177 -0.4708
 2804TIP3    H2 8358   5.372   3.593   4.030 -0.1167 -0.1496 -0.4888
 2805TIP3   OH2 8359   4.518   1.480   4.200 -0.1405  0.1314 -0.0699
 2805TIP3    H1 8360   4.586   1.469   4.267  1.5162  1.5061 -1.4891
 2805TIP3    H2 8361   4.456   1.541   4.240  0.4891  0.4340  0.4640
 2806TIP3   OH2 8362   3.974   0.116   3.631 -0.9310  0.5021  0.0278
 2806TIP3    H1 8363   4.041   0.087   3.568 -0.8729 -1.6540  1.0246
 2806TIP3    H2 8364   3.954   0.206   3.605 -0.7550 -0.2499 -2.9622
 2807TIP3   OH2 8365   4.493   1.960   0.549 -0.5966 -0.1494 -0.5640
 2807TIP3    H1 8366   4.441   1.961   0.629  1.0994 -0.7824  0.5750
 2807TIP3    H2 8367   4.472   1.877   0.507  0.5890 -1.0953  0.6572
 2808TIP3   OH2 8368   7.095   3.203   2.732  0.3254 -0.1720 -0.0624
 2808TIP3    H1 8369   7.017   3.176   2.781  0.0520 -1.0797 -0.9779
 2808TIP3    H2 8370   7.165   3.146   2.764  0.2675 -0.3976 -0.3345
 2809TIP3   OH2 8371   6.219   4.484   3.210 -0.4891 -0.1393  0.9012
 2809TIP3    H1 8372   6.129   4.480   3.241 -1.2268 -1.3499 -1.3077
 2809TIP3    H2 8373   6.238   4.578   3.204 -2.3270  0.1633 -0.5858
 2810TIP3   OH2 8374   5.930   4.625   2.850  0.7134 -0.5425  0.5111
 2810TIP3    H1 8375   5.860   4.690   2.847 -0.0823 -1.4258 -0.8078
 2810TIP3    H2 8376   5.899   4.560   2.914  1.6820  0.5458  2.1124
 2811TIP3   OH2 8377   3.733   0.458   1.369 -0.4306 -0.9487  0.6193
 2811TIP3    H1 8378   3.658   0.403   1.346  0.2456 -2.2570  1.5130
 2811TIP3    H2 8379   3.724   0.473   1.463 -0.3701  0.1125  0.4607
 2812TIP3   OH2 8380   3.173   7.886   0.402  0.7669 -0.0589  0.0090
 2812TIP3    H1 8381   3.168   7.930   0.317  0.3831 -0.7641 -0.3367
 2812TIP3    H2 8382   3.153   7.795   0.383  2.0848 -0.4904  0.6516
 2813TIP3   OH2 8383   4.469   2.924   2.266 -0.2847 -0.1544  0.1400
 2813TIP3    H1 8384   4.473   2.916   2.170  0.1496  0.5760  0.0924
 2813TIP3    H2 8385   4.457   3.018   2.282  1.3194 -0.0485  0.8372
 2814TIP3   OH2 8386   2.902   0.764   2.554  0.0338  0.1364  0.4023
 2814TIP3    H1 8387   2.902   0.752   2.459  1.9954 -2.3244  0.6655
 2814TIP3    H2 8388   2.885   0.677   2.590  1.3839  0.6251  2.3267
 2815TIP3   OH2 8389   6.206   1.287   2.482 -0.0512 -0.5492 -0.5732
 2815TIP3    H1 8390   6.246   1.201   2.492 -0.4839 -0.6371  0.4258
 2815TIP3    H2 8391   6.251   1.342   2.547 -0.4584 -0.2646 -0.5275
 2816TIP3   OH2 8392   5.908   1.643   3.352 -0.1394  0.5740  0.5649
 2816TIP3    H1 8393   5.864   1.726   3.367 -1.0478  0.2930 -0.4692
 2816TIP3    H2 8394   6.000   1.667   3.336 -0.0850  1.2325  1.7995
 2817TIP3   OH2 8395   5.431   1.233   0.987  0.7189 -0.0424  0.5477
 2817TIP3    H1 8396   5.474   1.303   1.036  0.5417 -0.5058  1.3601
 2817TIP3    H2 8397   5.497   1.164   0.982  0.8792  0.1596 -0.2196
 2818TIP3   OH2 8398   4.454   2.214   1.148  0.0559 -0.2716  0.6234
 2818TIP3    H1 8399   4.364   2.180   1.153  0.4493 -1.6837 -1.2544
 2818TIP3    H2 8400   4.451   2.281   1.080  0.5330 -0.7572  0.1125
 2819TIP3   OH2 8401   6.325   1.360   4.130 -0.2170  0.7641 -0.1390
 2819TIP3    H1 8402   6.254   1.396   4.078 -2.4063 -0.9242  1.5810
 2819TIP3    H2 8403   6.294   1.274   4.158  2.1179  0.3636  1.4253
 2820TIP3   OH2 8404   2.296   1.750   2.369 -0.4404 -0.4897  0.0990
 2820TIP3    H1 8405   2.209   1.792   2.368  0.0423  0.5609  1.3473
 2820TIP3    H2 8406   2.314   1.733   2.461  0.2675 -1.6080 -0.2357
 2821TIP3   OH2 8407   4.510   2.674   2.830 -0.1327 -0.2757 -0.3929
 2821TIP3    H1 8408   4.502   2.766   2.857  1.2797 -0.2093 -0.1752
 2821TIP3    H2 8409   4.540   2.679   2.739 -0.4027 -0.5224 -0.4947
 2822TIP3   OH2 8410   5.263   1.956   3.382  0.9553  0.3450 -0.1649
 2822TIP3    H1 8411   5.283   1.862   3.377 -1.4905 -0.2398  0.1889
 2822TIP3    H2 8412   5.212   1.965   3.462  1.2140  2.0009 -0.1852
 2823TIP3   OH2 8413   3.615   1.482   2.834  0.0767  0.6955  0.2399
 2823TIP3    H1 8414   3.540   1.446   2.881 -1.0179  1.0790 -1.1890
 2823TIP3    H2 8415   3.652   1.407   2.787  0.9842  0.3787  1.4123
 2824TIP3   OH2 8416   2.787   1.843   3.634 -0.4671  0.0918 -0.3545
 2824TIP3    H1 8417   2.784   1.777   3.565 -0.1930  1.0107 -1.2594
 2824TIP3    H2 8418   2.700   1.841   3.673  0.1248 -2.1657  0.9330
 2825TIP3   OH2 8419   5.612   3.295   1.658  0.2090  0.5473  0.6296
 2825TIP3    H1 8420   5.655   3.242   1.591 -1.4922  2.3356 -1.9897
 2825TIP3    H2 8421   5.588   3.233   1.726  0.8014 -1.5635 -1.0224
 2826TIP3   OH2 8422   4.027   0.771   3.849 -0.4529 -0.4872 -0.2288
 2826TIP3    H1 8423   4.055   0.708   3.915 -1.4064 -0.3233  0.3233
 2826TIP3    H2 8424   4.008   0.851   3.898 -0.0737 -0.0217 -0.8315
 2827TIP3   OH2 8425   3.061   7.857   2.305  0.2273  0.2295 -0.1869
 2827TIP3    H1 8426   3.045   7.875   2.212  0.8668 -0.2559 -0.3924
 2827TIP3    H2 8427   3.118   7.928   2.334 -1.1580  1.1941  0.2027
 2828TIP3   OH2 8428   2.339   0.435   2.718 -0.2679  0.2629  0.4867
 2828TIP3    H1 8429   2.290   0.355   2.698  2.1562 -0.6966 -1.8318
 2828TIP3    H2 8430   2.413   0.406   2.771  0.4422  1.0255 -0.0847
 2829TIP3   OH2 8431   4.360   1.261   1.983  0.6525 -0.0725 -0.4768
 2829TIP3    H1 8432   4.432   1.202   1.958  0.5026 -0.6613  0.4845
 2829TIP3    H2 8433   4.298   1.205   2.030  0.7296  0.9436  0.8399
 2830TIP3   OH2 8434   5.480   0.507   1.446  0.0177  0.0968 -0.3225
 2830TIP3    H1 8435   5.523   0.498   1.531  2.2192 -2.7965 -1.6265
 2830TIP3    H2 8436   5.533   0.571   1.399 -1.0855  1.5506  0.3840
 2831TIP3   OH2 8437   1.983   3.674   2.810  0.4302 -0.2170 -0.0336
 2831TIP3    H1 8438   1.901   3.627   2.791  0.4076 -1.3543  2.5933
 2831TIP3    H2 8439   1.979   3.752   2.756 -1.5488 -1.1735 -1.3261
 2832TIP3   OH2 8440   1.250   3.149   2.943  0.2542  0.3183  1.0464
 2832TIP3    H1 8441   1.221   3.151   2.852 -1.8137  0.4929  1.6823
 2832TIP3    H2 8442   1.172   3.120   2.992  1.8579 -1.5956  2.5477
 2833TIP3   OH2 8443   4.369   2.069   4.620  0.0908  0.2449  0.2937
 2833TIP3    H1 8444   4.328   2.152   4.598 -1.3329  0.1342  2.3361
 2833TIP3    H2 8445   4.453   2.093   4.658 -1.1683  0.9397  2.7996
 2834TIP3   OH2 8446   6.022   1.904   3.243 -0.3703 -0.0086 -0.7807
 2834TIP3    H1 8447   6.070   1.986   3.257  0.7444 -1.0740  2.0359
 2834TIP3    H2 8448   6.077   1.854   3.183  0.1210  0.3809 -0.6596
 2835TIP3   OH2 8449   3.716   1.386   3.199 -0.5487 -0.1765 -0.2253
 2835TIP3    H1 8450   3.767   1.456   3.240 -0.1832 -0.8847  0.5490
 2835TIP3    H2 8451   3.650   1.363   3.265 -0.9520 -0.2577 -0.6541
 2836TIP3   OH2 8452   5.651   4.158   2.395 -0.7271  0.7159 -0.6633
 2836TIP3    H1 8453   5.671   4.131   2.305 -1.0659 -1.5073 -0.1096
 2836TIP3    H2 8454   5.601   4.085   2.431 -0.3029  1.4294  1.4423
 2837TIP3   OH2 8455   1.782   0.769   2.337 -0.1709 -0.0228 -0.1689
 2837TIP3    H1 8456   1.688   0.759   2.354 -0.3074 -1.0819 -1.4354
 2837TIP3    H2 8457   1.794   0.864   2.327 -1.0843  0.1333  0.1273
 2838TIP3   OH2 8458   4.227   2.886   4.060 -0.6661  0.2532  0.1705
 2838TIP3    H1 8459   4.242   2.961   4.117  1.1958  0.6575 -0.8101
 2838TIP3    H2 8460   4.216   2.924   3.972 -0.4909 -0.5518 -0.2037
 2839TIP3   OH2 8461   3.266   2.250   2.062  0.4371 -0.5186  0.3375
 2839TIP3    H1 8462   3.324   2.233   1.989  1.5265  1.6718  0.6538
 2839TIP3    H2 8463   3.290   2.337   2.093 -1.8783 -0.2535  1.5441
 2840TIP3   OH2 8464   5.258   4.660   3.245 -0.2269  0.5586 -0.1077
 2840TIP3    H1 8465   5.268   4.660   3.340 -0.8558  0.5032 -0.0340
 2840TIP3    H2 8466   5.273   4.751   3.219  5.4277 -0.3352 -0.6152
 2841TIP3   OH2 8467   3.299   3.183   1.434  0.3011 -0.7810 -0.6356
 2841TIP3    H1 8468   3.289   3.205   1.526  0.2044 -2.7403 -0.1616
 2841TIP3    H2 8469   3.379   3.130   1.430  1.5039  1.0344 -2.0049
 2842TIP3   OH2 8470   4.976   0.416   1.814  0.4909 -0.1850 -0.5924
 2842TIP3    H1 8471   5.014   0.332   1.787  1.6908  0.0983  0.1672
 2842TIP3    H2 8472   4.887   0.394   1.843  0.0452 -0.8600 -2.4087
 2843TIP3   OH2 8473   3.847   2.662   2.619  0.1220 -0.3533  0.3007
 2843TIP3    H1 8474   3.883   2.709   2.545 -0.0319  0.7166  0.8947
 2843TIP3    H2 8475   3.752   2.668   2.608  0.0976 -1.5803 -0.2716
 2844TIP3   OH2 8476   4.547   1.081   1.904  0.2851 -0.4253  1.0967
 2844TIP3    H1 8477   4.636   1.116   1.898  1.3877 -3.1756  0.8260
 2844TIP3    H2 8478   4.529   1.046   1.817 -2.2747  2.7307  0.2251
 2845TIP3   OH2 8479   6.839   0.402   2.100  0.5415 -0.5721 -0.3596
 2845TIP3    H1 8480   6.931   0.417   2.124  0.6069  1.1041 -1.6059
 2845TIP3    H2 8481   6.821   0.466   2.031 -1.7602 -0.4486  0.3089
 2846TIP3   OH2 8482   7.517   2.259   6.623  0.3584  0.0570  0.4265
 2846TIP3    H1 8483   7.531   2.248   6.717 -0.8414  0.2488  0.6416
 2846TIP3    H2 8484   7.502   2.353   6.611  1.1077  0.1169 -0.0397
 2847TIP3   OH2 8485   3.936   1.830   0.218 -0.3909 -0.8384  0.4000
 2847TIP3    H1 8486   3.913   1.742   0.187  0.3313 -0.8430 -0.1338
 2847TIP3    H2 8487   3.860   1.858   0.269 -1.9326 -0.5480 -1.9500
 2848TIP3   OH2 8488   0.257   1.112   2.662 -0.2084 -0.4729 -0.3627
 2848TIP3    H1 8489   0.325   1.175   2.684  0.6436 -1.8965  1.1962
 2848TIP3    H2 8490   0.297   1.027   2.680 -2.4081 -1.3241  0.6299
 2849TIP3   OH2 8491   1.520   7.502   2.452  0.5329 -0.3364  0.4287
 2849TIP3    H1 8492   1.574   7.433   2.490  1.3118  0.0650  0.0393
 2849TIP3    H2 8493   1.533   7.578   2.510 -1.5144 -0.9317  1.7653
 2850TIP3   OH2 8494   4.505   2.264   2.556  0.3020 -0.4931 -0.2183
 2850TIP3    H1 8495   4.509   2.299   2.645 -0.8724 -2.1098  0.4809
 2850TIP3    H2 8496   4.536   2.336   2.501  3.4234 -0.2715  1.6973
 2851TIP3   OH2 8497   7.170   2.566   3.034  0.0604  0.0580  0.6186
 2851TIP3    H1 8498   7.086   2.606   3.010 -1.0304 -1.2852  2.0683
 2851TIP3    H2 8499   7.175   2.577   3.129  1.4918  0.0348  0.5516
 2852TIP3   OH2 8500   3.511   2.232   2.696  0.2372 -0.2526  0.1634
 2852TIP3    H1 8501   3.515   2.137   2.689 -2.4819 -0.4246  0.3030
 2852TIP3    H2 8502   3.600   2.262   2.675  0.6671 -2.7056 -1.7351
 2853TIP3   OH2 8503   2.116   0.311   1.806  0.2452 -0.0763 -0.5718
 2853TIP3    H1 8504   2.109   0.260   1.887 -2.4600  0.2994 -0.5439
 2853TIP3    H2 8505   2.207   0.340   1.804  0.3188  0.0329  2.4288
 2854TIP3   OH2 8506   5.427   1.825   1.748 -0.5171  0.1429  0.4759
 2854TIP3    H1 8507   5.411   1.881   1.672 -0.7753  0.5263  0.8153
 2854TIP3    H2 8508   5.510   1.856   1.784 -1.3341  1.2100  1.4721
 2855TIP3   OH2 8509   6.140   1.587   4.100  0.4743 -0.0123 -0.6326
 2855TIP3    H1 8510   6.079   1.645   4.146  0.6998 -0.7671  0.6528
 2855TIP3    H2 8511   6.130   1.609   4.008 -0.3013  1.2457 -0.2522
 2856TIP3   OH2 8512   6.288   2.419   3.032 -0.5148  0.3469  0.1754
 2856TIP3    H1 8513   6.201   2.460   3.039 -0.8722 -0.5449  1.0138
 2856TIP3    H2 8514   6.291   2.385   2.943 -1.5566 -0.8094  0.5750
 2857TIP3   OH2 8515   3.798   1.405   4.716  0.2722 -0.2672  0.0532
 2857TIP3    H1 8516   3.706   1.422   4.695  0.1460 -0.5664  0.3539
 2857TIP3    H2 8517   3.803   1.416   4.811 -0.1888 -3.6156  0.5059
 2858TIP3   OH2 8518   4.593   1.505   3.761  0.1225 -0.3062  0.4928
 2858TIP3    H1 8519   4.636   1.420   3.763 -0.0906 -0.4095  0.6377
 2858TIP3    H2 8520   4.502   1.488   3.785  0.3921  0.1462  1.8794
 2859TIP3   OH2 8521   3.918   1.462   0.788  0.1266 -0.1812  0.0354
 2859TIP3    H1 8522   3.860   1.501   0.722 -0.3876 -0.1108  0.5217
 2859TIP3    H2 8523   3.894   1.506   0.870 -0.0578 -1.0939  0.4862
 2860TIP3   OH2 8524   4.728   0.993   2.872  0.0573 -0.4095  0.3260
 2860TIP3    H1 8525   4.639   0.959   2.857 -0.1813  0.3564  0.0211
 2860TIP3    H2 8526   4.785   0.917   2.856 -0.5417 -0.9076  0.5376
 2861TIP3   OH2 8527   2.382   3.258   5.671 -0.0189  0.2448  0.6264
 2861TIP3    H1 8528   2.477   3.256   5.653 -0.1828 -0.0575 -0.2234
 2861TIP3    H2 8529   2.344   3.297   5.593 -0.9597 -2.9438 -0.5851
 2862TIP3   OH2 8530   7.119   1.475   3.554  0.3040  0.1639 -0.3469
 2862TIP3    H1 8531   7.145   1.555   3.509  0.6557  0.9914  1.3169
 2862TIP3    H2 8532   7.079   1.504   3.635  0.1923 -1.3413  0.1572
 2863TIP3   OH2 8533   5.953   2.910   3.187 -0.6646  0.7735  0.3048
 2863TIP3    H1 8534   5.918   2.852   3.255 -0.3903  1.5521  1.1168
 2863TIP3    H2 8535   5.893   2.984   3.185  0.4627  1.7053  1.1042
 2864TIP3   OH2 8536   4.546   2.360   1.584 -0.1773  0.0200  0.0085
 2864TIP3    H1 8537   4.636   2.350   1.555  0.5260 -0.1155  2.1101
 2864TIP3    H2 8538   4.497   2.385   1.506  1.4621 -1.0965 -1.4031
 2865TIP3   OH2 8539   6.111   3.896   1.812 -0.8176  1.0250 -0.1672
 2865TIP3    H1 8540   6.066   3.926   1.734 -0.8036  1.9147  0.1641
 2865TIP3    H2 8541   6.192   3.947   1.813 -1.6887  2.4045  1.4592
 2866TIP3   OH2 8542   5.501   3.387   2.524  0.0963  0.2035  0.0911
 2866TIP3    H1 8543   5.562   3.458   2.503  0.5909  0.4176  2.1249
 2866TIP3    H2 8544   5.556   3.319   2.564 -0.4139 -1.2261 -1.5888
 2867TIP3   OH2 8545   4.967   4.001   2.113  0.4518 -0.4093  0.1665
 2867TIP3    H1 8546   4.943   4.072   2.053  2.3144  0.2689  0.1743
 2867TIP3    H2 8547   4.964   3.922   2.060  1.4279  0.0997 -0.6691
 2868TIP3   OH2 8548   4.368   2.563   0.282  0.3044  0.2174 -0.3593
 2868TIP3    H1 8549   4.413   2.507   0.219  1.0518 -0.2615  0.5962
 2868TIP3    H2 8550   4.318   2.502   0.337  0.7978  0.5203  0.4267
 2869TIP3   OH2 8551   5.538   3.087   3.305 -0.6375  0.0724  0.1587
 2869TIP3    H1 8552   5.444   3.094   3.322 -0.3286 -0.1748  2.1142
 2869TIP3    H2 8553   5.564   3.007   3.349  1.0741  1.8098  2.4163
 2870TIP3   OH2 8554   3.787   0.198   2.113  0.4221 -0.4403  0.3944
 2870TIP3    H1 8555   3.725   0.259   2.153 -2.1679 -0.8100 -2.8048
 2870TIP3    H2 8556   3.778   0.118   2.164 -1.8168 -0.4889 -0.0219
 2871TIP3   OH2 8557   5.041   1.042   1.506  0.2408 -0.4897  0.2265
 2871TIP3    H1 8558   5.117   1.068   1.453 -0.0696  0.5564  0.2999
 2871TIP3    H2 8559   4.996   1.124   1.526 -1.2534 -1.1592 -0.3313
 2872TIP3   OH2 8560   5.562   1.127   3.998 -0.1367  0.4756 -0.1992
 2872TIP3    H1 8561   5.625   1.174   4.052  0.3531  1.5405 -1.6516
 2872TIP3    H2 8562   5.598   1.132   3.909 -2.1258  0.9189 -1.0319
 2873TIP3   OH2 8563   6.182   1.873   0.856  0.1884 -0.0611  0.1617
 2873TIP3    H1 8564   6.115   1.896   0.791  0.3084 -0.7802 -0.2214
 2873TIP3    H2 8565   6.133   1.867   0.938 -0.2628 -0.7699 -0.1494
 2874TIP3   OH2 8566   5.877   3.234   2.905 -0.1988  0.4367  0.1174
 2874TIP3    H1 8567   5.841   3.322   2.921 -0.4146  0.5218 -0.7924
 2874TIP3    H2 8568   5.801   3.177   2.906 -0.5467  0.7535 -2.8398
 2875TIP3   OH2 8569   6.374   3.535   2.827  0.4573 -0.4208  0.0768
 2875TIP3    H1 8570   6.388   3.602   2.761 -2.9775  0.4011  0.0414
 2875TIP3    H2 8571   6.361   3.454   2.778  0.6720 -0.3384 -0.1116
 2876TIP3   OH2 8572   6.370   3.005   1.828 -0.8768 -0.0655  0.4442
 2876TIP3    H1 8573   6.432   2.948   1.874 -0.6437 -0.1455  0.0343
 2876TIP3    H2 8574   6.308   3.032   1.896 -1.4728 -1.4558  0.4839
 2877TIP3   OH2 8575   6.739   3.346   1.563  0.3674 -0.4242  0.3285
 2877TIP3    H1 8576   6.680   3.271   1.559  0.2431 -0.3115  0.0264
 2877TIP3    H2 8577   6.826   3.310   1.546  0.2160 -0.3919 -0.5317
 2878TIP3   OH2 8578   4.940   1.294   1.612  0.4587  0.2855  0.5445
 2878TIP3    H1 8579   4.923   1.345   1.692  1.9589  2.1208 -0.2560
 2878TIP3    H2 8580   4.860   1.305   1.560  1.2038  2.7994 -0.1064
 2879TIP3   OH2 8581   0.986   7.823   6.730  0.0757  0.1564 -0.3651
 2879TIP3    H1 8582   1.015   7.903   6.686 -0.1969  0.3256 -0.2419
 2879TIP3    H2 8583   0.942   7.853   6.810  1.2530 -0.1933  0.4219
 2880TIP3   OH2 8584   5.438   2.596   3.133  0.0186  0.6851 -0.2736
 2880TIP3    H1 8585   5.344   2.613   3.132 -0.1001  0.0351 -0.2919
 2880TIP3    H2 8586   5.478   2.683   3.132 -0.5614  0.9524 -1.5093
 2881TIP3   OH2 8587   0.564   1.150   3.291 -0.1778  0.4317 -0.2915
 2881TIP3    H1 8588   0.653   1.175   3.318 -0.2172  2.2689 -1.7468
 2881TIP3    H2 8589   0.570   1.144   3.196 -1.7792  1.2671 -0.4551
 2882TIP3   OH2 8590   5.476   2.505   2.720 -0.0155  0.3529  0.3868
 2882TIP3    H1 8591   5.547   2.507   2.784  1.2807  0.8668 -1.0467
 2882TIP3    H2 8592   5.503   2.439   2.656 -1.3124 -0.1788  0.3696
 2883TIP3   OH2 8593   5.559   2.178   2.316 -0.2027 -0.2093  0.9319
 2883TIP3    H1 8594   5.578   2.087   2.337 -0.6906 -0.7524 -0.9051
 2883TIP3    H2 8595   5.464   2.180   2.302 -0.3889  0.8505  2.2087
 2884TIP3   OH2 8596   3.702   3.122   3.870 -0.4176  0.3421 -0.2224
 2884TIP3    H1 8597   3.627   3.177   3.893 -0.9257 -0.9294  1.2463
 2884TIP3    H2 8598   3.757   3.123   3.949  1.4195  1.7324 -1.4867
 2885TIP3   OH2 8599   5.844   1.298   2.395 -0.5806  0.1997 -0.4407
 2885TIP3    H1 8600   5.783   1.369   2.415 -1.0726 -0.4017  0.1962
 2885TIP3    H2 8601   5.930   1.340   2.393 -1.1272  1.3120 -2.6234
 2886TIP3   OH2 8602   8.373   2.865   2.661 -0.8360 -0.1714 -0.3336
 2886TIP3    H1 8603   8.281   2.851   2.686 -0.6401 -1.2823 -0.2094
 2886TIP3    H2 8604   8.422   2.806   2.718  0.1793  2.1809  1.3148
 2887TIP3   OH2 8605   4.159   2.713   3.150 -0.2054 -0.3360  0.8046
 2887TIP3    H1 8606   4.190   2.765   3.224 -1.0126  1.0898  0.1676
 2887TIP3    H2 8607   4.064   2.721   3.153 -0.2059  0.5211 -0.9162
 2888TIP3   OH2 8608   5.680   2.920   2.527  0.1571 -0.4719 -0.3196
 2888TIP3    H1 8609   5.726   2.887   2.450  1.1774 -1.5100  0.7030
 2888TIP3    H2 8610   5.599   2.869   2.531 -0.2752  0.1438 -1.1447
 2889TIP3   OH2 8611   6.186   2.007   0.376  0.2343  0.0139 -0.5617
 2889TIP3    H1 8612   6.216   2.081   0.429  0.1875 -1.3118  1.3632
 2889TIP3    H2 8613   6.265   1.973   0.334  0.4537  0.3375 -0.4130
 2890TIP3   OH2 8614   7.422   2.868   1.947  0.5894 -0.4130 -0.2537
 2890TIP3    H1 8615   7.465   2.938   1.897 -0.4973  1.1397  0.9380
 2890TIP3    H2 8616   7.350   2.912   1.992 -0.4395 -2.4204  0.1045
 2891TIP3   OH2 8617   5.896   3.698   1.236 -0.0808  0.3329 -0.3364
 2891TIP3    H1 8618   5.823   3.752   1.266 -1.3122 -2.1241  1.3324
 2891TIP3    H2 8619   5.862   3.608   1.241  2.0930 -0.6449 -2.3750
 2892TIP3   OH2 8620   5.816   1.501   1.315  0.3812  0.5119 -0.0946
 2892TIP3    H1 8621   5.758   1.545   1.377 -0.3932  1.1297 -1.2402
 2892TIP3    H2 8622   5.758   1.445   1.263  0.8640  0.7964 -0.9528
 2893TIP3   OH2 8623   5.715   1.660   1.523  0.1865  0.3306  0.2119
 2893TIP3    H1 8624   5.703   1.627   1.612  0.3579 -2.1343 -0.6222
 2893TIP3    H2 8625   5.793   1.714   1.527 -0.8479  1.7240  1.9289
 2894TIP3   OH2 8626   3.775   2.449   2.893 -0.2322 -0.4621  1.0860
 2894TIP3    H1 8627   3.683   2.472   2.903 -0.1968 -0.4013  1.2860
 2894TIP3    H2 8628   3.815   2.473   2.977 -0.2566 -1.5482  1.4182
 2895TIP3   OH2 8629   7.242   3.534   5.334  0.1696 -0.0693  0.3858
 2895TIP3    H1 8630   7.259   3.628   5.338  1.1299 -0.3297  3.6977
 2895TIP3    H2 8631   7.328   3.495   5.319  0.1217 -0.5261  1.2798
 2896TIP3   OH2 8632   6.850   1.743   2.100  0.1510 -0.9072 -0.7987
 2896TIP3    H1 8633   6.844   1.788   2.184 -0.1807 -0.0039 -1.3021
 2896TIP3    H2 8634   6.835   1.651   2.121  3.3097 -1.1672  0.6181
 2897TIP3   OH2 8635   4.778   2.910   2.122 -0.0001  0.0545 -0.2634
 2897TIP3    H1 8636   4.813   2.898   2.034 -1.0637 -3.2968 -0.3100
 2897TIP3    H2 8637   4.689   2.943   2.108  0.6523  1.8486 -0.3335
 2898TIP3   OH2 8638   5.738   0.919   0.563  0.0256 -0.2173 -0.0082
 2898TIP3    H1 8639   5.770   0.854   0.625 -0.4449 -0.1968  0.2654
 2898TIP3    H2 8640   5.714   0.869   0.485  1.4220 -0.1372 -0.4900
 2899TIP3   OH2 8641   4.455   3.711   5.066  0.4035 -0.0922 -0.0111
 2899TIP3    H1 8642   4.513   3.686   5.138  1.1696  0.1168 -0.5560
 2899TIP3    H2 8643   4.374   3.737   5.109  0.9405  0.2640  0.7923
 2900TIP3   OH2 8644   5.203   1.719   2.102  0.2665 -0.1782 -0.3639
 2900TIP3    H1 8645   5.224   1.799   2.150  1.2029  0.3510 -1.6329
 2900TIP3    H2 8646   5.281   1.665   2.109  0.1031 -0.4515 -0.5993
 2901TIP3   OH2 8647   6.080   2.595   1.723  0.0057 -0.2895 -0.3782
 2901TIP3    H1 8648   6.049   2.647   1.797  0.0019  0.7380 -1.0866
 2901TIP3    H2 8649   6.143   2.652   1.678 -0.4739 -0.6405 -1.5292
 2902TIP3   OH2 8650   3.792   1.339   2.592  0.3547  0.1247  0.2582
 2902TIP3    H1 8651   3.703   1.306   2.581  1.2985 -1.9410 -1.8289
 2902TIP3    H2 8652   3.835   1.275   2.649  0.6569  0.7805  0.7670
 2903TIP3   OH2 8653   5.595   2.561   1.017  0.3949  0.0465  0.3225
 2903TIP3    H1 8654   5.573   2.476   1.055  0.0776 -0.6568 -1.4077
 2903TIP3    H2 8655   5.628   2.612   1.091  0.6800 -1.6055  1.3591
 2904TIP3   OH2 8656   3.763   1.814   2.501 -0.2663  0.4010 -0.3101
 2904TIP3    H1 8657   3.792   1.760   2.428 -0.9191 -0.1972 -0.1400
 2904TIP3    H2 8658   3.668   1.823   2.488 -0.2960  0.7993  0.1321
 2905TIP3   OH2 8659   6.184   2.446   1.089 -0.1517  0.0258  1.1458
 2905TIP3    H1 8660   6.208   2.536   1.067  2.5584 -0.7873  0.6034
 2905TIP3    H2 8661   6.267   2.398   1.090 -1.7291 -2.9087 -0.5022
 2906TIP3   OH2 8662   1.810   6.713   6.927 -0.2911 -0.1641  0.3819
 2906TIP3    H1 8663   1.758   6.734   6.849  0.6552  1.1302  0.0897
 2906TIP3    H2 8664   1.759   6.747   7.000 -0.5634 -0.2230  0.2210
 2907TIP3   OH2 8665   0.222   2.837   0.888 -0.5518  0.2695 -0.3581
 2907TIP3    H1 8666   0.163   2.905   0.920  0.2224  0.6955  0.1896
 2907TIP3    H2 8667   0.239   2.860   0.797  0.4469  1.3452  0.0912
 2908TIP3   OH2 8668   5.023   2.491   3.674 -0.2010  0.2584  0.2337
 2908TIP3    H1 8669   5.062   2.535   3.750  0.2788 -0.0838  0.1926
 2908TIP3    H2 8670   5.026   2.398   3.697  1.1991  0.0393 -0.7761
 2909TIP3   OH2 8671   3.299   4.002   3.019 -0.0636 -0.1841 -0.4020
 2909TIP3    H1 8672   3.322   3.909   3.021 -1.0326 -0.4192  0.4640
 2909TIP3    H2 8673   3.291   4.023   2.926  2.5772 -0.3465 -0.6976
 2910TIP3   OH2 8674   6.138   0.132   1.436  0.4317 -0.0148  0.4615
 2910TIP3    H1 8675   6.146   0.048   1.481 -1.4815 -0.4571  0.0275
 2910TIP3    H2 8676   6.221   0.177   1.453  2.2943 -2.7686 -0.9461
 2911TIP3   OH2 8677   6.841   4.174   0.959  0.0966 -0.4516  0.2991
 2911TIP3    H1 8678   6.752   4.166   0.993 -0.2948 -0.3048 -0.6650
 2911TIP3    H2 8679   6.834   4.239   0.889  0.2936 -2.8136 -2.0227
 2912TIP3   OH2 8680   5.917   2.635   1.438  0.0568  0.6785  0.2448
 2912TIP3    H1 8681   5.975   2.623   1.513 -0.1867 -0.4567  0.2571
 2912TIP3    H2 8682   5.830   2.615   1.472 -0.2331  1.4990 -0.0016
 2913TIP3   OH2 8683   3.948   2.810   2.424  0.3738  0.0840  0.3550
 2913TIP3    H1 8684   3.927   2.812   2.331 -1.6189  0.6221  0.7971
 2913TIP3    H2 8685   4.038   2.775   2.428  0.2989 -0.3884 -1.7129
 2914TIP3   OH2 8686   6.313   3.141   3.097 -1.0581  0.6897  0.0902
 2914TIP3    H1 8687   6.263   3.205   3.046 -2.0720 -0.5580 -0.4885
 2914TIP3    H2 8688   6.271   3.057   3.080  0.8974 -0.3108  0.0514
 2915TIP3   OH2 8689   5.534   2.343   1.178  0.4067  0.4658  0.1578
 2915TIP3    H1 8690   5.440   2.325   1.176  0.6461 -0.8116  0.1783
 2915TIP3    H2 8691   5.576   2.259   1.160  1.5528  1.0184  0.1502
 2916TIP3   OH2 8692   4.723   1.334   3.326  0.8717  0.5290  0.3414
 2916TIP3    H1 8693   4.768   1.342   3.242  1.6078 -1.4786  0.5239
 2916TIP3    H2 8694   4.665   1.411   3.330 -0.4888 -0.2853 -2.8001
 2917TIP3   OH2 8695   5.000   3.378   3.722  0.1286 -0.5253 -0.0238
 2917TIP3    H1 8696   5.044   3.387   3.807 -0.5426  2.4784  0.0420
 2917TIP3    H2 8697   4.907   3.378   3.744 -0.1416  3.1844 -0.9455
 2918TIP3   OH2 8698   5.623   5.683   1.557 -0.4251 -0.3228 -0.0544
 2918TIP3    H1 8699   5.659   5.644   1.637 -1.1420  0.5087  0.6865
 2918TIP3    H2 8700   5.578   5.612   1.513 -1.3387 -0.4556  1.0599
 2919TIP3   OH2 8701   6.566   2.431   1.673 -0.1284  0.0511  0.0385
 2919TIP3    H1 8702   6.476   2.401   1.687 -0.6310  0.5214 -1.9966
 2919TIP3    H2 8703   6.565   2.524   1.697  0.2760 -0.3858  1.7881
 2920TIP3   OH2 8704   6.782   1.806   2.914 -0.4598 -0.6606  0.3687
 2920TIP3    H1 8705   6.750   1.880   2.863  2.1704  0.6866  0.5853
 2920TIP3    H2 8706   6.806   1.740   2.848 -0.2467 -0.2459  0.0281
 2921TIP3   OH2 8707   7.493   1.018   1.898  0.1999  0.3884  0.4755
 2921TIP3    H1 8708   7.417   1.058   1.855 -0.3121  0.6623  1.6301
 2921TIP3    H2 8709   7.524   0.953   1.835  1.0253  2.5354 -1.4643
 2922TIP3   OH2 8710   6.609   4.419   1.932 -0.5673  0.5226  0.4328
 2922TIP3    H1 8711   6.545   4.402   1.864 -0.9175  1.0919  0.6143
 2922TIP3    H2 8712   6.558   4.419   2.013 -0.3546  1.0701  0.5687
 2923TIP3   OH2 8713   4.147   1.151   3.033  1.0414 -0.0855  0.3260
 2923TIP3    H1 8714   4.122   1.120   3.120  0.4535 -0.9906 -0.1546
 2923TIP3    H2 8715   4.089   1.225   3.017  0.3915 -0.6038  0.2560
 2924TIP3   OH2 8716   7.566   3.118   4.215  0.5802  0.5974 -0.4527
 2924TIP3    H1 8717   7.599   3.029   4.205  0.0011  0.4890 -1.6139
 2924TIP3    H2 8718   7.644   3.173   4.214  1.0626 -0.0008  1.9291
 2925TIP3   OH2 8719   7.288   2.694   2.515  0.1730  0.1656 -0.2420
 2925TIP3    H1 8720   7.306   2.782   2.482 -2.5595  0.3108 -1.4848
 2925TIP3    H2 8721   7.277   2.705   2.609  2.6959  0.6428  0.0285
 2926TIP3   OH2 8722   4.897   2.352   2.432 -0.5964 -0.1180 -0.0664
 2926TIP3    H1 8723   4.882   2.341   2.526 -0.7410  2.1901  0.2169
 2926TIP3    H2 8724   4.967   2.417   2.427 -1.3629  0.6048 -1.5720
 2927TIP3   OH2 8725   7.100   2.450   1.933 -0.1924 -0.4165 -0.2363
 2927TIP3    H1 8726   7.130   2.410   1.851 -0.5903  0.6254 -0.9007
 2927TIP3    H2 8727   7.179   2.461   1.985 -0.0073 -1.5841 -0.2576
 2928TIP3   OH2 8728   6.914   4.995   1.630 -0.1657 -0.1225  0.0215
 2928TIP3    H1 8729   6.899   4.978   1.538  1.5197 -2.1005  0.0727
 2928TIP3    H2 8730   6.908   4.909   1.672  1.5996  0.3730  1.3575
 2929TIP3   OH2 8731   4.790   1.429   1.802  0.1106  0.0972 -0.0340
 2929TIP3    H1 8732   4.705   1.469   1.788  0.1773 -0.1990 -1.3306
 2929TIP3    H2 8733   4.841   1.496   1.848 -1.1364 -0.1145  1.6744
 2930TIP3   OH2 8734   6.347   1.451   1.971  0.3084 -0.4539 -0.4127
 2930TIP3    H1 8735   6.269   1.502   1.993  0.2517 -0.5625 -0.3631
 2930TIP3    H2 8736   6.414   1.483   2.031  1.2735  2.1036 -2.7518
 2931TIP3   OH2 8737   5.722   2.803   0.820  0.3439  0.6314  0.2154
 2931TIP3    H1 8738   5.796   2.745   0.838 -1.3467 -1.0617  1.9541
 2931TIP3    H2 8739   5.646   2.756   0.853 -1.6257  2.0856 -2.0330
 2932TIP3   OH2 8740   6.179   1.233   3.703 -0.3695  0.0747  0.8362
 2932TIP3    H1 8741   6.141   1.282   3.776  0.1073  1.8745 -0.0690
 2932TIP3    H2 8742   6.230   1.299   3.655  1.1603 -1.5636  0.1579
 2933TIP3   OH2 8743   5.613   2.196   1.575 -0.7814  0.1036  0.0303
 2933TIP3    H1 8744   5.558   2.146   1.635  1.2493 -0.2053  1.6986
 2933TIP3    H2 8745   5.593   2.287   1.594 -0.0408  0.0122  1.3290
 2934TIP3   OH2 8746   6.973   0.575   0.188  0.2593  0.7604  0.0682
 2934TIP3    H1 8747   7.004   0.486   0.205  1.7118  1.1913 -0.2482
 2934TIP3    H2 8748   6.901   0.588   0.249 -1.5900 -1.5073 -1.5557
 2935TIP3   OH2 8749   1.884   7.874   2.956  0.2392  0.1045 -0.1256
 2935TIP3    H1 8750   1.856   7.951   3.005 -0.8219  0.5008 -1.3382
 2935TIP3    H2 8751   1.921   7.816   3.023 -1.1728  0.6254  1.1506
 2936TIP3   OH2 8752   5.942   1.908   0.745  0.4126 -0.3515  0.4681
 2936TIP3    H1 8753   5.871   1.949   0.695  2.3636  0.7100 -1.5118
 2936TIP3    H2 8754   5.903   1.890   0.831 -1.4294  2.8200  0.3843
 2937TIP3   OH2 8755   6.558   4.577   1.537 -0.5799  0.0300  0.0346
 2937TIP3    H1 8756   6.546   4.623   1.620  3.4937  0.8285  0.2459
 2937TIP3    H2 8757   6.596   4.493   1.561 -0.2715 -0.1188 -0.9602
 2938TIP3   OH2 8758   3.067   2.296   4.669  0.4953 -0.1478 -0.4814
 2938TIP3    H1 8759   3.150   2.266   4.632  0.5216 -0.2029 -0.3768
 2938TIP3    H2 8760   3.081   2.388   4.688  1.1215 -0.5630  1.1929
 2939TIP3   OH2 8761   5.664   1.725   1.867 -0.1738  0.2620 -0.0325
 2939TIP3    H1 8762   5.647   1.632   1.850  1.9422 -0.1359 -0.0373
 2939TIP3    H2 8763   5.631   1.739   1.956 -0.4706 -0.5033 -0.0177
 2940TIP3   OH2 8764   5.362   0.967   1.004 -0.4197  0.0843 -0.3784
 2940TIP3    H1 8765   5.291   0.949   1.066  0.0247 -0.7518 -0.0988
 2940TIP3    H2 8766   5.384   1.059   1.019  2.4895 -1.1112  3.7479
 2941TIP3   OH2 8767   6.371   1.135   2.784 -0.1832  0.0809  0.5584
 2941TIP3    H1 8768   6.321   1.215   2.767 -0.7511 -0.0023  1.8437
 2941TIP3    H2 8769   6.401   1.108   2.697 -1.3118  0.8172 -0.0782
 2942TIP3   OH2 8770   7.116   0.089   3.108  0.5678  0.5899 -0.2613
 2942TIP3    H1 8771   7.185   0.044   3.059  0.3704 -0.1471  0.1365
 2942TIP3    H2 8772   7.038   0.035   3.095  0.2922  0.9037  0.0790
 2943TIP3   OH2 8773   8.224   3.694   3.019  0.1260  0.1753  0.2544
 2943TIP3    H1 8774   8.292   3.719   2.957  0.0815 -2.3215 -0.8547
 2943TIP3    H2 8775   8.144   3.734   2.985  0.3783  0.0820 -0.4430
 2944TIP3   OH2 8776   2.779   7.668   1.992  0.0278  0.2872 -0.6227
 2944TIP3    H1 8777   2.815   7.664   2.080  2.5618 -1.0958 -1.6781
 2944TIP3    H2 8778   2.812   7.750   1.956  1.1563 -0.3874 -1.1587
 2945TIP3   OH2 8779   7.321   2.858   0.164 -0.7935  0.3198 -0.5260
 2945TIP3    H1 8780   7.280   2.932   0.118 -0.9818  0.4957 -0.0827
 2945TIP3    H2 8781   7.384   2.899   0.223 -0.8743  0.1201 -0.3035
 2946TIP3   OH2 8782   5.884   2.606   2.517  0.1536 -0.1255  0.0253
 2946TIP3    H1 8783   5.808   2.548   2.526  0.6364 -0.7329  0.1898
 2946TIP3    H2 8784   5.908   2.600   2.424  0.0750 -0.0222 -0.0021
 2947TIP3   OH2 8785   6.088   2.042   2.089 -0.5716  0.7549 -0.0298
 2947TIP3    H1 8786   6.146   2.050   2.014 -0.8481  0.3752 -0.2858
 2947TIP3    H2 8787   6.126   1.971   2.141 -1.6918 -0.5941 -1.0114
 2948TIP3   OH2 8788   4.006   3.316   1.407  0.2427  0.1921  0.1164
 2948TIP3    H1 8789   4.014   3.235   1.357 -1.4755  0.0407  0.0670
 2948TIP3    H2 8790   3.994   3.384   1.340  1.6949  0.4940  0.1567
 2949TIP3   OH2 8791   4.326   3.254   1.421 -0.3589  0.1193  0.0191
 2949TIP3    H1 8792   4.284   3.252   1.507  0.9442  2.9477  0.7799
 2949TIP3    H2 8793   4.255   3.274   1.360 -0.4111  3.7940  1.1630
 2950TIP3   OH2 8794   5.696   1.582   4.469 -0.6066 -0.0360  0.3354
 2950TIP3    H1 8795   5.615   1.568   4.517 -1.6525 -1.0358 -1.6902
 2950TIP3    H2 8796   5.688   1.670   4.433 -0.5629  0.0638  0.5700
 2951TIP3   OH2 8797   6.564   3.841   1.462  0.1870  0.3403 -0.1824
 2951TIP3    H1 8798   6.640   3.868   1.410 -0.9592  1.5932 -1.2235
 2951TIP3    H2 8799   6.558   3.746   1.449  0.7937  0.4297 -1.1140
 2952TIP3   OH2 8800   6.387   1.843   1.065  0.7970  0.1770 -0.2807
 2952TIP3    H1 8801   6.421   1.756   1.041  0.3652  0.4435 -1.9107
 2952TIP3    H2 8802   6.308   1.853   1.013  0.1787  1.0639  0.8151
 2953TIP3   OH2 8803   7.340   2.442   2.416  0.2760  0.1534  0.6038
 2953TIP3    H1 8804   7.310   2.520   2.462  1.4814 -0.1809  1.9954
 2953TIP3    H2 8805   7.302   2.369   2.466  1.2600 -0.2038  0.8363
 2954TIP3   OH2 8806   3.379   3.404   2.314 -0.5380  0.2634 -0.0705
 2954TIP3    H1 8807   3.294   3.375   2.281 -0.9872 -0.3607  1.5971
 2954TIP3    H2 8808   3.409   3.467   2.249 -1.1675 -1.2947 -1.9449
 2955TIP3   OH2 8809   5.951   3.677   2.759  0.1252  0.9056 -0.1646
 2955TIP3    H1 8810   6.021   3.664   2.823 -0.3138  1.1324  0.3749
 2955TIP3    H2 8811   5.996   3.693   2.676  0.6979 -0.8536 -0.2118
 2956TIP3   OH2 8812   6.376   2.300   1.244 -0.7074  0.2604 -0.5395
 2956TIP3    H1 8813   6.470   2.283   1.243 -0.4761  1.3514  0.6853
 2956TIP3    H2 8814   6.346   2.262   1.327 -1.3242  0.0409 -0.8614
 2957TIP3   OH2 8815   6.338   3.222   1.292  0.5038  0.6097  0.2430
 2957TIP3    H1 8816   6.307   3.244   1.380  1.9344  0.9384  0.6770
 2957TIP3    H2 8817   6.392   3.296   1.266 -0.4486  0.8161 -1.2069
 2958TIP3   OH2 8818   7.038   3.451   2.905 -0.0068 -0.1692 -0.0814
 2958TIP3    H1 8819   6.979   3.513   2.948 -0.4709 -1.9167  1.8838
 2958TIP3    H2 8820   7.080   3.404   2.977  2.0605 -0.5601 -1.5020
 2959TIP3   OH2 8821   5.064   0.856   0.807  0.5494 -0.3960  0.2389
 2959TIP3    H1 8822   5.041   0.782   0.863  0.7503  0.7825  1.9340
 2959TIP3    H2 8823   5.104   0.817   0.730  2.0691 -2.0060  1.7789
 2960TIP3   OH2 8824   5.428   4.128   3.241  0.0996 -0.1113 -0.4359
 2960TIP3    H1 8825   5.433   4.041   3.202  1.9453 -0.1360 -0.2072
 2960TIP3    H2 8826   5.418   4.112   3.335  0.4308 -0.0864 -0.3945
 2961TIP3   OH2 8827   5.872   3.886   1.991  0.0623 -0.1307 -0.0224
 2961TIP3    H1 8828   5.796   3.855   1.942 -0.2897  0.8574 -0.1222
 2961TIP3    H2 8829   5.941   3.895   1.926  0.1834 -0.7647  0.0192
 2962TIP3   OH2 8830   1.681   6.292   6.194 -0.3739  0.2128  0.2018
 2962TIP3    H1 8831   1.671   6.203   6.227  0.4472  0.1699  0.3546
 2962TIP3    H2 8832   1.714   6.281   6.104  1.3440  0.3701  0.7931
 2963TIP3   OH2 8833   5.320   2.675   1.122  0.5477 -0.1918  0.5852
 2963TIP3    H1 8834   5.341   2.661   1.214 -0.8902 -0.9834  0.8101
 2963TIP3    H2 8835   5.384   2.623   1.074  0.7773 -0.4422  1.1648
 2964TIP3   OH2 8836   2.551   5.693   6.900 -0.0311  0.4462 -0.2163
 2964TIP3    H1 8837   2.528   5.624   6.837  1.1923  0.0056 -0.1934
 2964TIP3    H2 8838   2.574   5.646   6.980  2.3224  0.7568 -0.6658
 2965TIP3   OH2 8839   5.395   1.600   1.590 -0.2311 -0.3996 -0.4783
 2965TIP3    H1 8840   5.419   1.672   1.649  0.7424 -0.3765 -0.8893
 2965TIP3    H2 8841   5.339   1.543   1.643 -0.5897  0.3971  0.0085
 2966TIP3   OH2 8842   7.679   2.392   1.234 -0.0377  0.7482 -0.0929
 2966TIP3    H1 8843   7.739   2.456   1.197 -0.3553  0.8800 -0.3869
 2966TIP3    H2 8844   7.736   2.324   1.272  0.3021  0.1267 -1.6676
 2967TIP3   OH2 8845   6.400   3.470   3.119  0.1331 -0.0515 -0.0907
 2967TIP3    H1 8846   6.390   3.479   3.024  0.2271 -0.5257 -0.1467
 2967TIP3    H2 8847   6.480   3.419   3.130 -0.3985 -0.8353  0.2111
 2968TIP3   OH2 8848   7.905   3.165   2.512  0.2114 -0.0258  0.5074
 2968TIP3    H1 8849   7.852   3.161   2.592 -1.0550 -1.8129 -0.3889
 2968TIP3    H2 8850   7.851   3.214   2.450  0.4463 -0.1696  0.1912
 2969TIP3   OH2 8851   7.460   4.495   5.289  0.0266 -0.2303  0.4102
 2969TIP3    H1 8852   7.429   4.586   5.286 -0.1555 -0.2576  1.3515
 2969TIP3    H2 8853   7.548   4.499   5.251  0.4003  0.5038  1.3327
 2970TIP3   OH2 8854   0.054   7.482   0.506 -0.9171 -0.2366  0.3869
 2970TIP3    H1 8855   0.056   7.427   0.429  1.8212  1.0722 -0.5487
 2970TIP3    H2 8856  -0.022   7.539   0.494  0.5636  1.2730 -2.3556
 2971TIP3   OH2 8857   4.750   1.854   2.670  0.6927 -0.2208 -0.2925
 2971TIP3    H1 8858   4.732   1.818   2.583 -0.4775 -1.3283  0.3873
 2971TIP3    H2 8859   4.740   1.949   2.659 -0.8331 -0.4478 -1.0682
 2972TIP3   OH2 8860   7.564   2.073   3.463  0.1343 -0.0125 -0.1797
 2972TIP3    H1 8861   7.514   2.144   3.503 -0.3189  0.3347 -1.3425
 2972TIP3    H2 8862   7.649   2.076   3.506  0.9446  2.7726 -1.8819
 2973TIP3   OH2 8863   5.447   1.330   2.003  0.0733  0.1996 -0.0723
 2973TIP3    H1 8864   5.486   1.292   2.082  1.0015  0.6791 -0.2914
 2973TIP3    H2 8865   5.359   1.293   2.000  0.0084  0.2059  1.2123
 2974TIP3   OH2 8866   5.644   3.164   2.636 -0.2306  0.0488 -0.1135
 2974TIP3    H1 8867   5.661   3.074   2.610 -1.8180 -0.0292 -0.9514
 2974TIP3    H2 8868   5.644   3.162   2.732 -0.2780 -0.8540 -0.1344
 2975TIP3   OH2 8869   3.738   7.327   0.702  0.4528 -0.5380  0.9102
 2975TIP3    H1 8870   3.712   7.348   0.791 -0.7883  0.2786  0.3636
 2975TIP3    H2 8871   3.713   7.235   0.690 -1.1131 -0.1194  0.8011
 2976TIP3   OH2 8872   4.911   1.060   1.171 -0.3221 -0.7882  0.4030
 2976TIP3    H1 8873   4.881   0.998   1.237 -0.1403 -0.7661  0.5065
 2976TIP3    H2 8874   4.999   1.030   1.148 -1.0108 -1.7766 -1.0307
 2977TIP3   OH2 8875   7.038   3.836   2.931  0.1744 -0.7738 -0.2712
 2977TIP3    H1 8876   6.996   3.791   2.858 -1.9085  1.1888 -0.3518
 2977TIP3    H2 8877   7.094   3.901   2.889  0.9798 -1.3886 -0.1428
 2978TIP3   OH2 8878   6.579   1.717   2.376 -0.7553 -0.0601 -0.1435
 2978TIP3    H1 8879   6.601   1.810   2.370  0.1640 -0.3929 -2.9103
 2978TIP3    H2 8880   6.663   1.672   2.380 -1.1341 -0.8647 -0.9276
 2979TIP3   OH2 8881   6.678   2.924   2.967  0.0766 -0.2168 -0.0632
 2979TIP3    H1 8882   6.652   2.883   3.049 -1.0179 -1.2677 -0.9351
 2979TIP3    H2 8883   6.684   2.852   2.904  0.4718  0.6423 -1.0264
 2980TIP3   OH2 8884   7.487   1.405   2.992  0.2377  0.4692 -0.4825
 2980TIP3    H1 8885   7.509   1.325   3.040 -0.8927  0.7152  0.4473
 2980TIP3    H2 8886   7.570   1.452   2.986  0.5131  0.1522  0.6831
 2981TIP3   OH2 8887   4.410   1.884   0.041  0.5514 -0.0833  0.8873
 2981TIP3    H1 8888   4.438   1.844  -0.041  0.5159  1.4201  0.1197
 2981TIP3    H2 8889   4.479   1.863   0.103  1.0749 -0.3874  0.2097
 2982TIP3   OH2 8890   0.443   5.458   6.844  0.6592 -0.7890  0.0036
 2982TIP3    H1 8891   0.447   5.392   6.913 -0.8487 -1.4622 -0.5297
 2982TIP3    H2 8892   0.434   5.541   6.891 -1.0710 -1.3064  0.6447
 2983TIP3   OH2 8893   7.678   3.532   0.527  0.4941 -0.6677 -0.8629
 2983TIP3    H1 8894   7.588   3.501   0.518  0.6989 -0.8091 -2.5420
 2983TIP3    H2 8895   7.669   3.626   0.542 -0.0245 -1.0956  1.9319
 2984TIP3   OH2 8896   4.831   1.615   3.306  0.6407 -0.2726 -0.0543
 2984TIP3    H1 8897   4.777   1.625   3.385  0.6040 -1.4655  0.0833
 2984TIP3    H2 8898   4.769   1.619   3.233  0.7452  1.4510 -0.0726
 2985TIP3   OH2 8899   4.536   3.647   1.643 -0.3249  0.3174 -0.1555
 2985TIP3    H1 8900   4.485   3.696   1.707 -0.9612 -3.2826  2.2791
 2985TIP3    H2 8901   4.475   3.581   1.609  1.4203 -1.1745 -0.5405
 2986TIP3   OH2 8902   4.966   3.515   1.788 -0.3791  0.0300 -0.5912
 2986TIP3    H1 8903   5.062   3.519   1.798 -0.3950  1.8979 -0.8773
 2986TIP3    H2 8904   4.951   3.441   1.730  1.0825  1.1333 -2.4570
 2987TIP3   OH2 8905   4.722   2.749   3.464  0.5251  0.1989  0.5582
 2987TIP3    H1 8906   4.804   2.731   3.510 -0.0204 -0.5738  1.2347
 2987TIP3    H2 8907   4.714   2.845   3.465  1.4193  0.2754  0.4847
 2988TIP3   OH2 8908   4.856   1.321   1.163  0.4583  0.3372 -0.1131
 2988TIP3    H1 8909   4.832   1.231   1.188 -0.2860  0.2676 -1.0450
 2988TIP3    H2 8910   4.794   1.343   1.093 -0.4316  2.1794  1.2150
 2989TIP3   OH2 8911   5.965   3.683   3.413  0.2258  0.0502 -0.2527
 2989TIP3    H1 8912   6.037   3.735   3.376  0.9187 -0.0459  0.9085
 2989TIP3    H2 8913   5.935   3.735   3.488  1.6991 -1.7296  1.6474
 2990TIP3   OH2 8914   7.518   2.842   0.461  0.2634  0.3325  0.2901
 2990TIP3    H1 8915   7.596   2.836   0.516  1.0779 -0.1275 -0.9114
 2990TIP3    H2 8916   7.539   2.909   0.396 -0.5787  0.6332  0.3109
 2991TIP3   OH2 8917   6.087   1.665   3.817 -0.0708 -0.7264 -0.0032
 2991TIP3    H1 8918   5.997   1.636   3.803  0.1388 -0.4627 -2.0208
 2991TIP3    H2 8919   6.121   1.682   3.729  1.4024  0.8350  0.8330
 2992TIP3   OH2 8920   5.583   1.879   1.340 -0.6665  0.1350 -0.2117
 2992TIP3    H1 8921   5.659   1.922   1.380 -1.5399  0.3773  1.2094
 2992TIP3    H2 8922   5.619   1.832   1.265  0.9948 -0.2786  0.8171
 2993TIP3   OH2 8923   5.649   0.672   2.306 -0.1277  0.4844 -0.3248
 2993TIP3    H1 8924   5.624   0.650   2.216 -0.5767  0.5979 -0.2288
 2993TIP3    H2 8925   5.567   0.671   2.355  0.3312 -1.3793  0.4746
 2994TIP3   OH2 8926   6.597   2.692   1.805  0.1405 -0.0781  0.6203
 2994TIP3    H1 8927   6.608   2.757   1.874  0.4851  0.2121  0.2989
 2994TIP3    H2 8928   6.570   2.743   1.728 -0.3459 -0.4104  0.5733
 2995TIP3   OH2 8929   6.554   2.326   3.058 -0.0512  0.4643 -0.1149
 2995TIP3    H1 8930   6.464   2.357   3.063 -0.4545 -0.2573 -2.1714
 2995TIP3    H2 8931   6.603   2.399   3.021  0.6531  1.6452  3.0900
 2996TIP3   OH2 8932   5.115   1.794   1.361  0.4677  0.6616  0.0395
 2996TIP3    H1 8933   5.106   1.847   1.282 -0.1824 -0.6142 -0.7537
 2996TIP3    H2 8934   5.186   1.837   1.411  1.5232  0.9396 -1.6620
 2997TIP3   OH2 8935   5.928   0.449   1.017  0.3460  0.6369  0.2784
 2997TIP3    H1 8936   5.948   0.540   0.993 -1.1025  0.8621 -0.1626
 2997TIP3    H2 8937   5.852   0.456   1.075 -1.7048 -0.4356 -2.1677
 2998TIP3   OH2 8938   6.521   1.665   2.637  0.1785 -0.3029 -0.0441
 2998TIP3    H1 8939   6.541   1.752   2.670  0.1449 -0.8829  1.5707
 2998TIP3    H2 8940   6.538   1.669   2.543 -2.4350  2.2327 -0.4777
 2999TIP3   OH2 8941   7.391   3.189   2.049 -0.7068 -0.3341  0.1183
 2999TIP3    H1 8942   7.452   3.140   1.994  0.1255 -0.6372  1.2665
 2999TIP3    H2 8943   7.326   3.224   1.989 -0.5034 -1.6543 -0.8965
 3000TIP3   OH2 8944   5.317   1.745   2.566  0.0470 -0.1642 -0.0856
 3000TIP3    H1 8945   5.256   1.686   2.520 -0.5149 -0.9584  1.6303
 3000TIP3    H2 8946   5.384   1.686   2.601  0.9509  0.5347 -0.6388
 3001TIP3   OH2 8947   8.284   4.969   6.829 -0.5842  0.2068  0.3123
 3001TIP3    H1 8948   8.331   5.050   6.809  1.1611 -0.9603 -0.4747
 3001TIP3    H2 8949   8.246   4.983   6.915 -1.5233  2.3967 -0.4296
 3002TIP3   OH2 8950   3.179   7.654   1.732  0.5657  0.0569  0.1461
 3002TIP3    H1 8951   3.242   7.657   1.660 -0.1098 -1.2278 -0.5138
 3002TIP3    H2 8952   3.109   7.714   1.705  0.8422  0.4161  0.2324
 3003TIP3   OH2 8953   6.987   2.751   2.931  0.0312 -0.7566  0.2245
 3003TIP3    H1 8954   6.965   2.821   2.993 -1.8837 -0.3428 -0.8871
 3003TIP3    H2 8955   6.906   2.737   2.882  0.8154 -2.7933 -0.5103
 3004TIP3   OH2 8956   7.137   2.422   2.791 -0.3618 -0.2834  0.1604
 3004TIP3    H1 8957   7.159   2.470   2.870  0.6256 -0.1673 -0.1853
 3004TIP3    H2 8958   7.042   2.434   2.782 -0.5226 -0.5095  1.4535
 3005TIP3   OH2 8959   6.661   3.429   2.967 -0.3407  0.1077 -0.5032
 3005TIP3    H1 8960   6.612   3.372   3.026  1.1525 -0.2314  0.4362
 3005TIP3    H2 8961   6.702   3.369   2.905  1.7127  0.0728  0.8428
 3006TIP3   OH2 8962   4.272   2.966   4.554 -0.2183 -0.1806  0.1022
 3006TIP3    H1 8963   4.299   2.998   4.640  0.1772  0.6086 -0.3154
 3006TIP3    H2 8964   4.254   2.872   4.568 -0.3409 -0.0201  1.0811
 3007TIP3   OH2 8965   1.065   1.572   2.007 -0.3965 -0.1781  0.4464
 3007TIP3    H1 8966   1.003   1.521   2.059 -2.0345  0.4575 -0.8549
 3007TIP3    H2 8967   1.129   1.603   2.071 -0.3730 -2.3481  1.5303
 3008TIP3   OH2 8968   6.056   3.133   3.528  0.1792  0.1379 -0.2022
 3008TIP3    H1 8969   5.985   3.068   3.524  0.6809 -0.3554 -1.1386
 3008TIP3    H2 8970   6.105   3.110   3.607  0.0700 -0.3308 -0.2686
 3009TIP3   OH2 8971   6.651   2.551   2.474 -0.2445 -0.0771  0.1182
 3009TIP3    H1 8972   6.677   2.583   2.560  1.7730 -0.5514 -0.3042
 3009TIP3    H2 8973   6.730   2.555   2.421 -1.2056 -0.8258 -1.4258
 3010TIP3   OH2 8974   8.435   0.580   3.138 -0.0745  0.1567  0.0368
 3010TIP3    H1 8975   8.456   0.588   3.231  1.4184  0.4344 -0.3153
 3010TIP3    H2 8976   8.481   0.501   3.110  0.9604  1.0586 -0.8657
 3011TIP3   OH2 8977   7.446   1.947   4.700  0.5587  0.3890 -0.4419
 3011TIP3    H1 8978   7.490   1.954   4.785  1.0877 -2.1274 -0.4626
 3011TIP3    H2 8979   7.516   1.927   4.638 -0.1598 -0.2515 -1.0559
 3012TIP3   OH2 8980   5.981   2.251   3.938 -0.3525 -0.0218  0.1380
 3012TIP3    H1 8981   6.021   2.312   3.876  1.5316  0.9352  2.2579
 3012TIP3    H2 8982   6.010   2.164   3.908  0.0919  0.3842 -0.6234
 3013TIP3   OH2 8983   5.815   0.651   4.493  0.1557  0.0804 -0.3464
 3013TIP3    H1 8984   5.802   0.569   4.540 -0.4582  1.1503  1.4133
 3013TIP3    H2 8985   5.821   0.717   4.562  0.2062  1.5712 -1.7514
 3014TIP3   OH2 8986   5.782   3.362   1.022  0.0775  0.0490 -0.6907
 3014TIP3    H1 8987   5.737   3.278   1.026 -0.0839  0.1334 -0.7329
 3014TIP3    H2 8988   5.770   3.401   1.109 -1.7812  1.0246 -1.3404
 3015TIP3   OH2 8989   4.980   2.739   3.581 -0.5544 -0.5544 -0.2969
 3015TIP3    H1 8990   4.979   2.645   3.602 -0.7365 -0.6033 -0.5171
 3015TIP3    H2 8991   5.052   2.774   3.633 -1.4208 -0.5469  0.8890
 3016TIP3   OH2 8992   3.895   2.639   3.152  0.0979  0.0385  0.1536
 3016TIP3    H1 8993   3.885   2.544   3.155  2.1487 -0.1573  2.5892
 3016TIP3    H2 8994   3.859   2.670   3.236 -0.9145  1.4708 -0.7758
 3017TIP3   OH2 8995   4.707   3.157   3.676  0.0520 -0.1183 -0.2823
 3017TIP3    H1 8996   4.711   3.224   3.607  0.5998 -2.1036 -2.2150
 3017TIP3    H2 8997   4.621   3.171   3.717 -0.6108  0.6121 -1.8690
 3018TIP3   OH2 8998   6.735   3.269   0.493  0.2141 -0.1670  0.0962
 3018TIP3    H1 8999   6.645   3.296   0.479  0.2247  0.5230  1.3117
 3018TIP3    H2 9000   6.781   3.349   0.518  1.3813 -0.3274 -1.4470
 3019TIP3   OH2 9001   5.109   3.654   2.441 -0.1707 -0.2211 -0.1501
 3019TIP3    H1 9002   5.059   3.723   2.485 -1.4353 -0.3800 -1.3080
 3019TIP3    H2 9003   5.104   3.579   2.500 -0.8123 -0.0585  0.0022
 3020TIP3   OH2 9004   6.114   3.304   3.043  0.4649  0.0188 -0.2667
 3020TIP3    H1 9005   6.108   3.318   3.137  1.3213 -2.1720  0.1550
 3020TIP3    H2 9006   6.029   3.266   3.019  0.9234 -1.1839 -0.0224
 3021TIP3   OH2 9007   4.159   7.725   2.483 -0.1062 -0.5051 -0.1610
 3021TIP3    H1 9008   4.211   7.743   2.404  0.0770 -0.6896 -0.0810
 3021TIP3    H2 9009   4.112   7.807   2.499 -0.1949 -0.4863 -0.5024
 3022TIP3   OH2 9010   7.286   2.942   0.668  0.0551 -0.1758  0.2378
 3022TIP3    H1 9011   7.259   2.866   0.616  2.0757 -0.1693 -0.8656
 3022TIP3    H2 9012   7.204   2.983   0.694 -1.0166 -0.5181 -2.4477
 3023TIP3   OH2 9013   5.373   1.381   2.382  0.0644  0.2092 -0.1984
 3023TIP3    H1 9014   5.360   1.429   2.300 -1.2363  1.1943  0.5678
 3023TIP3    H2 9015   5.325   1.432   2.447  0.9694 -0.6520  1.1500
 3024TIP3   OH2 9016   6.220   2.658   2.882 -0.2341  0.2777  0.3953
 3024TIP3    H1 9017   6.143   2.664   2.826 -0.9288  0.5762  1.3844
 3024TIP3    H2 9018   6.289   2.624   2.824 -0.9807  0.4454 -0.5989
 3025TIP3   OH2 9019   6.619   1.324   2.516 -0.1641  0.3335  0.2129
 3025TIP3    H1 9020   6.663   1.315   2.600 -0.5400  0.3099  0.4075
 3025TIP3    H2 9021   6.609   1.235   2.484  1.8021  0.4387 -0.8125
 3026TIP3   OH2 9022   5.577   3.633   0.721 -0.8513  0.0306  0.7465
 3026TIP3    H1 9023   5.645   3.608   0.783 -0.5353 -1.1147 -0.0476
 3026TIP3    H2 9024   5.524   3.554   0.709 -1.9798  0.7511  0.9253
 3027TIP3   OH2 9025   5.398   2.353   3.427 -0.0007  0.2948  0.8405
 3027TIP3    H1 9026   5.456   2.345   3.351 -1.5157 -0.7280 -0.2325
 3027TIP3    H2 9027   5.443   2.306   3.497  0.8766  0.2759  0.2727
 3028TIP3   OH2 9028   6.531   1.850   1.493  0.4584  0.0116 -0.2706
 3028TIP3    H1 9029   6.508   1.761   1.465 -1.6482  1.3212 -2.9682
 3028TIP3    H2 9030   6.490   1.859   1.579  0.0392 -1.3653 -0.3070
 3029TIP3   OH2 9031   0.276   1.535   2.428 -0.2066  0.5261  0.1211
 3029TIP3    H1 9032   0.208   1.595   2.396  0.7550  1.9574  0.6912
 3029TIP3    H2 9033   0.255   1.451   2.388 -2.1387  1.0143  0.0432
 3030TIP3   OH2 9034   0.947   3.230   4.247 -0.1678 -0.1025 -0.5697
 3030TIP3    H1 9035   0.992   3.146   4.242 -0.5368 -0.4127  1.0368
 3030TIP3    H2 9036   0.860   3.213   4.212 -0.6803 -0.7409  0.9366
 3031TIP3   OH2 9037   8.123   2.211   1.896  0.1748  0.0177  0.4903
 3031TIP3    H1 9038   8.182   2.269   1.944 -1.0512  1.9257 -0.2875
 3031TIP3    H2 9039   8.036   2.230   1.932 -0.4014 -0.4254 -0.6444
 3032TIP3   OH2 9040   5.438   7.734   3.294  0.2021  0.6588 -0.2339
 3032TIP3    H1 9041   5.352   7.737   3.336 -0.5692 -0.2496 -1.7273
 3032TIP3    H2 9042   5.494   7.787   3.351 -1.3391  1.2708  0.7429
 3033TIP3   OH2 9043   7.855   1.995   4.906  0.0105  0.3411 -0.3822
 3033TIP3    H1 9044   7.909   2.051   4.851 -0.3608  0.8655 -0.2107
 3033TIP3    H2 9045   7.890   1.907   4.891  3.1524  1.0521  2.3624
 3034TIP3   OH2 9046   8.045   0.707   2.323 -0.2393  0.2882 -0.4135
 3034TIP3    H1 9047   8.060   0.632   2.380  2.2919 -1.1604 -2.8752
 3034TIP3    H2 9048   8.125   0.758   2.329 -0.4723  0.8157 -1.6363
 3035TIP3   OH2 9049   2.853   6.860   1.203 -0.6935 -0.2977 -0.0367
 3035TIP3    H1 9050   2.918   6.829   1.140  0.8337  0.7460  0.9945
 3035TIP3    H2 9051   2.807   6.930   1.156  1.0624  1.1135  0.2874
 3036TIP3   OH2 9052   5.071   2.200   0.699  0.3382  0.1087  0.0654
 3036TIP3    H1 9053   5.133   2.139   0.738 -0.2132 -0.6502 -0.2288
 3036TIP3    H2 9054   5.049   2.162   0.614 -0.7609  0.2060  0.2910
 3037TIP3   OH2 9055   7.807   3.819   3.306 -0.1562  0.0627  0.1445
 3037TIP3    H1 9056   7.796   3.781   3.219 -0.2897  0.7527 -0.1419
 3037TIP3    H2 9057   7.724   3.800   3.350  0.4193 -1.4674  0.5842
 3038TIP3   OH2 9058   6.327   0.859   3.137  0.0532 -0.3237  0.5444
 3038TIP3    H1 9059   6.278   0.829   3.061  1.7976  2.1016 -1.6236
 3038TIP3    H2 9060   6.411   0.814   3.131  1.0670  1.6273 -0.3158
 3039TIP3   OH2 9061   6.706   2.371   3.517  0.4976 -0.5932  0.1109
 3039TIP3    H1 9062   6.729   2.455   3.478 -1.0829 -1.1036 -2.0569
 3039TIP3    H2 9063   6.775   2.311   3.488  1.3081 -0.1773  1.1711
 3040TIP3   OH2 9064   4.743   2.144   2.658  0.2770 -0.2251  0.1452
 3040TIP3    H1 9065   4.661   2.174   2.618  0.6487  0.2949 -0.2265
 3040TIP3    H2 9066   4.776   2.222   2.704  0.1395 -0.6611  0.9940
 3041TIP3   OH2 9067   7.778   2.909   2.994 -0.2108  0.2999 -0.1430
 3041TIP3    H1 9068   7.812   2.907   2.904  0.2695  0.6337  0.0331
 3041TIP3    H2 9069   7.821   2.984   3.034 -1.0643  0.6515  0.1181
 3042TIP3   OH2 9070   2.357   1.762   3.509 -0.0268  0.7702 -0.1324
 3042TIP3    H1 9071   2.286   1.701   3.527  0.7398 -0.4448 -1.1829
 3042TIP3    H2 9072   2.399   1.776   3.594 -0.2502 -0.1046  0.1223
 3043TIP3   OH2 9073   4.552   3.402   2.557 -0.2610  0.0951  1.0291
 3043TIP3    H1 9074   4.624   3.429   2.614  0.3249  0.6710  0.0420
 3043TIP3    H2 9075   4.594   3.385   2.473 -0.7227 -3.3114  1.4484
 3044TIP3   OH2 9076   6.648   1.540   2.107  0.3406  0.1349  0.5934
 3044TIP3    H1 9077   6.671   1.466   2.051  2.0261  1.4001 -0.4174
 3044TIP3    H2 9078   6.670   1.511   2.195  1.7588 -0.2641  0.1067
 3045TIP3   OH2 9079   6.731   3.807   3.182  0.1983  0.2491  0.5084
 3045TIP3    H1 9080   6.728   3.888   3.232  0.0582 -0.2989  1.3974
 3045TIP3    H2 9081   6.742   3.738   3.248 -1.8704 -0.6542 -0.0479
 3046TIP3   OH2 9082   6.952   2.678   2.509  0.7744 -0.1444 -0.3281
 3046TIP3    H1 9083   6.988   2.763   2.485  2.6812 -0.5528  0.9864
 3046TIP3    H2 9084   6.885   2.698   2.574 -0.8567  0.5639 -2.1953
 3047TIP3   OH2 9085   6.928   3.399   2.645  0.2371  0.5010  0.1217
 3047TIP3    H1 9086   6.952   3.390   2.737 -0.3633 -1.0721  0.1380
 3047TIP3    H2 9087   6.984   3.337   2.599  1.6920  2.4587 -0.7904
 3048TIP3   OH2 9088   5.156   2.613   5.575  0.4902 -0.1957 -0.1304
 3048TIP3    H1 9089   5.236   2.570   5.544  1.6810  0.1508  2.4015
 3048TIP3    H2 9090   5.166   2.619   5.670 -2.5097 -0.0463  0.2290
 3049TIP3   OH2 9091   6.659   3.945   2.107 -0.4961 -0.1198 -0.1201
 3049TIP3    H1 9092   6.688   3.941   2.016  1.5993 -1.3746  0.5636
 3049TIP3    H2 9093   6.719   4.007   2.148  0.6398 -2.0121  1.1183
 3050TIP3   OH2 9094   6.229   2.810   2.384  0.0697  0.3140 -0.2922
 3050TIP3    H1 9095   6.162   2.827   2.450  0.4787  1.7066 -0.2137
 3050TIP3    H2 9096   6.214   2.719   2.357 -0.9849  0.1825  0.6948
 3051TIP3   OH2 9097   7.350   3.043   3.147  0.0379 -0.4208 -0.2473
 3051TIP3    H1 9098   7.408   3.002   3.083 -0.1705 -0.4640 -0.4072
 3051TIP3    H2 9099   7.399   3.119   3.179  0.5176 -0.9220  0.2164
 3052TIP3   OH2 9100   6.351   5.365   2.069 -0.5321 -0.4099 -0.3675
 3052TIP3    H1 9101   6.411   5.416   2.124 -1.9137  0.6425  0.1823
 3052TIP3    H2 9102   6.371   5.273   2.091 -1.0122 -0.0106  1.8302
 3053TIP3   OH2 9103   5.116   3.255   2.985 -0.1405  0.3792 -0.1563
 3053TIP3    H1 9104   5.060   3.332   2.998 -0.0310  0.3226  0.6936
 3053TIP3    H2 9105   5.082   3.190   3.047  1.5165  0.6992  1.1217
 3054TIP3   OH2 9106   4.213   3.713   2.423 -0.5396  0.1674 -0.0980
 3054TIP3    H1 9107   4.172   3.727   2.338 -1.5602  0.8751  0.5183
 3054TIP3    H2 9108   4.211   3.798   2.466 -0.6117 -0.3363  0.9029
 3055TIP3   OH2 9109   5.993   4.120   1.018 -0.6331  0.1117  0.1607
 3055TIP3    H1 9110   5.939   4.194   1.046  0.7064  1.2374 -0.1732
 3055TIP3    H2 9111   5.935   4.044   1.024 -1.7825  1.0554  1.3354
 3056TIP3   OH2 9112   5.693   0.448   3.344 -0.3615 -0.1160  0.1335
 3056TIP3    H1 9113   5.755   0.401   3.287  1.1280  0.2110  1.4575
 3056TIP3    H2 9114   5.748   0.502   3.400 -1.9347  1.1808  0.4589
 3057TIP3   OH2 9115   5.878   0.845   3.643 -0.0874 -0.0674  0.0086
 3057TIP3    H1 9116   5.959   0.896   3.637 -1.3191  1.7876 -1.3596
 3057TIP3    H2 9117   5.863   0.833   3.737  0.6042  1.4703  0.3202
 3058TIP3   OH2 9118   6.507   1.875   1.790 -0.1888 -0.0569 -0.3116
 3058TIP3    H1 9119   6.446   1.852   1.861 -1.2336  1.9990 -0.5067
 3058TIP3    H2 9120   6.578   1.922   1.834 -1.0711  1.6358 -0.6587
 3059TIP3   OH2 9121   4.440   7.436   0.349  0.2712  0.9328 -0.6206
 3059TIP3    H1 9122   4.486   7.352   0.352 -0.7140  0.4213  0.4325
 3059TIP3    H2 9123   4.358   7.417   0.303 -0.2637  1.1629  0.2339
 3060TIP3   OH2 9124   6.257   1.921   2.955  0.1016  0.7216 -0.0047
 3060TIP3    H1 9125   6.162   1.921   2.950 -0.0038 -2.1709  0.8876
 3060TIP3    H2 9126   6.283   1.833   2.928  2.3505  0.7198  1.9102
 3061TIP3   OH2 9127   6.283   2.225   0.500  0.0853 -0.0126  0.2217
 3061TIP3    H1 9128   6.320   2.219   0.588  3.0055 -0.3795 -0.9736
 3061TIP3    H2 9129   6.332   2.296   0.459 -0.9266 -0.1634 -1.2688
 3062TIP3   OH2 9130   2.838   7.612   1.103  0.0665 -0.0114 -0.3276
 3062TIP3    H1 9131   2.771   7.618   1.035 -0.3652 -0.4842  0.0525
 3062TIP3    H2 9132   2.822   7.528   1.146 -0.8330  1.0910  1.5661
 3063TIP3   OH2 9133   4.932   1.635   1.544 -0.3898  0.0381  0.2520
 3063TIP3    H1 9134   5.016   1.623   1.502  0.2626 -2.6257  2.1646
 3063TIP3    H2 9135   4.882   1.557   1.520 -1.0010 -0.1436  2.0413
 3064TIP3   OH2 9136   5.927   6.068   6.149 -0.3521  0.3133  0.9299
 3064TIP3    H1 9137   5.996   6.113   6.101  0.4108  0.6804  2.3323
 3064TIP3    H2 9138   5.846   6.111   6.122 -0.2785 -1.3820 -2.1794
 3065TIP3   OH2 9139   6.606   0.682   1.307  0.1079  0.6720  0.4577
 3065TIP3    H1 9140   6.641   0.749   1.366  3.0460  0.4433 -0.9053
 3065TIP3    H2 9141   6.624   0.716   1.219 -0.1195 -1.0234 -0.2678
 3066TIP3   OH2 9142   6.522   1.525   1.425 -0.3156  0.3173 -0.0257
 3066TIP3    H1 9143   6.531   1.504   1.518 -0.2859  1.2479  0.1845
 3066TIP3    H2 9144   6.611   1.547   1.397 -0.0945 -1.2151 -0.5942
 3067TIP3   OH2 9145   6.699   0.274   2.312 -0.0145 -0.0780  0.3972
 3067TIP3    H1 9146   6.756   0.319   2.248  0.4749  0.3938  1.1461
 3067TIP3    H2 9147   6.689   0.186   2.277  0.3608  0.1317 -0.2654
 3068TIP3   OH2 9148   7.650   2.462   2.315 -0.3450  0.0310  0.4065
 3068TIP3    H1 9149   7.673   2.541   2.267  1.3021  0.4614  1.8346
 3068TIP3    H2 9150   7.564   2.481   2.353 -1.3728 -0.0871 -1.8054
 3069TIP3   OH2 9151   5.474   1.564   4.640 -0.1047 -0.3151 -0.2991
 3069TIP3    H1 9152   5.401   1.624   4.654  0.2873  0.2300 -0.5746
 3069TIP3    H2 9153   5.507   1.545   4.728 -0.0597  0.0916 -0.2269
 3070TIP3   OH2 9154   4.930   0.336   4.318 -0.5788  0.5619 -0.2532
 3070TIP3    H1 9155   4.999   0.305   4.376 -0.2972  0.4954 -0.6185
 3070TIP3    H2 9156   4.930   0.431   4.328  0.7759  0.7111 -1.5886
 3071TIP3   OH2 9157   3.143   1.257   1.691  0.4746 -0.0688  0.0930
 3071TIP3    H1 9158   3.150   1.165   1.717 -0.0327 -0.3639 -0.8124
 3071TIP3    H2 9159   3.049   1.275   1.693  0.6477  0.7814  1.4366
 3072TIP3   OH2 9160   6.144   0.969   2.806 -0.1002  0.0326 -0.1109
 3072TIP3    H1 9161   6.220   1.027   2.815 -0.5379  0.7333 -0.8067
 3072TIP3    H2 9162   6.094   1.008   2.735 -1.2856 -0.2397  0.5733
 3073TIP3   OH2 9163   6.636   1.914   2.702 -0.2002 -0.7800  0.4954
 3073TIP3    H1 9164   6.598   1.969   2.770 -0.5108 -1.6467  1.0423
 3073TIP3    H2 9165   6.705   1.967   2.663 -0.6316  0.0600  0.8744
 3074TIP3   OH2 9166   0.168   0.519   2.545  0.1562 -0.0758 -0.2412
 3074TIP3    H1 9167   0.085   0.564   2.533  0.8016  0.8843 -1.2085
 3074TIP3    H2 9168   0.224   0.582   2.590  0.4651 -0.5943  0.1078
 3075TIP3   OH2 9169   0.449   0.264   3.818 -0.0494  0.4052  0.0530
 3075TIP3    H1 9170   0.456   0.353   3.782 -0.6679  0.5208  0.2170
 3075TIP3    H2 9171   0.465   0.207   3.743  0.2862  0.6521 -0.0663
 3076TIP3   OH2 9172   6.551   2.848   1.586 -0.1147 -0.0009  0.3812
 3076TIP3    H1 9173   6.545   2.935   1.548 -1.8853 -0.3913 -0.2743
 3076TIP3    H2 9174   6.633   2.812   1.551  0.2070  1.0845  0.0027
 3077TIP3   OH2 9175   5.527   0.953   4.427  0.1354  0.1347  0.0032
 3077TIP3    H1 9176   5.573   0.964   4.509  1.1757  0.9190 -0.6736
 3077TIP3    H2 9177   5.494   1.040   4.405 -0.3474 -0.1152 -0.2846
 3078TIP3   OH2 9178   2.434   2.284   2.263 -0.1498 -0.3651 -0.1654
 3078TIP3    H1 9179   2.486   2.232   2.325  0.6538 -0.0242 -0.5381
 3078TIP3    H2 9180   2.465   2.374   2.276 -1.9747  0.1185  0.9191
 3079TIP3   OH2 9181   6.558   2.183   1.542  0.0036  0.0528 -0.5097
 3079TIP3    H1 9182   6.606   2.251   1.589  0.1454  0.2181 -0.8925
 3079TIP3    H2 9183   6.611   2.104   1.555 -0.8120 -0.2747  1.0036
 3080TIP3   OH2 9184   8.309   1.106   2.237 -0.5005 -0.4344  0.6353
 3080TIP3    H1 9185   8.395   1.147   2.233 -0.3051 -0.8208  0.8085
 3080TIP3    H2 9186   8.259   1.145   2.164 -0.0089 -0.5929  0.2112
 3081TIP3   OH2 9187   6.337   0.247   2.500 -0.0302 -0.0160  0.1776
 3081TIP3    H1 9188   6.254   0.275   2.463 -0.3718 -1.1030  0.0902
 3081TIP3    H2 9189   6.359   0.167   2.452  0.0905 -0.8072  1.5100
 3082TIP3   OH2 9190   6.284   0.620   2.955 -0.0312  0.4713  0.3957
 3082TIP3    H1 9191   6.298   0.543   2.901 -1.2946 -1.0527  2.1761
 3082TIP3    H2 9192   6.261   0.586   3.041 -0.2619  2.8354  1.3291
 3083TIP3   OH2 9193   7.270   1.278   1.136 -0.1014 -0.1139  0.1165
 3083TIP3    H1 9194   7.313   1.243   1.215 -1.5109  1.6543  1.6934
 3083TIP3    H2 9195   7.201   1.214   1.116  0.4008 -0.6789  0.1597
 3084TIP3   OH2 9196   7.272   3.033   2.852 -0.0738 -0.6627  0.4326
 3084TIP3    H1 9197   7.355   3.020   2.899  0.2956 -2.0342 -0.5751
 3084TIP3    H2 9198   7.237   2.945   2.840 -0.1210 -0.3567 -1.8998
 3085TIP3   OH2 9199   2.802   7.950   2.122 -0.1011  0.0191  0.0568
 3085TIP3    H1 9200   2.727   7.894   2.143 -0.2433 -0.2173 -1.0236
 3085TIP3    H2 9201   2.822   7.996   2.203 -0.3257 -1.1992  0.8202
 3086TIP3   OH2 9202   8.002   1.988   1.830 -0.3120 -0.0141  0.6291
 3086TIP3    H1 9203   8.045   2.072   1.843  1.2204 -0.4763 -1.2415
 3086TIP3    H2 9204   7.946   2.002   1.753 -3.4187  0.5245  2.9053
 3087TIP3   OH2 9205   1.328   6.598   6.620 -0.5388 -0.4612 -0.1052
 3087TIP3    H1 9206   1.390   6.573   6.689 -2.2584 -2.1415  0.8795
 3087TIP3    H2 9207   1.350   6.540   6.547  0.6371  0.6394 -0.6395
 3088TIP3   OH2 9208   0.828   2.741   4.030 -0.2685 -0.2307  0.4133
 3088TIP3    H1 9209   0.783   2.675   3.976  0.0608  0.3505 -0.5652
 3088TIP3    H2 9210   0.756   2.791   4.070 -0.5210 -1.0559  1.0299
 3089TIP3   OH2 9211   7.556   3.758   1.109  0.0882 -0.5795  0.0993
 3089TIP3    H1 9212   7.619   3.820   1.072 -1.9663  1.9750  0.7643
 3089TIP3    H2 9213   7.554   3.779   1.203  0.3800 -2.6141  0.5939
 3090TIP3   OH2 9214   6.974   2.541   1.352  0.1847  0.6191  0.1810
 3090TIP3    H1 9215   7.064   2.532   1.383 -0.1468 -0.6780  0.8042
 3090TIP3    H2 9216   6.921   2.494   1.417 -0.7666 -0.0272 -1.0323
 3091TIP3   OH2 9217   7.738   3.991   1.346  0.2051  0.2592 -0.1493
 3091TIP3    H1 9218   7.656   3.942   1.343  0.1842  0.2380  0.7824
 3091TIP3    H2 9219   7.784   3.956   1.423  2.1959 -1.4952 -2.0599
 3092TIP3   OH2 9220   6.714   0.348   3.630  0.5130  0.4628  0.2157
 3092TIP3    H1 9221   6.797   0.315   3.664  0.9506  1.7684  0.4694
 3092TIP3    H2 9222   6.732   0.370   3.538 -0.2680 -1.6672 -0.4898
 3093TIP3   OH2 9223   3.162   4.651   0.933  0.4932 -0.1154  0.5867
 3093TIP3    H1 9224   3.142   4.568   0.891  1.6547 -0.3119  0.4050
 3093TIP3    H2 9225   3.257   4.659   0.927  0.3752  1.3477  0.3673
 3094TIP3   OH2 9226   7.407   1.494   2.149 -0.0183 -0.3203 -0.6784
 3094TIP3    H1 9227   7.377   1.522   2.235  0.5212 -0.2132 -0.5202
 3094TIP3    H2 9228   7.328   1.491   2.095 -0.5382 -1.6689  0.1622
 3095TIP3   OH2 9229   5.271   1.043   1.346 -0.1828 -0.6303  0.2213
 3095TIP3    H1 9230   5.360   1.012   1.327  0.0896  0.1211  0.2513
 3095TIP3    H2 9231   5.268   1.130   1.307 -1.6454 -1.5144 -1.7287
 3096TIP3   OH2 9232   5.880   5.221   2.967 -0.3388  0.0324 -0.0543
 3096TIP3    H1 9233   5.819   5.261   3.030 -0.0251 -1.5125  1.2617
 3096TIP3    H2 9234   5.967   5.247   2.998 -0.2302  0.2155 -0.5146
 3097TIP3   OH2 9235   7.675   2.720   2.180  0.2770  0.1596  0.2701
 3097TIP3    H1 9236   7.688   2.738   2.087 -0.8685  0.2343  0.1255
 3097TIP3    H2 9237   7.599   2.772   2.205 -1.2642 -2.1659  0.5382
 3098TIP3   OH2 9238   4.215   4.806   6.924  0.6523 -0.5056 -0.5105
 3098TIP3    H1 9239   4.265   4.787   7.004  1.4212  0.4413 -0.7470
 3098TIP3    H2 9240   4.279   4.849   6.866 -0.2953  0.2259 -1.0305
 3099TIP3   OH2 9241   6.131   2.201   6.505 -0.7405  0.1420  0.3500
 3099TIP3    H1 9242   6.163   2.179   6.592  0.1311  1.6836  0.4327
 3099TIP3    H2 9243   6.207   2.192   6.448 -1.4044 -1.2990 -0.3660
 3100TIP3   OH2 9244   4.668   3.343   0.935  0.8106 -0.2131  0.6467
 3100TIP3    H1 9245   4.744   3.284   0.934  0.3172 -0.8328 -0.9867
 3100TIP3    H2 9246   4.691   3.413   0.875 -0.2981 -0.9310 -0.6461
 3101TIP3   OH2 9247   1.979   3.116   1.595  0.2233 -0.3765  0.0863
 3101TIP3    H1 9248   1.973   3.195   1.649 -1.5740 -0.8076  0.5615
 3101TIP3    H2 9249   2.050   3.134   1.534  1.5891  0.5359  1.9101
 3102TIP3   OH2 9250   8.262   0.969   2.606 -0.1429 -0.2804  0.4829
 3102TIP3    H1 9251   8.213   0.908   2.661 -1.5737  0.2066 -0.2239
 3102TIP3    H2 9252   8.285   0.918   2.528 -0.6946 -0.1280  0.2202
 3103TIP3   OH2 9253   3.646   7.885   2.090  0.1619 -0.0839 -0.4630
 3103TIP3    H1 9254   3.673   7.801   2.129 -1.1956  0.4753  1.7448
 3103TIP3    H2 9255   3.726   7.937   2.090  0.6369 -0.7936 -0.3124
 3104TIP3   OH2 9256   0.372   2.364   3.828  0.1009 -0.1140 -0.0144
 3104TIP3    H1 9257   0.336   2.379   3.741 -0.5512 -3.0693 -0.3286
 3104TIP3    H2 9258   0.295   2.346   3.883  0.7130 -1.1414  0.5187
 3105TIP3   OH2 9259   6.682   2.206   0.850 -0.5707  0.3115 -0.0264
 3105TIP3    H1 9260   6.739   2.214   0.773  0.7007 -0.1256  0.8561
 3105TIP3    H2 9261   6.659   2.113   0.852  0.4087  0.0814  0.8275
 3106TIP3   OH2 9262   1.008   2.277   2.673  0.1564  0.0043 -0.0085
 3106TIP3    H1 9263   1.039   2.303   2.760  0.9777  0.0851 -0.3292
 3106TIP3    H2 9264   1.084   2.237   2.631 -0.0746  0.5111 -0.9224
 3107TIP3   OH2 9265   0.127   1.085   0.801 -0.5719  0.2856  0.0584
 3107TIP3    H1 9266   0.070   1.025   0.754 -0.1182  0.4543 -0.7214
 3107TIP3    H2 9267   0.166   1.140   0.732  1.2671 -0.4549  0.4912
 3108TIP3   OH2 9268   6.850   1.188   1.641  0.3257  0.0605 -0.5417
 3108TIP3    H1 9269   6.881   1.276   1.617 -1.4089  0.3232 -1.9041
 3108TIP3    H2 9270   6.829   1.147   1.557 -2.6262 -0.2457  0.3062
 3109TIP3   OH2 9271   6.662   3.506   2.155  0.1623 -0.6259 -0.0107
 3109TIP3    H1 9272   6.738   3.565   2.157  0.5112 -1.1106  2.3683
 3109TIP3    H2 9273   6.606   3.536   2.226 -0.7589 -1.7526 -0.2427
 3110TIP3   OH2 9274   7.069   0.679   1.865  0.3514  0.0149 -0.1572
 3110TIP3    H1 9275   7.132   0.641   1.804  0.2165 -0.4456 -0.0120
 3110TIP3    H2 9276   7.044   0.762   1.825  0.3275 -0.2460 -0.6907
 3111TIP3   OH2 9277   6.786   0.447   3.362  0.0303 -0.9024  0.1759
 3111TIP3    H1 9278   6.815   0.443   3.271 -1.6006 -0.0349 -0.4025
 3111TIP3    H2 9279   6.695   0.474   3.357  0.8781  2.7290  2.1986
 3112TIP3   OH2 9280   7.879   1.948   1.224 -0.0770  0.7036  0.3571
 3112TIP3    H1 9281   7.832   2.008   1.282 -0.2177  0.8900  0.0526
 3112TIP3    H2 9282   7.814   1.884   1.196  0.3691 -0.3698  1.7111
 3113TIP3   OH2 9283   7.602   1.708   2.374 -0.4237  0.3156 -0.0390
 3113TIP3    H1 9284   7.534   1.714   2.441  1.0010  1.5557  1.3562
 3113TIP3    H2 9285   7.599   1.793   2.329  1.8259  1.4120  1.7298
 3114TIP3   OH2 9286   6.795   0.396   1.697 -0.5748 -0.0311  0.4559
 3114TIP3    H1 9287   6.737   0.404   1.622 -1.2042 -1.9275  0.7074
 3114TIP3    H2 9288   6.765   0.463   1.759 -1.2057  0.3189 -0.2303
 3115TIP3   OH2 9289   8.167   0.748   1.655  0.2612 -0.0107  0.1130
 3115TIP3    H1 9290   8.200   0.834   1.679 -0.8134  0.1942  0.9111
 3115TIP3    H2 9291   8.072   0.757   1.659  0.1413 -1.2161  0.1397
 3116TIP3   OH2 9292   8.296   1.440   1.056  0.1786  0.2733 -0.0586
 3116TIP3    H1 9293   8.361   1.374   1.034 -2.0505 -1.6835 -1.0769
 3116TIP3    H2 9294   8.242   1.447   0.977 -0.9708  1.6656  0.8340
 3117TIP3   OH2 9295   0.498   2.699   2.060 -0.1375  0.5841 -0.5669
 3117TIP3    H1 9296   0.568   2.643   2.026 -0.2042  0.2225 -0.1151
 3117TIP3    H2 9297   0.517   2.706   2.153 -0.1920  1.2305 -0.6046
 3118TIP3   OH2 9298   8.227   2.651   2.974  0.2017  0.0687 -0.2706
 3118TIP3    H1 9299   8.171   2.729   2.976 -0.0401 -0.0224 -2.1692
 3118TIP3    H2 9300   8.257   2.646   2.883  0.5817 -1.7949 -0.0567
 3119TIP3   OH2 9301   1.037   6.855   6.891  0.4308  0.1164 -0.8598
 3119TIP3    H1 9302   1.019   6.946   6.868  2.2807  0.8592  0.4274
 3119TIP3    H2 9303   1.004   6.845   6.980 -1.3335 -1.0091 -1.6023
 3120TIP3   OH2 9304   7.117   1.783   1.971  0.3104 -0.6595  0.0242
 3120TIP3    H1 9305   7.155   1.763   2.056 -1.3819 -0.8446  0.7486
 3120TIP3    H2 9306   7.026   1.806   1.989  0.3613  0.9314 -1.5610
 3121TIP3   OH2 9307   7.947   0.568   2.107 -0.3324 -0.0593  0.4996
 3121TIP3    H1 9308   7.997   0.486   2.104  2.7262  1.6998  0.9160
 3121TIP3    H2 9309   7.975   0.609   2.189 -0.1109  2.4108 -0.7878
 3122TIP3   OH2 9310   6.486   3.761   0.464 -0.5157 -0.4950 -0.6760
 3122TIP3    H1 9311   6.464   3.828   0.529 -0.4522  0.1989 -1.3689
 3122TIP3    H2 9312   6.580   3.745   0.478 -0.1022  0.8735 -1.6935
 3123TIP3   OH2 9313   0.900   1.754   3.513  0.1033  0.1413  0.2386
 3123TIP3    H1 9314   0.969   1.688   3.524 -1.4071 -1.9550 -2.3097
 3123TIP3    H2 9315   0.821   1.704   3.494 -2.0723  2.5289  2.5344
 3124TIP3   OH2 9316   7.415   3.644   1.566  0.3852 -0.1536  0.1771
 3124TIP3    H1 9317   7.408   3.672   1.658  0.9196 -1.1279  0.5185
 3124TIP3    H2 9318   7.441   3.552   1.571  1.4965  0.0901 -0.9679
 3125TIP3   OH2 9319   1.221   3.635   1.701  0.5181 -0.3724 -0.5412
 3125TIP3    H1 9320   1.224   3.717   1.651  1.3307 -0.1442 -0.1302
 3125TIP3    H2 9321   1.181   3.572   1.642  2.6032 -0.4256 -1.9708
 3126TIP3   OH2 9322   8.008   1.715   0.737 -1.0037 -0.3734  0.2798
 3126TIP3    H1 9323   8.082   1.662   0.764  0.0075  1.0150  0.3116
 3126TIP3    H2 9324   8.012   1.792   0.793 -2.7042 -0.4631  0.5466
 3127TIP3   OH2 9325   5.965   1.439   1.935 -0.4735 -0.1956 -0.2163
 3127TIP3    H1 9326   5.960   1.513   1.996  0.2823  0.6848 -1.2002
 3127TIP3    H2 9327   6.021   1.375   1.979 -0.1624  0.3171  0.1345
 3128TIP3   OH2 9328   0.810   4.042   2.834 -0.5895  0.2521  0.1734
 3128TIP3    H1 9329   0.878   4.107   2.849 -0.8230  0.6921 -0.6449
 3128TIP3    H2 9330   0.734   4.076   2.880 -0.4664  0.1281  0.4693
 3129TIP3   OH2 9331   7.388   2.316   2.702 -0.6421  1.1632 -0.3610
 3129TIP3    H1 9332   7.317   2.379   2.713 -0.6803  1.2947 -1.3053
 3129TIP3    H2 9333   7.455   2.346   2.764 -1.0427  1.5702 -0.1160
 3130TIP3   OH2 9334   5.269   2.305   1.082  0.1368 -0.4536 -0.7469
 3130TIP3    H1 9335   5.207   2.329   1.014  0.8112 -1.3086 -1.6855
 3130TIP3    H2 9336   5.218   2.307   1.163 -1.0602 -0.9212 -1.4744
 3131TIP3   OH2 9337   7.796   3.042   2.014  0.6043 -0.1366  0.3221
 3131TIP3    H1 9338   7.883   3.007   2.033  0.7636  0.7824  1.3852
 3131TIP3    H2 9339   7.745   2.967   1.986  1.4819 -0.8604  0.6481
 3132TIP3   OH2 9340   8.294   3.431   3.085 -0.7555 -0.1669  0.5969
 3132TIP3    H1 9341   8.323   3.381   3.009  0.0411 -1.7682  1.9010
 3132TIP3    H2 9342   8.270   3.516   3.051  1.2230 -0.2919 -1.1926
 3133TIP3   OH2 9343   6.954   1.368   1.153  0.1957  0.3190  0.6186
 3133TIP3    H1 9344   6.984   1.446   1.108  3.7240 -1.5824 -0.4882
 3133TIP3    H2 9345   6.981   1.295   1.097 -2.0145 -1.7689  2.1463
 3134TIP3   OH2 9346   1.338   1.213   0.282 -0.2660 -0.2383 -0.7446
 3134TIP3    H1 9347   1.292   1.161   0.216 -0.3138 -0.8723 -0.2199
 3134TIP3    H2 9348   1.427   1.221   0.248 -0.3955 -0.2105 -1.0828
 3135TIP3   OH2 9349   7.161   3.008   1.935  0.2929 -0.9542  0.4822
 3135TIP3    H1 9350   7.127   2.970   1.854 -0.9571 -1.0934  1.0715
 3135TIP3    H2 9351   7.205   3.089   1.907 -0.2671 -0.9158 -0.3058
 3136TIP3   OH2 9352   6.372   1.476   0.509 -0.1096  0.3872 -0.0311
 3136TIP3    H1 9353   6.287   1.452   0.546 -0.5741  1.6579 -0.2572
 3136TIP3    H2 9354   6.385   1.567   0.536  0.5003  0.6623 -1.2555
 3137TIP3   OH2 9355   7.612   1.627   1.998 -0.2950 -0.1061  0.3249
 3137TIP3    H1 9356   7.543   1.621   2.063 -1.1875  1.1787 -0.4752
 3137TIP3    H2 9357   7.652   1.713   2.012  0.3704 -0.3647  0.0392
 3138TIP3   OH2 9358   7.172   1.467   1.981 -0.0088 -0.1997 -0.3423
 3138TIP3    H1 9359   7.128   1.543   1.943  0.3957 -1.1387 -2.7958
 3138TIP3    H2 9360   7.138   1.393   1.931 -0.3417 -1.6540  1.9584
 3139TIP3   OH2 9361   0.852   1.975   4.423  0.2358  0.4060  0.1973
 3139TIP3    H1 9362   0.938   1.945   4.453  0.4059 -0.0391 -0.7037
 3139TIP3    H2 9363   0.802   1.990   4.503  1.2323  0.8928  0.7315
 3140TIP3   OH2 9364   0.359   1.758   3.578 -0.5360 -0.6337 -0.4364
 3140TIP3    H1 9365   0.316   1.812   3.644 -0.9121 -1.3456 -0.0914
 3140TIP3    H2 9366   0.341   1.668   3.605  1.8384 -0.9699  0.1747
 3141TIP3   OH2 9367   0.759   2.063   1.517 -0.3987 -0.0439  0.0682
 3141TIP3    H1 9368   0.853   2.071   1.531 -0.0050  0.8077 -2.6323
 3141TIP3    H2 9369   0.719   2.112   1.589  1.2255 -0.2266  1.1132
 3142TIP3   OH2 9370   6.660   4.644   2.508 -0.1990 -0.4342 -0.6708
 3142TIP3    H1 9371   6.692   4.708   2.444 -0.5087  1.6071  1.1726
 3142TIP3    H2 9372   6.739   4.618   2.556 -0.1348 -1.1508 -1.1623
 3143TIP3   OH2 9373   7.844   0.626   1.850 -0.1834  0.0825  0.0373
 3143TIP3    H1 9374   7.909   0.626   1.921  0.3282  1.7075 -0.4255
 3143TIP3    H2 9375   7.846   0.715   1.815 -0.5913 -0.6408 -1.8857
 3144TIP3   OH2 9376   7.339   1.445   0.929 -0.1223 -0.0149  0.3837
 3144TIP3    H1 9377   7.350   1.383   1.001 -1.9132  0.3291  0.9723
 3144TIP3    H2 9378   7.347   1.391   0.850 -0.6816 -0.8353  0.8766
 3145TIP3   OH2 9379   7.788   0.751   2.465  0.1745  0.2174 -0.8388
 3145TIP3    H1 9380   7.816   0.821   2.525  0.0973  1.5272 -2.3162
 3145TIP3    H2 9381   7.862   0.740   2.405 -1.1797  1.4968 -2.7865
 3146TIP3   OH2 9382   0.051   2.574   3.764  0.3574  0.3883 -0.0038
 3146TIP3    H1 9383  -0.025   2.632   3.753 -0.9883 -0.7999  2.4802
 3146TIP3    H2 9384   0.054   2.522   3.684 -2.8049 -1.0200  0.7185
 3147TIP3   OH2 9385   7.452   0.058   2.283 -0.7156 -0.7206  0.1162
 3147TIP3    H1 9386   7.467  -0.006   2.352 -2.4985 -3.0213 -1.5009
 3147TIP3    H2 9387   7.405   0.008   2.215 -2.5893  2.4196 -1.0081
 3148TIP3   OH2 9388   7.496   2.381   0.548  0.0815  0.1443  0.1174
 3148TIP3    H1 9389   7.413   2.429   0.553  0.5537  0.9799 -0.0593
 3148TIP3    H2 9390   7.480   2.314   0.481 -1.1616 -1.1148  1.6177
 3149TIP3   OH2 9391   8.158   1.267   2.053 -0.3750  0.2134  0.4806
 3149TIP3    H1 9392   8.158   1.294   1.961  1.1372  0.0089  0.4097
 3149TIP3    H2 9393   8.191   1.343   2.101  0.5918 -0.2991  0.6489
 3150TIP3   OH2 9394   5.023   7.222   1.556  0.4074 -0.4813  0.3550
 3150TIP3    H1 9395   4.929   7.241   1.564  0.1336 -1.9244  0.7260
 3150TIP3    H2 9396   5.026   7.133   1.522  1.6521 -0.3336  0.0721
 3151TIP3   OH2 9397   7.899   1.646   3.171 -0.4790 -0.0629 -0.1407
 3151TIP3    H1 9398   7.982   1.614   3.137 -0.5108 -0.5998  0.2829
 3151TIP3    H2 9399   7.890   1.605   3.257 -0.9433  0.3853  0.0305
 3152TIP3   OH2 9400   7.916   3.606   3.517 -0.2620 -0.2585  0.2223
 3152TIP3    H1 9401   7.886   3.659   3.443 -0.0202 -2.7243 -1.7077
 3152TIP3    H2 9402   8.001   3.573   3.490  0.0792 -0.7358  1.8544
 3153TIP3   OH2 9403   6.866   2.436   2.651 -0.1676 -0.1534 -0.0749
 3153TIP3    H1 9404   6.893   2.416   2.562  0.4052 -1.6484  0.4214
 3153TIP3    H2 9405   6.861   2.532   2.653 -2.1088 -0.1779 -2.2318
 3154TIP3   OH2 9406   6.159   1.772   1.959  1.0052  0.0730 -0.0799
 3154TIP3    H1 9407   6.074   1.801   1.926  1.4412  1.1785 -0.2528
 3154TIP3    H2 9408   6.145   1.681   1.984 -0.2158  0.2272 -0.1631
 3155TIP3   OH2 9409   6.757   1.733   0.482 -0.1792  0.3769 -0.0948
 3155TIP3    H1 9410   6.697   1.798   0.517 -0.8204  0.6486 -1.6497
 3155TIP3    H2 9411   6.842   1.778   0.480 -0.4418  0.8625 -0.3232
 3156TIP3   OH2 9412   6.987   1.845   1.663 -0.5793 -0.1755  0.4998
 3156TIP3    H1 9413   6.997   1.763   1.711  0.4063  0.9456  2.2679
 3156TIP3    H2 9414   7.073   1.887   1.670 -1.2975  1.3650  0.3087
 3157TIP3   OH2 9415   6.322   2.921   1.207 -0.1158 -0.5256 -0.0182
 3157TIP3    H1 9416   6.362   2.995   1.254 -1.5021 -0.8890  1.7788
 3157TIP3    H2 9417   6.385   2.849   1.218  0.6073 -0.0023 -0.6399
 3158TIP3   OH2 9418   6.922   0.182   1.617  0.5101  0.0670 -0.1345
 3158TIP3    H1 9419   6.882   0.268   1.625  1.8706  0.6871  0.2714
 3158TIP3    H2 9420   6.876   0.140   1.545 -1.8351  0.1751  1.2700
 3159TIP3   OH2 9421   8.399   2.567   0.353  0.4685  0.0632 -0.3633
 3159TIP3    H1 9422   8.404   2.536   0.263  2.1385  1.1388 -0.6653
 3159TIP3    H2 9423   8.456   2.644   0.355 -0.1612  0.5051  1.4223
 3160TIP3   OH2 9424   6.845   0.899   3.814 -0.5371  0.1351 -0.0969
 3160TIP3    H1 9425   6.829   0.992   3.823  0.4480  0.5185 -2.0637
 3160TIP3    H2 9426   6.941   0.891   3.814 -0.6031 -0.7530 -1.1163
 3161TIP3   OH2 9427   8.036   2.568   2.029 -0.5269 -0.0136 -0.0387
 3161TIP3    H1 9428   8.085   2.511   2.088  0.2132 -0.6795 -1.2740
 3161TIP3    H2 9429   8.005   2.510   1.959  1.6768  1.3044 -2.2264
 3162TIP3   OH2 9430   7.283   0.680   1.402  0.2503  0.0527 -0.1104
 3162TIP3    H1 9431   7.187   0.682   1.405  0.3019  0.5043  1.2634
 3162TIP3    H2 9432   7.303   0.632   1.322 -1.1263 -0.1516 -0.3414
 3163TIP3   OH2 9433   5.608   0.629   0.902  0.4043  0.4601  0.4516
 3163TIP3    H1 9434   5.616   0.552   0.845  0.6280  0.3375  0.6512
 3163TIP3    H2 9435   5.609   0.594   0.991  1.9808  0.8290  0.5830
 3164TIP3   OH2 9436   7.403   0.065   2.744  0.2045  0.0299  0.2843
 3164TIP3    H1 9437   7.434   0.145   2.701 -2.4923  0.3717 -1.1168
 3164TIP3    H2 9438   7.443  -0.006   2.693  1.0327  0.4476  0.3297
 3165TIP3   OH2 9439   8.329   2.102   2.911  0.1492  0.1422  0.2067
 3165TIP3    H1 9440   8.330   2.164   2.838  2.1415  0.0932  0.1778
 3165TIP3    H2 9441   8.400   2.132   2.969 -0.2673 -0.8593  1.2455
 3166TIP3   OH2 9442   0.342   2.672   4.146  0.1616 -0.0797  0.8812
 3166TIP3    H1 9443   0.310   2.693   4.058 -0.5267  1.1680  1.4291
 3166TIP3    H2 9444   0.270   2.624   4.187  0.6061 -0.9429  0.6586
 3167TIP3   OH2 9445   5.470   5.976   2.412  0.2231  0.6901  0.0893
 3167TIP3    H1 9446   5.419   5.953   2.335  1.4055 -0.6363 -0.3252
 3167TIP3    H2 9447   5.429   5.927   2.484 -2.1563  3.5244  0.7361
 3168TIP3   OH2 9448   6.910   2.143   1.824  0.6516 -0.0265  0.4859
 3168TIP3    H1 9449   6.817   2.119   1.833  1.0123 -2.3445 -1.3253
 3168TIP3    H2 9450   6.950   2.117   1.907 -0.4297  1.6490  1.5584
 3169TIP3   OH2 9451   6.553   3.555   1.902 -0.1755  0.3400 -0.4709
 3169TIP3    H1 9452   6.610   3.612   1.850  1.6058 -2.0681 -1.2033
 3169TIP3    H2 9453   6.604   3.536   1.981 -1.1154  0.4010  0.1591
 3170TIP3   OH2 9454   0.897   2.115   1.985 -0.4011 -0.8754 -0.6995
 3170TIP3    H1 9455   0.968   2.065   1.945  0.6922  1.8022 -2.2311
 3170TIP3    H2 9456   0.817   2.072   1.954  0.4963 -2.0516 -1.4328
 3171TIP3   OH2 9457   6.533   4.036   1.656  0.2706  0.1351  0.3667
 3171TIP3    H1 9458   6.549   3.964   1.595  1.1014  0.4264  0.2361
 3171TIP3    H2 9459   6.511   4.111   1.600 -2.0548 -0.3658  0.5573
 3172TIP3   OH2 9460   7.609   2.375   2.843 -0.1937  0.0114  0.7736
 3172TIP3    H1 9461   7.654   2.458   2.826 -2.0113  0.8202 -0.2505
 3172TIP3    H2 9462   7.583   2.381   2.935  1.0912 -0.1421  1.1613
 3173TIP3   OH2 9463   5.130   3.879   3.162  0.4351  0.4453 -0.0214
 3173TIP3    H1 9464   5.096   3.908   3.247  0.7451  2.5785 -0.5854
 3173TIP3    H2 9465   5.168   3.958   3.124 -0.0835 -0.3864 -2.3315
 3174TIP3   OH2 9466   7.121   4.162   3.229 -0.5111  0.4669 -0.1892
 3174TIP3    H1 9467   7.049   4.124   3.180 -1.6532  2.5116 -0.1465
 3174TIP3    H2 9468   7.169   4.087   3.265 -3.1418 -0.9027  0.5275
 3175TIP3   OH2 9469   0.561   2.204   1.690 -0.4841  0.2623  0.2308
 3175TIP3    H1 9470   0.482   2.241   1.729 -0.1876  1.0785  0.0555
 3175TIP3    H2 9471   0.630   2.266   1.711  0.2091 -0.6752  0.7754
 3176TIP3   OH2 9472   5.271   7.947   3.195  0.1647 -0.1205 -0.5511
 3176TIP3    H1 9473   5.327   7.869   3.192  1.0323  0.4236  1.2142
 3176TIP3    H2 9474   5.288   7.992   3.113  2.7914  0.3615  0.2363
 3177TIP3   OH2 9475   3.687   6.830   6.805 -0.2543 -0.2276  0.0393
 3177TIP3    H1 9476   3.708   6.858   6.716  0.2557 -0.8768 -0.0563
 3177TIP3    H2 9477   3.666   6.910   6.852 -1.4449  0.0255 -0.9101
 3178TIP3   OH2 9478   6.658   2.266   1.258 -0.1674 -0.1076 -0.1805
 3178TIP3    H1 9479   6.690   2.225   1.338  1.3132  1.3044 -0.0213
 3178TIP3    H2 9480   6.713   2.229   1.188  2.2618  2.6563  0.1487
 3179TIP3   OH2 9481   0.626   1.853   1.420 -0.2816 -0.4565  0.2103
 3179TIP3    H1 9482   0.709   1.807   1.406 -0.7546 -1.0228 -0.7724
 3179TIP3    H2 9483   0.651   1.944   1.436  0.4868 -0.4439 -1.0059
 3180TIP3   OH2 9484   0.547   3.357   1.778  0.0927  0.2967 -0.6568
 3180TIP3    H1 9485   0.457   3.360   1.810  0.1786 -0.6296 -0.3057
 3180TIP3    H2 9486   0.574   3.448   1.772 -0.6282  0.5493 -0.0508
 3181TIP3   OH2 9487   7.899   0.876   1.773 -0.5519 -0.1838 -0.0156
 3181TIP3    H1 9488   7.982   0.917   1.796 -0.0483 -1.5920  0.7803
 3181TIP3    H2 9489   7.853   0.941   1.721  0.2392  1.3451  1.1646
 3182TIP3   OH2 9490   6.044   2.199   1.736 -0.6236  0.5452 -0.3378
 3182TIP3    H1 9491   6.005   2.257   1.671  0.4573 -0.2324 -1.7265
 3182TIP3    H2 9492   5.971   2.170   1.790 -1.4156  1.8771 -0.6697
 3183TIP3   OH2 9493   4.527   0.390   6.912  0.4643 -0.4548 -0.3416
 3183TIP3    H1 9494   4.488   0.361   6.830  1.4019  0.6263 -1.1955
 3183TIP3    H2 9495   4.586   0.319   6.938  0.2188 -0.7682 -0.6422
 3184TIP3   OH2 9496   2.170   3.811   4.399 -0.3156 -0.2040 -0.3619
 3184TIP3    H1 9497   2.265   3.818   4.400 -0.1770 -1.7592 -0.7834
 3184TIP3    H2 9498   2.146   3.784   4.487 -0.3033 -0.4734 -0.4401
 3185TIP3   OH2 9499   2.369   3.444   4.250  0.6227 -0.3728 -0.5430
 3185TIP3    H1 9500   2.436   3.513   4.247  1.5475 -1.1980  0.8429
 3185TIP3    H2 9501   2.401   3.378   4.188  0.6196 -0.3536 -0.5652
 3186TIP3   OH2 9502   1.408   4.388   3.908 -0.8207 -0.2166  0.2791
 3186TIP3    H1 9503   1.467   4.317   3.933 -0.0055  0.1371 -0.6257
 3186TIP3    H2 9504   1.461   4.467   3.915 -1.7940  0.3525  1.5301
 3187TIP3   OH2 9505   1.829   2.787   3.460 -0.1972 -0.6307  0.0824
 3187TIP3    H1 9506   1.741   2.818   3.481  0.5299  1.1431  0.6126
 3187TIP3    H2 9507   1.872   2.861   3.417  1.4735 -1.0022  1.0384
 3188TIP3   OH2 9508   8.189   3.633   4.176  0.7285  0.3391  0.1809
 3188TIP3    H1 9509   8.151   3.689   4.109 -1.7957 -1.2203  0.2157
 3188TIP3    H2 9510   8.244   3.572   4.128  1.2949  1.0991 -0.1419
 3189TIP3   OH2 9511   6.165   3.881   3.907 -0.0207 -0.1852 -0.0358
 3189TIP3    H1 9512   6.103   3.825   3.955 -1.3516  0.2824 -1.1731
 3189TIP3    H2 9513   6.167   3.962   3.958 -0.9840  0.0982 -0.4347
 3190TIP3   OH2 9514   1.561   4.312   4.622  0.4899  0.3526  0.2663
 3190TIP3    H1 9515   1.548   4.300   4.528 -1.3609  0.4947  0.4798
 3190TIP3    H2 9516   1.480   4.354   4.651  1.3238  0.8987  1.8104
 3191TIP3   OH2 9517   0.902   4.204   4.874  0.1432 -0.6638 -0.0596
 3191TIP3    H1 9518   0.818   4.249   4.887 -0.2126 -1.8441  1.8834
 3191TIP3    H2 9519   0.965   4.275   4.859 -0.8603  0.3289  0.3666
 3192TIP3   OH2 9520   2.823   3.201   4.332  0.0276 -0.0814 -0.2156
 3192TIP3    H1 9521   2.869   3.210   4.248  0.6580  0.8982  0.2196
 3192TIP3    H2 9522   2.862   3.122   4.371  0.8007  0.3091 -0.1860
 3193TIP3   OH2 9523   0.188   2.782   1.780 -0.3514  0.1139  0.2357
 3193TIP3    H1 9524   0.237   2.818   1.853  0.1595  1.1403 -0.5963
 3193TIP3    H2 9525   0.190   2.851   1.713 -2.1702 -0.1642 -0.1417
 3194TIP3   OH2 9526   7.046   1.440   2.237  0.0232  0.0579  0.1865
 3194TIP3    H1 9527   7.075   1.466   2.149 -0.6273  1.3957  0.3386
 3194TIP3    H2 9528   7.122   1.455   2.293  0.4514 -0.8300 -0.1436
 3195TIP3   OH2 9529   1.667   4.900   1.957  0.1803  0.1849 -0.3291
 3195TIP3    H1 9530   1.615   4.977   1.933 -2.0295 -1.6011 -1.5375
 3195TIP3    H2 9531   1.634   4.874   2.043 -0.3156 -0.4018 -0.6870
 3196TIP3   OH2 9532   0.157   2.025   2.457 -0.1885  0.3335  0.8131
 3196TIP3    H1 9533   0.091   1.989   2.398  1.7171  0.7260 -1.6438
 3196TIP3    H2 9534   0.236   1.974   2.440  1.4888  3.0310  0.0404
 3197TIP3   OH2 9535   8.053   5.345   3.606  0.1459 -0.5983 -0.2021
 3197TIP3    H1 9536   8.055   5.253   3.579 -2.0794 -0.8880  0.5604
 3197TIP3    H2 9537   7.999   5.346   3.685  2.7845  0.9155  1.6709
 3198TIP3   OH2 9538   0.368   1.381   2.965 -0.1940  0.2354 -0.1269
 3198TIP3    H1 9539   0.329   1.361   2.880 -2.3206  0.4441  0.7729
 3198TIP3    H2 9540   0.433   1.448   2.946 -0.5052  0.1356 -1.6199
 3199TIP3   OH2 9541   1.577   4.859   4.165  0.0277  0.1153 -0.0282
 3199TIP3    H1 9542   1.517   4.806   4.217 -1.0025  1.5353  0.2903
 3199TIP3    H2 9543   1.557   4.837   4.074  0.9054 -1.3878  0.1261
 3200TIP3   OH2 9544   0.117   1.691   3.281 -0.0069 -0.1584 -0.3986
 3200TIP3    H1 9545   0.075   1.657   3.360 -3.3346  0.4206 -1.8194
 3200TIP3    H2 9546   0.144   1.613   3.232 -1.4636 -0.6348 -0.4676
 3201TIP3   OH2 9547   0.015   2.046   2.019  0.0324  0.4917  0.1753
 3201TIP3    H1 9548  -0.026   2.023   1.936 -0.2609  0.3766  0.3516
 3201TIP3    H2 9549   0.022   2.141   2.017 -0.2369  0.5119  0.1394
 3202TIP3   OH2 9550   1.023   4.100   3.364  0.1508  0.3564 -0.6974
 3202TIP3    H1 9551   1.052   4.185   3.330  1.1857 -0.1313 -1.0725
 3202TIP3    H2 9552   1.009   4.115   3.457  0.5890  0.8837 -0.7124
 3203TIP3   OH2 9553   8.510   4.525   2.375 -0.3670 -0.3293  0.2382
 3203TIP3    H1 9554   8.423   4.508   2.338 -0.9477 -0.4793  1.6338
 3203TIP3    H2 9555   8.539   4.606   2.333 -1.6848  0.3569  0.6079
 3204TIP3   OH2 9556   1.238   5.685   1.945  0.4220  0.0625 -0.2375
 3204TIP3    H1 9557   1.160   5.666   1.892  0.9545  2.2656 -1.8601
 3204TIP3    H2 9558   1.311   5.662   1.889  0.9886  1.8276 -0.2366
 3205TIP3   OH2 9559   1.479   0.955   3.778  0.0838  0.1883  0.3670
 3205TIP3    H1 9560   1.567   0.976   3.747 -0.4485 -0.5688 -1.7311
 3205TIP3    H2 9561   1.438   0.910   3.705 -1.5517 -0.8358  1.8707
 3206TIP3   OH2 9562   0.335   1.505   3.722  0.1884  0.2830  0.2177
 3206TIP3    H1 9563   0.304   1.562   3.792  1.0605  0.9323  0.0774
 3206TIP3    H2 9564   0.430   1.506   3.730  0.2340 -0.8595 -0.0192
 3207TIP3   OH2 9565   2.195   3.281   2.835 -0.0495  0.2901 -0.4544
 3207TIP3    H1 9566   2.186   3.376   2.833  1.6532  0.5281  1.2750
 3207TIP3    H2 9567   2.250   3.260   2.760  0.4281  0.7697 -0.2357
 3208TIP3   OH2 9568   0.953   4.185   4.338  0.2755  0.0456 -0.1760
 3208TIP3    H1 9569   0.987   4.122   4.275  1.1465 -1.0664  1.3799
 3208TIP3    H2 9570   1.031   4.229   4.373 -0.1009 -0.2794  1.0873
 3209TIP3   OH2 9571   1.769   3.295   5.048  0.3437  0.3465 -0.4156
 3209TIP3    H1 9572   1.848   3.259   5.007 -0.2803  1.0595 -2.2684
 3209TIP3    H2 9573   1.698   3.243   5.010 -0.1881  0.5739  0.2770
 3210TIP3   OH2 9574   1.196   3.499   3.858  0.3888  0.6377  0.0335
 3210TIP3    H1 9575   1.176   3.584   3.818 -0.2877  0.4846  0.0451
 3210TIP3    H2 9576   1.179   3.511   3.951  1.0939  0.7309  0.1474
 3211TIP3   OH2 9577   6.224   5.185   2.357 -0.6278  0.7866  0.1098
 3211TIP3    H1 9578   6.191   5.131   2.429 -0.4031  0.5029  0.0037
 3211TIP3    H2 9579   6.282   5.248   2.400  0.5842 -0.2587  0.0310
 3212TIP3   OH2 9580   0.518   2.399   4.280 -0.1693 -0.4636  0.1999
 3212TIP3    H1 9581   0.597   2.441   4.313 -0.6603 -0.5961  1.6058
 3212TIP3    H2 9582   0.531   2.391   4.186  0.5809  1.4150  0.1384
 3213TIP3   OH2 9583   1.193   2.120   3.095 -0.1280 -0.2137  0.3658
 3213TIP3    H1 9584   1.100   2.134   3.077 -0.9023 -3.3862  1.4760
 3213TIP3    H2 9585   1.219   2.193   3.150 -1.8048  1.0484 -0.4950
 3214TIP3   OH2 9586   0.059   5.028   4.247  0.8488  0.5266 -0.4712
 3214TIP3    H1 9587   0.069   5.007   4.155  1.6992  1.4997 -0.6044
 3214TIP3    H2 9588  -0.036   5.023   4.263  0.7266  0.1364 -1.3354
 3215TIP3   OH2 9589   8.356   3.940   4.516 -0.2800  0.3468  0.2355
 3215TIP3    H1 9590   8.447   3.916   4.536  0.4945  1.1115 -2.1990
 3215TIP3    H2 9591   8.304   3.868   4.552  1.6710 -2.6724 -2.6959
 3216TIP3   OH2 9592   0.008   5.100   3.531  0.0439  0.6306 -0.1780
 3216TIP3    H1 9593   0.091   5.104   3.484 -0.2357  2.5018 -0.5765
 3216TIP3    H2 9594   0.033   5.111   3.623  0.2707  1.0906 -0.2872
 3217TIP3   OH2 9595   1.008   3.858   2.092 -0.0548  0.0930 -0.1461
 3217TIP3    H1 9596   1.079   3.835   2.151  0.7230 -0.1241 -1.1515
 3217TIP3    H2 9597   1.052   3.891   2.013 -1.0689  0.2094 -0.6725
 3218TIP3   OH2 9598   1.915   5.004   1.959 -0.0229  0.1288 -0.3391
 3218TIP3    H1 9599   1.832   4.955   1.958  0.4223 -0.6584  0.4531
 3218TIP3    H2 9600   1.982   4.937   1.944  0.4864  0.7333 -0.7734
 3219TIP3   OH2 9601   3.158   4.250   1.920 -0.6713 -0.0918  0.2705
 3219TIP3    H1 9602   3.250   4.233   1.936 -0.8488 -3.1387 -1.6537
 3219TIP3    H2 9603   3.117   4.247   2.007  0.9714  1.0331  1.0952
 3220TIP3   OH2 9604   0.339   3.940   4.187  0.5288 -0.1563 -0.4902
 3220TIP3    H1 9605   0.309   3.853   4.163 -0.1943 -0.3517  1.0970
 3220TIP3    H2 9606   0.373   3.977   4.105 -0.2772 -1.4556 -1.4246
 3221TIP3   OH2 9607   0.479   3.785   2.425 -0.5601 -0.4126  0.4667
 3221TIP3    H1 9608   0.527   3.766   2.345 -0.2504 -1.6693  0.9343
 3221TIP3    H2 9609   0.401   3.731   2.420 -1.3702  0.7603  0.2458
 3222TIP3   OH2 9610   1.185   4.296   4.100  0.9291  0.0530 -0.3576
 3222TIP3    H1 9611   1.099   4.278   4.061  1.7988 -1.5201 -1.6127
 3222TIP3    H2 9612   1.233   4.344   4.031  1.3470  0.1993  0.0299
 3223TIP3   OH2 9613   1.574   1.628   5.187 -0.5150 -0.5348  0.4559
 3223TIP3    H1 9614   1.651   1.606   5.135 -0.0511  0.3866  0.7532
 3223TIP3    H2 9615   1.500   1.604   5.131 -0.0235 -1.9327  0.3829
 3224TIP3   OH2 9616   7.625   0.893   2.292  0.3307 -0.4036 -0.0518
 3224TIP3    H1 9617   7.668   0.849   2.365  1.2508 -2.6302 -1.8823
 3224TIP3    H2 9618   7.592   0.822   2.237  1.5308  1.1939 -2.8979
 3225TIP3   OH2 9619   8.238   5.371   4.841  1.2264 -0.2899 -0.3362
 3225TIP3    H1 9620   8.145   5.392   4.837  0.7311 -2.1233  1.0544
 3225TIP3    H2 9621   8.275   5.411   4.762 -0.7233  0.4941 -0.8751
 3226TIP3   OH2 9622   2.326   2.804   4.585  0.0026 -0.3896 -0.0089
 3226TIP3    H1 9623   2.238   2.810   4.546  0.8664  1.2973 -1.8103
 3226TIP3    H2 9624   2.354   2.895   4.593  1.5366 -0.9157  0.7015
 3227TIP3   OH2 9625   2.956   3.840   4.251 -0.1649 -0.0387  0.3851
 3227TIP3    H1 9626   2.869   3.877   4.233 -0.0133 -0.2441 -0.7733
 3227TIP3    H2 9627   3.010   3.868   4.177  0.0456 -2.2727 -0.3501
 3228TIP3   OH2 9628   0.767   4.154   2.316  0.3525 -0.0453  0.0111
 3228TIP3    H1 9629   0.862   4.150   2.330  0.1336 -2.8328  0.9556
 3228TIP3    H2 9630   0.735   4.209   2.387  1.1781  0.4267  0.0304
 3229TIP3   OH2 9631   1.464   4.534   3.284  0.0361 -0.0136  0.0221
 3229TIP3    H1 9632   1.439   4.613   3.332 -0.0853  0.8340 -1.4099
 3229TIP3    H2 9633   1.405   4.531   3.209  0.3827 -1.1858 -0.2178
 3230TIP3   OH2 9634   0.106   4.562   2.624  0.0110  0.3396  0.0522
 3230TIP3    H1 9635   0.065   4.524   2.547 -2.1074 -0.4790  1.5134
 3230TIP3    H2 9636   0.140   4.487   2.673 -0.0467  0.7175  0.6787
 3231TIP3   OH2 9637   0.524   3.258   3.834 -0.1157  0.8893 -0.0092
 3231TIP3    H1 9638   0.587   3.323   3.802  0.0011  0.2367 -1.1317
 3231TIP3    H2 9639   0.439   3.295   3.810 -0.1206  1.2570  0.5503
 3232TIP3   OH2 9640   2.430   1.835   4.044  0.1744 -0.3952  0.0086
 3232TIP3    H1 9641   2.415   1.929   4.035  0.8991 -0.3113 -0.3400
 3232TIP3    H2 9642   2.403   1.815   4.133  0.0459  0.1471  0.0948
 3233TIP3   OH2 9643   8.008   4.396   3.978  0.2541  0.3634  0.4444
 3233TIP3    H1 9644   8.072   4.356   4.038  0.6707  1.8712  1.0289
 3233TIP3    H2 9645   7.991   4.482   4.015 -0.2098  0.9563 -1.1015
 3234TIP3   OH2 9646   7.969   4.170   3.067  0.3801 -0.5083  0.0373
 3234TIP3    H1 9647   7.949   4.244   3.010  1.5211 -0.6083 -0.5249
 3234TIP3    H2 9648   7.886   4.147   3.107 -0.1304  0.5991 -0.3613
 3235TIP3   OH2 9649   2.007   2.648   4.556  0.1635  0.1455 -0.2404
 3235TIP3    H1 9650   2.047   2.673   4.640 -0.2180  1.1241 -0.3407
 3235TIP3    H2 9651   2.012   2.728   4.503 -0.7130 -0.1155 -0.7218
 3236TIP3   OH2 9652   0.801   1.794   3.905  0.3741  0.0182  0.0912
 3236TIP3    H1 9653   0.780   1.870   3.959  0.4353 -0.7305  1.1786
 3236TIP3    H2 9654   0.725   1.782   3.849  0.0624  0.4326  0.4268
 3237TIP3   OH2 9655   1.368   3.829   3.831  0.2462 -0.0667 -0.0994
 3237TIP3    H1 9656   1.352   3.918   3.801  0.5015 -0.2244 -0.7138
 3237TIP3    H2 9657   1.280   3.792   3.846  0.1538  0.4176  0.5503
 3238TIP3   OH2 9658   7.138   1.106   1.394 -0.0600 -0.0225 -0.2791
 3238TIP3    H1 9659   7.092   1.165   1.455 -0.2160 -0.1693 -0.2533
 3238TIP3    H2 9660   7.073   1.039   1.372  0.1459 -0.2362 -0.2371
 3239TIP3   OH2 9661   0.389   1.680   3.317 -0.1861 -0.4106 -0.3164
 3239TIP3    H1 9662   0.398   1.728   3.399  0.1940 -0.6316 -0.2303
 3239TIP3    H2 9663   0.300   1.702   3.286 -0.8911 -1.5072  0.9003
 3240TIP3   OH2 9664   1.136   4.026   3.089  0.5195 -0.0605  0.1182
 3240TIP3    H1 9665   1.105   4.070   3.168  1.1950  0.7943 -0.0878
 3240TIP3    H2 9666   1.231   4.028   3.095  0.5558 -1.2573 -0.0318
 3241TIP3   OH2 9667   0.233   2.654   2.697 -0.0114  0.1852 -0.6839
 3241TIP3    H1 9668   0.249   2.573   2.649 -0.2899  0.4806 -1.2886
 3241TIP3    H2 9669   0.315   2.703   2.690  0.2070 -0.1052 -0.1897
 3242TIP3   OH2 9670   7.702   4.625   3.916  0.5068  0.0297  0.3532
 3242TIP3    H1 9671   7.673   4.541   3.880  0.1597  0.2437  0.1178
 3242TIP3    H2 9672   7.762   4.660   3.850  0.0776  0.3014  0.1025
 3243TIP3   OH2 9673   0.247   4.570   4.006 -0.0004 -0.0934 -0.3420
 3243TIP3    H1 9674   0.242   4.665   3.995 -1.6956 -0.2566 -1.0674
 3243TIP3    H2 9675   0.316   4.557   4.071 -0.7368  1.7053  0.8273
 3244TIP3   OH2 9676   0.505   3.009   3.941 -0.0723 -0.3576 -0.1003
 3244TIP3    H1 9677   0.536   2.941   3.881 -2.3007 -1.2918 -0.2490
 3244TIP3    H2 9678   0.511   3.090   3.890 -0.7048 -0.9533 -1.1575
 3245TIP3   OH2 9679   8.050   2.109   3.054  0.2789 -0.1321  0.0717
 3245TIP3    H1 9680   8.137   2.094   3.016  0.9873  1.5247  0.9562
 3245TIP3    H2 9681   8.016   2.022   3.072  2.1001 -0.7839  0.4519
 3246TIP3   OH2 9682   7.548   2.902   2.680 -0.8900  0.5007 -0.3221
 3246TIP3    H1 9683   7.468   2.892   2.733 -1.2495  1.1507 -0.7350
 3246TIP3    H2 9684   7.516   2.924   2.593 -0.2945 -0.7853 -0.8694
 3247TIP3   OH2 9685   0.677   2.949   4.389  0.5921  0.1369  0.8429
 3247TIP3    H1 9686   0.745   2.895   4.427 -0.9243 -2.0890  0.4684
 3247TIP3    H2 9687   0.645   2.899   4.313  0.1445  2.2094 -0.3844
 3248TIP3   OH2 9688   0.616   1.555   3.414  0.2703  0.0379  0.2609
 3248TIP3    H1 9689   0.676   1.527   3.345  0.3147  0.1319  0.2611
 3248TIP3    H2 9690   0.549   1.606   3.369 -0.9812 -1.8450 -0.0327
 3249TIP3   OH2 9691  -0.019   3.916   3.258  0.5772 -0.2987  0.0395
 3249TIP3    H1 9692   0.073   3.893   3.262  1.0745  1.2834 -1.4521
 3249TIP3    H2 9693  -0.031   3.952   3.170 -0.9452  1.5723  0.9663
 3250TIP3   OH2 9694   0.418   5.809   4.019  0.1715 -0.1266  0.1479
 3250TIP3    H1 9695   0.366   5.887   4.000  1.2283  1.1191  2.3105
 3250TIP3    H2 9696   0.372   5.766   4.091  0.1090 -1.0251 -0.4121
 3251TIP3   OH2 9697   1.090   3.823   5.658  0.6065  0.2599  0.0542
 3251TIP3    H1 9698   1.060   3.732   5.647  0.3972  0.1486  1.4817
 3251TIP3    H2 9699   1.184   3.816   5.671  0.5149  0.2041  0.6925
 3252TIP3   OH2 9700   0.469   2.191   5.522  0.1664  0.1910  0.7183
 3252TIP3    H1 9701   0.421   2.231   5.594 -1.2886  1.0239 -0.6724
 3252TIP3    H2 9702   0.430   2.104   5.512  1.6085 -0.6314  2.0995
 3253TIP3   OH2 9703   7.943   3.122   2.889 -0.3614 -0.6678  0.1261
 3253TIP3    H1 9704   7.982   3.189   2.945  1.7677 -0.3522 -1.6748
 3253TIP3    H2 9705   7.883   3.171   2.832 -0.2732 -0.5638  0.1220
 3254TIP3   OH2 9706   7.469   5.029   2.425 -0.9890  0.5506 -0.0360
 3254TIP3    H1 9707   7.441   4.938   2.438 -0.0836  0.1464 -0.8247
 3254TIP3    H2 9708   7.504   5.030   2.336 -0.1832  1.4684  0.2937
 3255TIP3   OH2 9709   0.650   1.190   1.588  0.7162  0.3513  0.2385
 3255TIP3    H1 9710   0.590   1.245   1.537 -1.1139 -0.3089  1.6298
 3255TIP3    H2 9711   0.636   1.216   1.678  0.1267 -2.0718  0.8886
 3256TIP3   OH2 9712   1.689   2.225   3.556  0.0447 -0.3055 -0.2084
 3256TIP3    H1 9713   1.748   2.288   3.598  0.4100  0.0396 -1.2312
 3256TIP3    H2 9714   1.735   2.198   3.477 -1.0008 -0.3359 -0.8098
 3257TIP3   OH2 9715   0.427   2.371   1.475 -0.4342  0.1774 -0.2459
 3257TIP3    H1 9716   0.441   2.325   1.558  0.0265 -1.0123 -0.9700
 3257TIP3    H2 9717   0.356   2.323   1.433 -0.5610  0.6784 -0.6066
 3258TIP3   OH2 9718   0.117   3.855   4.621 -0.3330 -0.1066 -0.2565
 3258TIP3    H1 9719   0.150   3.877   4.708 -0.9282 -0.6829  0.1177
 3258TIP3    H2 9720   0.193   3.820   4.574 -0.2457 -0.7787  0.3772
 3259TIP3   OH2 9721   6.235   1.627   3.309 -0.3544  0.4650 -0.0963
 3259TIP3    H1 9722   6.284   1.667   3.381 -2.3879  1.0092  1.0297
 3259TIP3    H2 9723   6.295   1.631   3.234  1.7732 -0.0244  1.5112
 3260TIP3   OH2 9724   1.678   3.373   2.907  0.0577  0.1049 -0.5119
 3260TIP3    H1 9725   1.708   3.431   2.837  0.2632  0.1220 -0.4094
 3260TIP3    H2 9726   1.757   3.331   2.939 -0.1408 -0.5339 -0.8585
 3261TIP3   OH2 9727   7.684   4.366   2.388 -0.0586  0.4276  0.4357
 3261TIP3    H1 9728   7.729   4.342   2.307  0.4727  0.5923  0.6824
 3261TIP3    H2 9729   7.731   4.318   2.456 -0.4437  0.3668  0.6588
 3262TIP3   OH2 9730   0.155   4.385   4.252  0.2243  0.1404  0.3969
 3262TIP3    H1 9731   0.092   4.336   4.200  2.2043 -1.9117 -0.1425
 3262TIP3    H2 9732   0.189   4.452   4.192  0.2680 -0.2607 -0.0280
 3263TIP3   OH2 9733   8.324   3.441   1.351  0.7373  0.5640 -0.3153
 3263TIP3    H1 9734   8.393   3.426   1.286  1.6222  2.4530  0.1454
 3263TIP3    H2 9735   8.272   3.361   1.350  4.0003 -1.6895  0.6460
 3264TIP3   OH2 9736   1.467   1.836   1.961  0.2555 -0.4580  0.2428
 3264TIP3    H1 9737   1.391   1.817   1.905  0.9515 -0.1936 -0.8055
 3264TIP3    H2 9738   1.542   1.823   1.904  0.9713 -0.0225  1.0819
 3265TIP3   OH2 9739   7.880   5.289   3.833  0.9104 -0.6022  0.6654
 3265TIP3    H1 9740   7.817   5.218   3.822  0.1278 -0.2197  2.5067
 3265TIP3    H2 9741   7.908   5.282   3.924  3.0384 -0.3468  0.0578
 3266TIP3   OH2 9742   7.814   4.050   2.836 -0.4475  0.6412  0.6710
 3266TIP3    H1 9743   7.748   4.068   2.903 -0.2614 -0.5435  1.1761
 3266TIP3    H2 9744   7.852   4.136   2.818 -1.3234  1.1619  1.2089
 3267TIP3   OH2 9745   1.059   1.718   3.934 -0.0855  0.0165 -0.2576
 3267TIP3    H1 9746   1.050   1.639   3.988 -0.4718  1.8898  2.5471
 3267TIP3    H2 9747   0.969   1.740   3.910 -0.5860  2.6279  3.6215
 3268TIP3   OH2 9748   7.777   4.159   1.126  0.2030  0.5649 -0.2687
 3268TIP3    H1 9749   7.824   4.238   1.155 -1.4154  0.7527  1.9816
 3268TIP3    H2 9750   7.751   4.116   1.207 -0.5375 -1.3327 -1.4859
 3269TIP3   OH2 9751   1.687   3.648   2.190 -0.5176  0.4263  0.0768
 3269TIP3    H1 9752   1.669   3.742   2.186 -0.9737  0.2883 -1.1857
 3269TIP3    H2 9753   1.716   3.625   2.102  1.5205 -0.2448  0.8879
 3270TIP3   OH2 9754   0.471   4.456   2.712  0.0180 -0.5330  0.1532
 3270TIP3    H1 9755   0.523   4.467   2.792 -1.0189  3.2876  0.3913
 3270TIP3    H2 9756   0.386   4.425   2.743 -0.0444 -0.0977  0.4194
 3271TIP3   OH2 9757   8.059   3.992   4.832 -0.5663 -0.0883 -0.2126
 3271TIP3    H1 9758   7.998   3.961   4.764  0.3289 -0.0742 -1.0345
 3271TIP3    H2 9759   8.072   3.917   4.889  0.1353 -0.6667 -1.1296
 3272TIP3   OH2 9760   0.865   5.877   4.525  0.8742 -0.1920  0.4865
 3272TIP3    H1 9761   0.920   5.945   4.486  1.6743 -1.4547 -0.6247
 3272TIP3    H2 9762   0.803   5.925   4.580  2.0022  1.3646  0.4230
 3273TIP3   OH2 9763   1.091   4.335   3.256  0.2830  0.0503 -0.3602
 3273TIP3    H1 9764   1.172   4.358   3.211  1.5186 -1.0833  1.2179
 3273TIP3    H2 9765   1.077   4.407   3.318  1.1301 -0.6594  0.6806
 3274TIP3   OH2 9766   7.794   4.509   3.356 -0.2414 -0.6282  0.9074
 3274TIP3    H1 9767   7.775   4.485   3.265 -1.6335 -1.5713  1.4291
 3274TIP3    H2 9768   7.712   4.494   3.402  0.8271 -1.4606  2.5899
 3275TIP3   OH2 9769   1.746   3.633   3.269  0.0105 -0.5381  0.9282
 3275TIP3    H1 9770   1.749   3.664   3.178 -0.4334  0.9798  1.4106
 3275TIP3    H2 9771   1.807   3.560   3.271  0.7955  0.0566 -0.3660
 3276TIP3   OH2 9772   7.988   1.722   1.911  0.0324  0.0374 -0.1343
 3276TIP3    H1 9773   7.998   1.802   1.860  3.5254 -2.1482 -3.0948
 3276TIP3    H2 9774   8.071   1.714   1.960 -1.0742 -0.7493  1.6621
 3277TIP3   OH2 9775   0.050   3.340   1.231 -0.1257  0.1748 -0.6656
 3277TIP3    H1 9776   0.021   3.251   1.208 -0.4344 -0.3695  1.6656
 3277TIP3    H2 9777   0.145   3.339   1.215 -0.1888 -0.4397 -1.0262
 3278TIP3   OH2 9778   7.237   2.752   2.829  0.0689  0.2702  0.0078
 3278TIP3    H1 9779   7.146   2.755   2.859 -0.1791  1.7194 -0.8452
 3278TIP3    H2 9780   7.277   2.684   2.882 -1.8099 -1.2114 -0.4307
 3279TIP3   OH2 9781   1.311   4.481   3.648  0.1858 -0.2924  0.2730
 3279TIP3    H1 9782   1.356   4.404   3.612 -1.0402 -1.1131  0.4472
 3279TIP3    H2 9783   1.317   4.469   3.743  0.7983  0.3104  0.3116
 3280TIP3   OH2 9784   6.984   4.530   2.044  0.5618  0.3561  0.6261
 3280TIP3    H1 9785   6.935   4.534   2.126  0.1227  1.0157  0.3461
 3280TIP3    H2 9786   6.958   4.447   2.004 -2.6635  1.9606 -0.8981
 3281TIP3   OH2 9787   0.964   2.858   5.114  0.1114 -0.3375  0.4945
 3281TIP3    H1 9788   1.019   2.866   5.192 -0.4703 -2.7714  1.1899
 3281TIP3    H2 9789   0.887   2.912   5.133 -0.0413 -0.9339  1.6385
 3282TIP3   OH2 9790   1.708   2.500   1.737  0.1010 -0.0980 -0.4268
 3282TIP3    H1 9791   1.644   2.521   1.805 -0.2332 -1.3569 -0.3433
 3282TIP3    H2 9792   1.681   2.552   1.661 -0.4625  0.0870 -0.1035
 3283TIP3   OH2 9793   7.651   5.633   3.460 -0.3479  0.4703  0.1424
 3283TIP3    H1 9794   7.738   5.600   3.436 -1.0090 -1.4629  0.3373
 3283TIP3    H2 9795   7.597   5.617   3.382 -0.9591  0.0087  0.6572
 3284TIP3   OH2 9796   6.967   2.326   2.415  0.0096 -0.2525 -0.0588
 3284TIP3    H1 9797   7.038   2.271   2.448 -1.2012 -1.8111  0.0386
 3284TIP3    H2 9798   7.006   2.378   2.346  1.3887 -0.6467  0.4070
 3285TIP3   OH2 9799   8.080   1.257   4.914 -0.6440  0.1031  0.1993
 3285TIP3    H1 9800   7.998   1.235   4.958  0.6605 -0.9382  2.1863
 3285TIP3    H2 9801   8.131   1.177   4.917  1.1773  1.2470  0.6319
 3286TIP3   OH2 9802   7.201   3.700   4.165  0.1411  0.4261 -0.0990
 3286TIP3    H1 9803   7.244   3.768   4.218 -0.5467  0.1056  0.9008
 3286TIP3    H2 9804   7.267   3.633   4.153  0.4163  0.6716  0.0501
 3287TIP3   OH2 9805   7.254   5.150   2.977 -0.0182  0.2302  0.2825
 3287TIP3    H1 9806   7.172   5.149   2.928  1.0345  0.0582 -1.5171
 3287TIP3    H2 9807   7.247   5.078   3.039 -0.0180 -1.6860 -1.9058
 3288TIP3   OH2 9808   8.380   3.067   2.932 -0.3204  0.3703  0.1403
 3288TIP3    H1 9809   8.319   3.024   2.873  1.3595  0.6615 -1.8697
 3288TIP3    H2 9810   8.331   3.142   2.967 -0.8128  1.1917 -2.2199
 3289TIP3   OH2 9811   0.359   2.936   4.723  0.3748  0.6110  0.4647
 3289TIP3    H1 9812   0.307   2.900   4.795  0.2950  0.1799  0.1933
 3289TIP3    H2 9813   0.297   2.945   4.651  0.9465 -1.1953 -0.2976
 3290TIP3   OH2 9814   7.981   4.251   2.719 -0.1378 -0.4658  0.0916
 3290TIP3    H1 9815   7.942   4.337   2.731  1.2491  0.1348  0.3491
 3290TIP3    H2 9816   8.049   4.264   2.653  0.3377 -1.2716  0.4120
 3291TIP3   OH2 9817   7.223   3.292   1.854  0.4016 -0.2425  0.0838
 3291TIP3    H1 9818   7.194   3.308   1.764 -0.6906 -0.5428  0.3670
 3291TIP3    H2 9819   7.196   3.370   1.902  0.1737 -0.4641  0.3220
 3292TIP3   OH2 9820   0.052   4.203   2.810 -0.1799  0.0929 -0.0652
 3292TIP3    H1 9821  -0.005   4.209   2.734  0.7771 -1.6400 -0.9379
 3292TIP3    H2 9822   0.127   4.151   2.781  0.3759 -0.2969  1.9408
 3293TIP3   OH2 9823   2.008   5.191   3.170  0.2368 -0.1814 -0.2302
 3293TIP3    H1 9824   2.061   5.229   3.100  0.7654  0.7919  0.6971
 3293TIP3    H2 9825   2.051   5.218   3.251 -1.5998  0.5277  0.5328
 3294TIP3   OH2 9826   1.446   6.983   4.821 -0.7180 -0.5690  0.1008
 3294TIP3    H1 9827   1.477   7.032   4.745  0.3860  0.0218  0.9293
 3294TIP3    H2 9828   1.525   6.948   4.862 -1.2694 -0.5386  1.2077
 3295TIP3   OH2 9829   0.076   5.522   4.108 -0.4644  0.6432  0.0722
 3295TIP3    H1 9830   0.075   5.518   4.012 -0.0619 -0.6613  0.1074
 3295TIP3    H2 9831   0.094   5.432   4.135  0.8572  1.2692  1.3470
 3296TIP3   OH2 9832   0.735   4.416   4.152 -0.7719  0.5606  0.3114
 3296TIP3    H1 9833   0.674   4.345   4.175  1.2095 -0.9286  1.1276
 3296TIP3    H2 9834   0.787   4.380   4.081  0.7584  0.9186  1.2368
 3297TIP3   OH2 9835   8.480   1.943   3.927 -0.5002 -0.4624 -0.3532
 3297TIP3    H1 9836   8.460   1.849   3.931 -1.1105 -0.2673  2.0290
 3297TIP3    H2 9837   8.429   1.981   3.999  0.5853  1.5308 -0.6156
 3298TIP3   OH2 9838   1.199   1.756   3.662  0.5341 -0.0442  0.4140
 3298TIP3    H1 9839   1.161   1.734   3.748 -0.2170  0.2384  0.1565
 3298TIP3    H2 9840   1.164   1.690   3.603  1.7058 -0.7298  0.4801
 3299TIP3   OH2 9841   7.054   5.365   4.379  0.2948 -0.6609  0.5567
 3299TIP3    H1 9842   6.971   5.330   4.348 -0.2862  0.4193  0.8792
 3299TIP3    H2 9843   7.108   5.287   4.394  0.4502 -1.2242 -2.7017
 3300TIP3   OH2 9844   7.212   3.557   1.980 -0.2002  0.5097 -0.2247
 3300TIP3    H1 9845   7.278   3.573   1.913 -0.3125 -0.0533 -0.4687
 3300TIP3    H2 9846   7.260   3.517   2.052 -0.5593 -1.4491 -1.0543
 3301TIP3   OH2 9847   7.425   2.077   2.587 -0.1493  0.3028  0.1333
 3301TIP3    H1 9848   7.402   2.144   2.650 -0.0057 -0.6548  1.2179
 3301TIP3    H2 9849   7.513   2.101   2.556 -0.7806  1.5240 -0.7364
 3302TIP3   OH2 9850   1.176   4.318   4.410  0.0852  0.0287  0.0313
 3302TIP3    H1 9851   1.224   4.289   4.333 -1.5098 -0.7525 -0.7073
 3302TIP3    H2 9852   1.191   4.249   4.475 -1.6888 -1.3068 -0.9032
 3303TIP3   OH2 9853   7.946   2.615   3.036 -0.0248  0.2479  0.6722
 3303TIP3    H1 9854   8.040   2.598   3.044 -0.0419  0.3493  1.0731
 3303TIP3    H2 9855   7.907   2.575   3.114 -0.2272  0.8514  0.8846
 3304TIP3   OH2 9856   7.662   2.713   3.172 -0.2090  0.1404 -0.1758
 3304TIP3    H1 9857   7.732   2.649   3.182 -1.2437 -1.0722 -0.5542
 3304TIP3    H2 9858   7.695   2.774   3.107  0.3919 -0.5637 -0.5432
 3305TIP3   OH2 9859   7.643   2.079   2.896  0.1875 -0.4205 -0.1580
 3305TIP3    H1 9860   7.660   2.107   2.986 -2.4466 -1.4883  0.7082
 3305TIP3    H2 9861   7.561   2.123   2.872  0.6103 -0.5348 -1.8760
 3306TIP3   OH2 9862   1.509   4.628   6.368  0.2833  0.9320 -0.1495
 3306TIP3    H1 9863   1.453   4.615   6.444  0.9771  1.1307  0.4031
 3306TIP3    H2 9864   1.530   4.540   6.337  1.8680  0.7995  1.2764
 3307TIP3   OH2 9865   2.722   3.162   1.706  0.2288  0.1667  0.1065
 3307TIP3    H1 9866   2.818   3.157   1.703  0.1256 -1.3022 -1.8602
 3307TIP3    H2 9867   2.701   3.163   1.799  2.0696 -1.6699  0.5741
 3308TIP3   OH2 9868   0.199   3.647   3.299 -0.7310 -0.5401  0.2286
 3308TIP3    H1 9869   0.170   3.601   3.378  1.1032  1.7220  2.3152
 3308TIP3    H2 9870   0.270   3.704   3.330 -0.6656  1.1523 -2.8862
 3309TIP3   OH2 9871   7.812   3.148   5.264  0.4023  0.0959 -0.1527
 3309TIP3    H1 9872   7.885   3.189   5.309  2.1581 -2.4260 -0.6286
 3309TIP3    H2 9873   7.778   3.085   5.327  1.1439 -1.5150 -1.3546
 3310TIP3   OH2 9874   7.419   3.097   3.458 -0.1659 -0.2071  0.2353
 3310TIP3    H1 9875   7.427   3.003   3.440 -3.1824 -0.0225 -2.5001
 3310TIP3    H2 9876   7.485   3.137   3.402 -0.3416 -0.5737 -0.2452
 3311TIP3   OH2 9877   0.315   4.817   3.679 -0.1914  0.1103  0.0622
 3311TIP3    H1 9878   0.363   4.765   3.615  0.1125  0.4269  0.0337
 3311TIP3    H2 9879   0.348   4.787   3.764  2.2641  2.4264 -0.0112
 3312TIP3   OH2 9880   1.224   4.195   2.330  0.0500  0.3729  0.2122
 3312TIP3    H1 9881   1.312   4.185   2.365 -0.3341  1.4718  1.5115
 3312TIP3    H2 9882   1.168   4.148   2.392 -0.2082 -1.1007 -1.0844
 3313TIP3   OH2 9883   7.553   3.557   4.982  0.1173 -0.0367 -0.3367
 3313TIP3    H1 9884   7.629   3.608   5.012  0.6986  0.6253 -2.8390
 3313TIP3    H2 9885   7.478   3.614   5.000  0.5323  0.6816 -0.8115
 3314TIP3   OH2 9886   7.734   2.619   4.227 -0.0983  0.1613  0.0261
 3314TIP3    H1 9887   7.723   2.526   4.204 -1.8809  0.4514 -0.3540
 3314TIP3    H2 9888   7.700   2.626   4.316  2.2436  0.0138  0.9787
 3315TIP3   OH2 9889   7.760   1.491   2.407 -0.4507 -0.2247  0.1611
 3315TIP3    H1 9890   7.718   1.437   2.339  0.3768 -0.5197 -0.1202
 3315TIP3    H2 9891   7.708   1.571   2.409 -1.5155 -0.9054  0.3634
 3316TIP3   OH2 9892   8.142   1.987   3.935  0.2489 -0.2300 -0.1397
 3316TIP3    H1 9893   8.156   1.893   3.946 -0.2926 -0.1484  1.3675
 3316TIP3    H2 9894   8.069   2.007   3.994  0.6145  1.2067 -0.1619
 3317TIP3   OH2 9895   0.309   3.723   5.299  0.1809 -0.2030  0.6518
 3317TIP3    H1 9896   0.387   3.748   5.349 -0.7926  0.8454  1.6768
 3317TIP3    H2 9897   0.338   3.720   5.208  1.1657  1.2551  0.9049
 3318TIP3   OH2 9898   0.741   2.905   3.199  0.1760 -0.2382 -0.0750
 3318TIP3    H1 9899   0.769   2.865   3.116  0.6084  0.6996 -0.3915
 3318TIP3    H2 9900   0.659   2.861   3.221 -0.3713  0.0592 -1.4300
 3319TIP3   OH2 9901   0.716   1.788   4.269 -0.3727  0.2585  0.1447
 3319TIP3    H1 9902   0.757   1.701   4.275 -2.0396 -0.4946  0.8775
 3319TIP3    H2 9903   0.775   1.845   4.318  0.6445 -0.5078 -0.1761
 3320TIP3   OH2 9904   8.058   3.964   4.302  0.2972  0.4577  0.5465
 3320TIP3    H1 9905   8.131   3.982   4.242  0.3126 -0.6763  0.2062
 3320TIP3    H2 9906   8.011   4.047   4.309 -0.1169  0.4339 -1.5993
 3321TIP3   OH2 9907   0.643   2.566   4.492  0.8354 -0.2832 -0.4768
 3321TIP3    H1 9908   0.561   2.600   4.455  1.5640  0.5930 -1.2979
 3321TIP3    H2 9909   0.649   2.607   4.578  1.0459  0.6622 -0.9321
 3322TIP3   OH2 9910   3.794   4.336   2.858  0.0932  0.5885  0.5274
 3322TIP3    H1 9911   3.742   4.257   2.871  0.5038  0.1598 -0.3747
 3322TIP3    H2 9912   3.752   4.402   2.914 -2.4928  0.7368 -1.4995
 3323TIP3   OH2 9913   2.828   3.480   4.073 -0.1055 -0.1858  0.0709
 3323TIP3    H1 9914   2.844   3.386   4.062 -0.5532 -0.1847 -0.6487
 3323TIP3    H2 9915   2.859   3.519   3.992 -1.4924  0.0877 -0.3506
 3324TIP3   OH2 9916   2.680   5.127   5.097 -0.4944 -0.0303 -0.3062
 3324TIP3    H1 9917   2.766   5.097   5.070 -0.4225 -0.8280  0.7457
 3324TIP3    H2 9918   2.669   5.092   5.186 -1.5424  0.7843 -0.0946
 3325TIP3   OH2 9919   1.544   4.621   3.901  0.2506  0.0389  0.3318
 3325TIP3    H1 9920   1.475   4.683   3.923  0.9511  0.6374  0.8841
 3325TIP3    H2 9921   1.614   4.675   3.864  0.7455 -0.4545  0.5332
 3326TIP3   OH2 9922   1.128   2.806   4.539  0.4606  0.8174  0.2473
 3326TIP3    H1 9923   1.154   2.724   4.581 -0.5389  0.5849  0.4225
 3326TIP3    H2 9924   1.106   2.864   4.613 -0.6865  0.6149  0.0715
 3327TIP3   OH2 9925   2.471   3.268   4.059 -0.2600  0.0912  0.2836
 3327TIP3    H1 9926   2.561   3.237   4.057  0.6205  2.4760  1.2312
 3327TIP3    H2 9927   2.419   3.194   4.027  2.1336 -0.8609 -1.5305
 3328TIP3   OH2 9928   1.984   4.527   1.700  0.1744 -0.5484 -0.6497
 3328TIP3    H1 9929   1.912   4.589   1.687  1.1086  0.4209 -1.3494
 3328TIP3    H2 9930   1.952   4.467   1.768 -0.8752  0.5094 -0.1776
 3329TIP3   OH2 9931   2.347   4.102   2.804  0.6537 -0.2347 -0.4340
 3329TIP3    H1 9932   2.325   4.019   2.847 -0.3905  0.6981  0.8630
 3329TIP3    H2 9933   2.430   4.128   2.844 -0.3705  0.6854  1.1486
 3330TIP3   OH2 9934   0.813   3.658   0.425  0.3442  0.1753  0.7783
 3330TIP3    H1 9935   0.899   3.698   0.442  0.2926  0.4290  0.4568
 3330TIP3    H2 9936   0.830   3.597   0.354  0.4613 -0.5202  1.3997
 3331TIP3   OH2 9937   0.335   3.174   5.206 -0.2441  0.4913 -0.0886
 3331TIP3    H1 9938   0.347   3.267   5.227  0.7336  0.0560  1.2979
 3331TIP3    H2 9939   0.316   3.133   5.290  0.6896 -0.7902 -0.4938
 3332TIP3   OH2 9940   0.171   5.292   4.269 -0.1685 -0.3192 -0.7608
 3332TIP3    H1 9941   0.129   5.208   4.252  0.2151 -0.7298  0.2562
 3332TIP3    H2 9942   0.262   5.271   4.288 -0.1390  0.2897 -0.1876
 3333TIP3   OH2 9943   0.390   4.521   3.497  0.1853 -0.1006 -1.0689
 3333TIP3    H1 9944   0.406   4.438   3.452 -0.8951 -0.3271 -1.0473
 3333TIP3    H2 9945   0.306   4.509   3.541  1.8106 -0.3325  2.0672
 3334TIP3   OH2 9946   6.240   0.061   6.833 -0.0627  0.0348 -0.4438
 3334TIP3    H1 9947   6.333   0.040   6.841 -0.0576  1.3198  3.9707
 3334TIP3    H2 9948   6.203  -0.012   6.783  3.2820 -0.4190 -2.4406
 3335TIP3   OH2 9949   2.286   2.497   5.039 -0.0882  0.4752 -0.7557
 3335TIP3    H1 9950   2.335   2.546   4.974 -0.1818  1.6712  0.0598
 3335TIP3    H2 9951   2.293   2.548   5.119  2.3445 -2.3511  0.9527
 3336TIP3   OH2 9952   1.918   4.081   3.761  0.0533 -0.5082  0.4497
 3336TIP3    H1 9953   1.986   4.073   3.694  0.3687  0.2979  0.6653
 3336TIP3    H2 9954   1.966   4.077   3.844 -0.0663  0.7901  0.5972
 3337TIP3   OH2 9955   0.468   3.752   5.077  0.2668 -0.0371 -0.5989
 3337TIP3    H1 9956   0.557   3.779   5.054  0.2778  1.1247  0.7349
 3337TIP3    H2 9957   0.413   3.791   5.009  0.5794  0.9678 -0.2845
 3338TIP3   OH2 9958   1.720   2.805   4.893  0.3190  0.3723  0.4041
 3338TIP3    H1 9959   1.669   2.788   4.814 -0.7407  1.6026  0.8141
 3338TIP3    H2 9960   1.798   2.851   4.862  1.3335 -1.7251 -0.2479
 3339TIP3   OH2 9961   0.678   3.154   2.575  0.3387 -0.8826 -0.1597
 3339TIP3    H1 9962   0.660   3.243   2.545  0.4901 -0.5138  0.8327
 3339TIP3    H2 9963   0.695   3.163   2.669  2.4746 -1.6779 -0.4568
 3340TIP3   OH2 9964   7.950   1.945   4.125  0.3327 -0.4190 -0.4640
 3340TIP3    H1 9965   7.948   1.861   4.171 -1.3572 -0.0233  0.2397
 3340TIP3    H2 9966   7.971   2.009   4.193 -4.3710  0.4558  0.3380
 3341TIP3   OH2 9967   6.271   1.900   3.905 -0.1444  0.5916 -0.6565
 3341TIP3    H1 9968   6.253   1.914   3.998  1.9345 -1.2508  0.0555
 3341TIP3    H2 9969   6.363   1.925   3.894 -0.2874  0.4925 -2.1627
 3342TIP3   OH2 9970   0.048   2.169   3.803  0.1870 -0.5742 -0.0796
 3342TIP3    H1 9971   0.046   2.095   3.865 -1.7621 -0.0017  0.6028
 3342TIP3    H2 9972   0.001   2.239   3.849  1.6306  0.9522 -0.8975
 3343TIP3   OH2 9973   2.476   2.783   2.859  0.2081 -0.5807 -0.0740
 3343TIP3    H1 9974   2.481   2.692   2.830 -0.4283 -0.7137  0.2276
 3343TIP3    H2 9975   2.563   2.819   2.841 -0.1007 -0.7178 -1.9289
 3344TIP3   OH2 9976   0.465   5.309   2.666 -0.2293 -0.0685  0.1297
 3344TIP3    H1 9977   0.560   5.299   2.661  0.0946  1.7565  2.1111
 3344TIP3    H2 9978   0.444   5.373   2.598  0.2691  1.2136  1.1564
 3345TIP3   OH2 9979   0.414   1.129   3.916  0.3609  0.4543 -0.0244
 3345TIP3    H1 9980   0.474   1.056   3.898 -1.7886 -1.0608 -1.3413
 3345TIP3    H2 9981   0.416   1.182   3.835  0.5495  0.8521  0.2401
 3346TIP3   OH2 9982   7.576   2.439   5.369 -0.3574  0.4910  0.1114
 3346TIP3    H1 9983   7.556   2.444   5.463 -2.1813 -0.1069 -0.2309
 3346TIP3    H2 9984   7.645   2.373   5.364 -0.4671  0.2909  1.0120
 3347TIP3   OH2 9985   0.971   4.571   4.211  0.0167 -0.4581  0.5538
 3347TIP3    H1 9986   0.887   4.529   4.189 -0.6156  0.0017  2.0619
 3347TIP3    H2 9987   1.010   4.515   4.278 -0.3756  0.7943  1.8602
 3348TIP3   OH2 9988   0.511   5.791   5.296 -0.4050 -0.0582 -0.2913
 3348TIP3    H1 9989   0.553   5.767   5.213 -0.8680 -2.2412  0.0806
 3348TIP3    H2 9990   0.556   5.871   5.322  2.7343 -1.6562 -0.5182
 3349TIP3   OH2 9991   3.545   0.896   4.710  0.1113  0.6014  0.0128
 3349TIP3    H1 9992   3.565   0.815   4.757  0.5263  1.5651  1.5147
 3349TIP3    H2 9993   3.627   0.922   4.670  0.4433  1.3123  1.1443
 3350TIP3   OH2 9994   6.984   5.038   4.363 -0.3606  0.3821 -0.2242
 3350TIP3    H1 9995   7.004   4.969   4.300  0.6333 -0.8173  1.3602
 3350TIP3    H2 9996   7.066   5.050   4.412 -1.5529  0.1589  1.8901
 3351TIP3   OH2 9997   1.788   5.406   5.200 -0.3583 -0.1228  0.0946
 3351TIP3    H1 9998   1.723   5.368   5.260 -0.3408 -0.8359 -0.3362
 3351TIP3    H2 9999   1.814   5.488   5.242  0.7733 -1.3266  1.8147
 3352TIP3   OH210000   0.530   6.274   4.307  0.2388  0.0428 -0.0834
 3352TIP3    H110001   0.516   6.368   4.320 -1.2805  0.2016 -2.6063
 3352TIP3    H210002   0.519   6.261   4.213  3.4784 -2.1859 -0.2323
 3353TIP3   OH210003   1.963   3.071   3.749  0.0415 -0.5025  0.0241
 3353TIP3    H110004   2.022   3.094   3.677  0.5164  0.4494  0.7035
 3353TIP3    H210005   1.932   3.156   3.781 -0.9721 -0.9721  0.2725
 3354TIP3   OH210006   7.399   5.018   2.119  0.1202  0.4651 -0.5694
 3354TIP3    H110007   7.368   4.931   2.095  1.8798 -0.2376 -0.4255
 3354TIP3    H210008   7.495   5.011   2.113  0.3697  1.8210  1.2887
 3355TIP3   OH210009   7.064   3.926   5.243 -0.2731  0.5683  0.5229
 3355TIP3    H110010   7.084   3.910   5.151 -1.7089  0.1250  0.2694
 3355TIP3    H210011   7.011   4.006   5.243  0.3711  0.9975  1.0407
 3356TIP3   OH210012   6.835   3.472   3.923  0.4192 -0.4009 -1.0211
 3356TIP3    H110013   6.902   3.460   3.991  1.0827 -1.6654 -1.8756
 3356TIP3    H210014   6.789   3.552   3.948  1.0006 -0.5667  0.6313
 3357TIP3   OH210015   1.505   3.387   2.679  0.4913 -0.1575  0.2489
 3357TIP3    H110016   1.558   3.361   2.754  0.5175 -0.5151  0.1077
 3357TIP3    H210017   1.546   3.344   2.604 -0.4554 -1.0991  0.2489
 3358TIP3   OH210018   1.195   5.099   4.184  0.0159  0.5497  0.2303
 3358TIP3    H110019   1.271   5.052   4.219 -0.5239 -0.4385  0.0812
 3358TIP3    H210020   1.183   5.173   4.244 -0.5889 -0.8366  1.8376
 3359TIP3   OH210021   7.186   0.656   2.714  0.0302  0.2460 -0.1462
 3359TIP3    H110022   7.252   0.588   2.728 -0.6714 -0.1031  1.6017
 3359TIP3    H210023   7.123   0.615   2.655  0.6193  0.0789 -0.6742
 3360TIP3   OH210024   0.528   1.705   4.074 -0.3941 -0.0916  0.0958
 3360TIP3    H110025   0.597   1.757   4.115  1.5937 -0.9501 -2.0336
 3360TIP3    H210026   0.508   1.637   4.138  0.5352  0.3467  0.8676
 3361TIP3   OH210027   1.677   0.789   4.329  0.1450  0.2207  0.4278
 3361TIP3    H110028   1.706   0.843   4.256  0.1240 -1.1507 -0.6135
 3361TIP3    H210029   1.585   0.770   4.309  0.5052 -1.2405  0.1308
 3362TIP3   OH210030   1.778   2.065   3.067 -0.2013 -1.1618  0.2861
 3362TIP3    H110031   1.756   2.064   3.160  1.6135  0.7148  0.7720
 3362TIP3    H210032   1.872   2.047   3.064  0.1938  0.8470 -0.9971
 3363TIP3   OH210033   0.798   2.352   4.124  0.4959 -0.1627  0.6432
 3363TIP3    H110034   0.889   2.353   4.096  1.1008 -0.0777  2.5395
 3363TIP3    H210035   0.751   2.398   4.055  1.6775 -1.3253 -0.9924
 3364TIP3   OH210036   8.231   4.047   3.839  0.1032  0.1706  0.2751
 3364TIP3    H110037   8.203   4.074   3.752  3.1367  1.6404 -0.3171
 3364TIP3    H210038   8.257   4.128   3.882  0.8671 -0.8093  1.7124
 3365TIP3   OH210039   0.783   4.886   5.096 -0.1339 -0.2355  0.2547
 3365TIP3    H110040   0.777   4.976   5.127 -1.1860 -0.1689 -0.1234
 3365TIP3    H210041   0.692   4.856   5.092  0.1684 -1.0933 -0.2685
 3366TIP3   OH210042   0.183   3.098   4.511 -0.0538 -0.1882  0.7029
 3366TIP3    H110043   0.192   3.189   4.541  1.8219  0.0233 -0.4183
 3366TIP3    H210044   0.097   3.095   4.469  0.2745  1.3325 -0.1132
 3367TIP3   OH210045   0.414   3.781   5.708  0.1403  0.5621 -0.2586
 3367TIP3    H110046   0.447   3.853   5.761 -0.4532  0.2335  0.5696
 3367TIP3    H210047   0.486   3.760   5.648  1.1811  0.3208  1.0511
 3368TIP3   OH210048   0.549   1.916   5.403  0.0531  0.0619  0.0874
 3368TIP3    H110049   0.502   1.837   5.374  0.0259  0.0733  0.1015
 3368TIP3    H210050   0.623   1.923   5.342  0.7004 -0.6189  0.7942
 3369TIP3   OH210051   0.021   6.121   4.407  0.0389 -0.3376 -0.0714
 3369TIP3    H110052   0.116   6.126   4.397 -0.0437  1.0473 -0.3685
 3369TIP3    H210053  -0.006   6.051   4.347  0.7284  0.2301 -1.0669
 3370TIP3   OH210054   2.979   3.108   1.799  0.0122  0.2314  0.0003
 3370TIP3    H110055   2.970   3.125   1.893  0.5060  2.1973 -0.2942
 3370TIP3    H210056   3.053   3.047   1.793  1.0727  1.4195  0.7712
 3371TIP3   OH210057   2.457   2.806   4.095  0.1238  0.2666 -0.1478
 3371TIP3    H110058   2.440   2.718   4.061  2.0848  0.7210 -2.3974
 3371TIP3    H210059   2.547   2.803   4.126 -0.2979  1.0794  1.1898
 3372TIP3   OH210060   2.936   3.937   5.037  0.6074  0.2731 -0.2679
 3372TIP3    H110061   2.933   3.979   5.123  0.9633 -3.4100  1.6647
 3372TIP3    H210062   3.000   3.988   4.987  0.0621  2.7378  1.5107
 3373TIP3   OH210063   0.916   4.432   2.153 -0.0970  0.0961 -0.5416
 3373TIP3    H110064   0.967   4.356   2.125 -1.2803 -0.0606 -2.3545
 3373TIP3    H210065   0.825   4.405   2.141 -0.5231  2.0075 -1.7736
 3374TIP3   OH210066   3.446   3.178   3.336  0.8132 -0.6262 -0.2245
 3374TIP3    H110067   3.386   3.193   3.409 -1.3240  1.2175 -2.2990
 3374TIP3    H210068   3.463   3.084   3.338  1.0604 -0.5846  2.8135
 3375TIP3   OH210069   8.507   2.972   1.033  0.1808 -0.0959 -0.2392
 3375TIP3    H110070   8.484   2.992   1.124  2.5600  0.3189  0.3119
 3375TIP3    H210071   8.446   2.903   1.007 -1.0100  0.3098  1.4225
 3376TIP3   OH210072   0.385   2.328   2.033 -0.4558  0.2800 -0.0016
 3376TIP3    H110073   0.404   2.247   2.080 -0.1098 -0.0857 -0.7656
 3376TIP3    H210074   0.407   2.397   2.095 -0.3667 -0.1977  0.5089
 3377TIP3   OH210075   3.918   3.526   5.231 -0.6612 -0.0902 -0.3986
 3377TIP3    H110076   3.951   3.552   5.317 -1.7143  0.8645 -0.2671
 3377TIP3    H210077   3.891   3.435   5.243 -0.1988 -0.1674  0.1004
 3378TIP3   OH210078   1.659   3.300   2.470  0.4655  0.5582  0.3418
 3378TIP3    H110079   1.745   3.265   2.494  0.7446  0.8646 -0.2040
 3378TIP3    H210080   1.663   3.311   2.375 -0.7747 -1.0171  0.0848
 3379TIP3   OH210081   4.477   3.940   3.145 -0.3309 -0.1907  0.9445
 3379TIP3    H110082   4.467   3.846   3.159 -0.1201 -0.1184  1.5948
 3379TIP3    H210083   4.424   3.958   3.067  0.1972 -0.9630  0.3944
 3380TIP3   OH210084   3.227   2.450   4.231  0.8020 -0.1837 -0.5641
 3380TIP3    H110085   3.224   2.388   4.158  0.4875 -0.7984 -0.0411
 3380TIP3    H210086   3.261   2.531   4.193 -0.9214  0.0059 -1.7643
 3381TIP3   OH210087   1.134   1.621   3.186 -0.2255  0.0941  0.0927
 3381TIP3    H110088   1.057   1.587   3.141 -0.6241 -1.3197  1.8088
 3381TIP3    H210089   1.127   1.716   3.178 -1.6406 -0.0648 -0.5731
 3382TIP3   OH210090   4.544   1.389   4.817  0.3556 -0.0528 -0.0731
 3382TIP3    H110091   4.575   1.299   4.813  1.7019  0.4331 -0.8894
 3382TIP3    H210092   4.588   1.433   4.744  0.3212  1.4540  0.7957
 3383TIP3   OH210093   0.484   3.904   2.928 -0.5410  0.1747 -0.0785
 3383TIP3    H110094   0.527   3.983   2.896 -1.5014  0.7612  0.0876
 3383TIP3    H210095   0.426   3.878   2.856  0.1604 -0.6810 -0.3457
 3384TIP3   OH210096   0.545   0.976   3.663 -0.5564  0.1692  0.1136
 3384TIP3    H110097   0.630   0.983   3.707 -0.7511 -0.2353  0.5597
 3384TIP3    H210098   0.514   1.067   3.657  0.1315  0.3675 -0.5015
 3385TIP3   OH210099   3.679   3.061   1.675  0.1947  0.3726 -0.4614
 3385TIP3    H110100   3.717   3.079   1.761 -1.2864 -3.1878  1.0326
 3385TIP3    H210101   3.754   3.040   1.620  0.9215 -0.2027  0.7292
 3386TIP3   OH210102   1.873   2.610   5.828  0.1191 -0.0437 -0.0098
 3386TIP3    H110103   1.790   2.608   5.781  0.7905  2.1208 -1.3229
 3386TIP3    H210104   1.850   2.640   5.916 -0.5272  0.1832 -0.2544
 3387TIP3   OH210105   0.715   4.247   1.029  0.3536 -0.6490 -0.5124
 3387TIP3    H110106   0.626   4.222   1.003  0.3611 -1.1534 -0.0726
 3387TIP3    H210107   0.747   4.171   1.078 -0.5125  1.1317  2.9932
 3388TIP3   OH210108   1.899   3.422   3.241  0.3329 -0.1928  0.2502
 3388TIP3    H110109   1.960   3.357   3.206  1.4676  0.6061  0.6943
 3388TIP3    H210110   1.891   3.401   3.333  0.9320  0.4619  0.4573
 3389TIP3   OH210111   8.109   3.816   3.999 -0.7014  0.3112 -0.0420
 3389TIP3    H110112   8.161   3.895   3.983 -0.4403  0.2680  0.5778
 3389TIP3    H210113   8.072   3.795   3.913  0.5661  0.1641 -0.5750
 3390TIP3   OH210114   2.192   1.883   3.737  0.3072 -0.4641 -0.3011
 3390TIP3    H110115   2.166   1.820   3.669 -2.1080  0.5502 -0.3728
 3390TIP3    H210116   2.165   1.842   3.819 -1.6307  0.5936 -0.3740
 3391TIP3   OH210117   0.687   4.528   3.614 -0.2624 -0.5498  0.0179
 3391TIP3    H110118   0.758   4.482   3.659  0.3724  0.1435 -0.2600
 3391TIP3    H210119   0.672   4.477   3.534 -0.6135 -1.1408  0.4595
 3392TIP3   OH210120   1.062   1.527   3.521 -0.4004  0.0232  0.0048
 3392TIP3    H110121   1.102   1.478   3.592  1.8720 -1.1116 -1.9660
 3392TIP3    H210122   1.021   1.461   3.466  0.6129  0.5405 -1.4105
 3393TIP3   OH210123   5.015   2.841   1.472  0.1887 -0.4435  0.5195
 3393TIP3    H110124   4.954   2.799   1.533  0.4566  0.1105  1.1798
 3393TIP3    H210125   5.040   2.771   1.412  0.0350 -1.0405  1.1333
 3394TIP3   OH210126   1.385   2.781   5.464  0.1933 -0.4454 -0.3089
 3394TIP3    H110127   1.429   2.698   5.448 -0.9187 -1.1383  0.1755
 3394TIP3    H210128   1.353   2.808   5.377 -1.6159 -1.7903 -0.1042
 3395TIP3   OH210129   1.124   0.509   3.376  0.2965  0.1487 -0.3126
 3395TIP3    H110130   1.169   0.428   3.400 -0.4902 -0.3304 -0.4326
 3395TIP3    H210131   1.043   0.480   3.333 -0.3600  0.9957  0.3244
 3396TIP3   OH210132   4.322   1.491   3.829 -0.0877 -0.1521 -0.2967
 3396TIP3    H110133   4.276   1.574   3.820 -0.9630 -0.6522 -0.4784
 3396TIP3    H210134   4.279   1.448   3.903 -1.0952 -1.3733 -1.5454
 3397TIP3   OH210135   4.478   5.796   0.686  0.0537  0.0260  0.4539
 3397TIP3    H110136   4.540   5.723   0.692 -0.5779 -0.4735  1.1393
 3397TIP3    H210137   4.528   5.873   0.710  0.9158 -0.0680 -0.9866
 3398TIP3   OH210138   1.479   7.195   3.777  0.1788  0.2333 -0.6415
 3398TIP3    H110139   1.471   7.100   3.774  0.7425  0.1869 -0.7032
 3398TIP3    H210140   1.393   7.227   3.750 -0.2565 -0.2582  0.1331
 3399TIP3   OH210141   2.735   2.499   2.579  0.2491  0.2930 -0.1902
 3399TIP3    H110142   2.821   2.489   2.619  0.8194  0.6494 -1.3427
 3399TIP3    H210143   2.716   2.413   2.541 -1.0037 -0.5573  2.1895
 3400TIP3   OH210144   2.723   1.096   3.427  0.0748  0.0034 -0.6575
 3400TIP3    H110145   2.735   1.047   3.346 -1.4477 -0.5448 -0.5807
 3400TIP3    H210146   2.630   1.084   3.449  0.2224  0.9880  0.6174
 3401TIP3   OH210147   2.378   5.924   2.021 -0.0001  0.0697 -0.0780
 3401TIP3    H110148   2.374   6.018   2.039 -2.0687 -0.2727  1.4301
 3401TIP3    H210149   2.393   5.884   2.107  2.0117 -0.9381 -0.8600
 3402TIP3   OH210150   2.673   5.109   1.193  0.2526  0.0662  0.0247
 3402TIP3    H110151   2.744   5.169   1.216  0.2581 -0.6187  1.8865
 3402TIP3    H210152   2.613   5.113   1.267 -1.0252 -0.3082 -0.9761
 3403TIP3   OH210153   2.140   2.226   3.557 -0.0569 -0.5838 -0.8801
 3403TIP3    H110154   2.097   2.275   3.488 -0.0961  0.0872 -0.3891
 3403TIP3    H210155   2.220   2.192   3.517  0.4119  0.6283 -0.9787
 3404TIP3   OH210156   0.647   4.263   1.856  0.2868 -0.2299 -0.1890
 3404TIP3    H110157   0.701   4.342   1.848 -0.9286  0.4920 -1.7631
 3404TIP3    H210158   0.701   4.201   1.903  2.0453  0.8634 -0.7137
 3405TIP3   OH210159   2.153   3.056   2.532 -0.3545  0.0336  0.4476
 3405TIP3    H110160   2.174   2.983   2.590  0.7114  0.3339  0.4570
 3405TIP3    H210161   2.188   3.133   2.576 -1.4948  0.5574  0.4458
 3406TIP3   OH210162   3.055   3.088   3.676 -0.1485 -0.3078 -0.3512
 3406TIP3    H110163   3.140   3.129   3.665  0.3238 -1.0253  0.5259
 3406TIP3    H210164   3.030   3.058   3.588  0.5515 -0.1935 -0.5880
 3407TIP3   OH210165   4.458   3.032   3.521  0.1257  0.6373  0.1600
 3407TIP3    H110166   4.546   3.016   3.488  0.6875  0.9923  1.4582
 3407TIP3    H210167   4.413   3.077   3.450  1.4577  1.8134  0.0607
 3408TIP3   OH210168   0.832   3.798   5.844 -0.6089  0.1302  0.6080
 3408TIP3    H110169   0.891   3.781   5.917  0.0988  1.3928  0.3502
 3408TIP3    H210170   0.877   3.761   5.768 -0.2849  0.8219  0.4601
 3409TIP3   OH210171   3.567   2.074   3.152 -0.5319 -0.2849 -0.0751
 3409TIP3    H110172   3.476   2.097   3.134 -0.8067 -0.4006  1.1623
 3409TIP3    H210173   3.580   2.095   3.244  0.3696 -1.3278  0.0446
 3410TIP3   OH210174   1.717   4.318   2.726  0.3068 -0.0053 -0.1466
 3410TIP3    H110175   1.686   4.280   2.808  0.7992  0.5162  0.2866
 3410TIP3    H210176   1.810   4.336   2.742  0.1296  1.1662 -0.4280
 3411TIP3   OH210177   0.226   5.273   1.697 -0.3918 -0.6238  0.5168
 3411TIP3    H110178   0.139   5.293   1.662 -0.5424  0.1808  1.3499
 3411TIP3    H210179   0.269   5.224   1.627 -0.3597  1.7731 -1.1958
 3412TIP3   OH210180   0.055   1.597   4.648 -0.5402 -0.3687  0.3184
 3412TIP3    H110181  -0.014   1.657   4.620  0.2634  0.7622  0.7222
 3412TIP3    H210182   0.112   1.651   4.703  1.6903 -0.7871 -1.4990
 3413TIP3   OH210183   3.685   3.009   4.360 -0.1734  0.1642  0.2300
 3413TIP3    H110184   3.739   3.088   4.367  1.0870 -0.7848  1.3370
 3413TIP3    H210185   3.671   2.981   4.451 -0.9402 -0.6793 -0.1385
 3414TIP3   OH210186   1.567   3.525   3.930 -0.0835  0.0165  0.2210
 3414TIP3    H110187   1.483   3.516   3.974  0.4404 -2.5920  0.7691
 3414TIP3    H210188   1.588   3.619   3.936 -1.4942  0.1961  2.7321
 3415TIP3   OH210189   3.648   3.789   2.362 -0.1271 -0.5751 -0.0515
 3415TIP3    H110190   3.564   3.831   2.381  0.0562 -0.3167  0.1987
 3415TIP3    H210191   3.681   3.763   2.448  0.3377 -0.1142 -0.0889
 3416TIP3   OH210192   3.074   2.697   3.997 -0.0747 -0.1558 -0.2177
 3416TIP3    H110193   3.052   2.784   3.962  0.7662 -0.4215 -1.4126
 3416TIP3    H210194   3.025   2.636   3.941 -0.5209 -0.4676  0.5069
 3417TIP3   OH210195   2.414   3.383   4.581 -0.2086 -0.1527  0.0289
 3417TIP3    H110196   2.494   3.365   4.532 -0.3264  1.2500 -0.6991
 3417TIP3    H210197   2.344   3.348   4.525 -0.5008  3.1041 -1.7446
 3418TIP3   OH210198   3.579   2.562   6.071 -1.0366 -0.0956  0.1345
 3418TIP3    H110199   3.506   2.505   6.095 -0.2145 -2.8272 -3.4874
 3418TIP3    H210200   3.657   2.514   6.098 -0.4366  0.9051  0.1970
 3419TIP3   OH210201   2.897   2.958   4.183  0.2941  0.2185 -0.3935
 3419TIP3    H110202   2.907   2.961   4.088  0.8280  0.5307 -0.3243
 3419TIP3    H210203   2.986   2.965   4.217  0.1329 -0.2201  0.1255
 3420TIP3   OH210204   0.783   3.878   2.248 -0.1737  0.5165 -0.1200
 3420TIP3    H110205   0.844   3.893   2.176  3.3534 -0.4386  2.5501
 3420TIP3    H210206   0.760   3.966   2.279 -2.9444  1.0150 -3.2250
 3421TIP3   OH210207   7.730   6.514   5.092 -0.0513 -0.3063 -0.4144
 3421TIP3    H110208   7.823   6.497   5.081  0.2344  1.2179 -0.4073
 3421TIP3    H210209   7.707   6.573   5.020 -0.5917  0.8612  0.7031
 3422TIP3   OH210210   1.033   6.571   0.924 -0.3364 -0.1347 -0.3802
 3422TIP3    H110211   1.090   6.633   0.968 -0.6580 -0.0865 -0.0270
 3422TIP3    H210212   0.945   6.594   0.954 -0.3992 -1.1258  0.1830
 3423TIP3   OH210213   3.093   3.142   4.759 -0.7945  0.5043 -0.2335
 3423TIP3    H110214   3.105   3.217   4.817 -0.1739 -0.3660  0.7683
 3423TIP3    H210215   3.067   3.070   4.817 -0.2525 -0.3457 -1.0287
 3424TIP3   OH210216   2.612   3.050   4.162 -0.3622  0.1283  0.8629
 3424TIP3    H110217   2.576   3.055   4.250  0.8585  2.6767  1.2429
 3424TIP3    H210218   2.706   3.062   4.173 -0.2714  1.1976 -0.8580
 3425TIP3   OH210219   2.540   3.296   3.623  0.1117  0.1626  0.4308
 3425TIP3    H110220   2.520   3.202   3.622  0.8682 -0.0480  2.3393
 3425TIP3    H210221   2.485   3.330   3.694  0.2363  1.0792  0.0853
 3426TIP3   OH210222   1.502   2.175   3.252 -0.4865 -0.3143  0.3450
 3426TIP3    H110223   1.502   2.081   3.273  3.1018 -0.2912  0.7869
 3426TIP3    H210224   1.413   2.204   3.273 -0.9418 -3.1092  2.6879
 3427TIP3   OH210225   3.056   2.687   2.940 -0.2056 -0.9097 -0.4260
 3427TIP3    H110226   3.114   2.751   2.899  0.2528 -1.0682 -0.0347
 3427TIP3    H210227   2.987   2.740   2.980  0.5810 -0.6019  0.5462
 3428TIP3   OH210228   3.107   2.028   3.281 -0.4198  0.3488 -0.2163
 3428TIP3    H110229   3.059   2.110   3.288 -0.1639  0.4093  0.9877
 3428TIP3    H210230   3.098   1.987   3.367  0.4610 -0.3168 -0.4252
 3429TIP3   OH210231   2.086   4.402   3.343 -0.4101  0.1795  0.9318
 3429TIP3    H110232   2.109   4.494   3.358 -2.7010  1.5291 -3.1826
 3429TIP3    H210233   2.008   4.388   3.398 -0.1662  0.7175  1.4253
 3430TIP3   OH210234   1.687   2.630   4.252 -1.0326  0.0311  0.0209
 3430TIP3    H110235   1.671   2.709   4.303  0.5423  1.1139 -1.0872
 3430TIP3    H210236   1.703   2.562   4.317  2.1848  1.6540  1.0534
 3431TIP3   OH210237   2.184   6.269   3.072  0.1646 -0.0493  0.2630
 3431TIP3    H110238   2.171   6.362   3.090 -0.3204 -0.1854  0.6275
 3431TIP3    H210239   2.239   6.267   2.993  0.8542  0.5459  0.7211
 3432TIP3   OH210240   1.413   4.688   3.512  0.2408  0.0465  0.0145
 3432TIP3    H110241   1.435   4.759   3.572  2.3809  0.4991 -1.2622
 3432TIP3    H210242   1.375   4.620   3.568 -0.0957  1.4415  1.5116
 3433TIP3   OH210243   1.684   1.527   4.550 -0.6130  0.1475 -0.2940
 3433TIP3    H110244   1.639   1.512   4.634  0.7170  0.0354  0.4042
 3433TIP3    H210245   1.724   1.443   4.530  1.0198  0.8212  0.1254
 3434TIP3   OH210246   0.872   2.788   4.428  0.5625  0.0183  0.5024
 3434TIP3    H110247   0.856   2.695   4.437  0.6914 -0.0184  0.3587
 3434TIP3    H210248   0.955   2.804   4.473  0.0062  0.2497  1.4480
 3435TIP3   OH210249   3.066   3.328   4.981 -0.2325 -0.2426 -0.6489
 3435TIP3    H110250   3.077   3.419   4.951 -0.5884  0.0206  0.0034
 3435TIP3    H210251   2.976   3.325   5.013  0.7062  0.0154  2.1434
 3436TIP3   OH210252   1.583   2.382   4.085 -0.2878 -0.2203  0.0182
 3436TIP3    H110253   1.666   2.420   4.055 -0.0077 -1.3851 -0.7152
 3436TIP3    H210254   1.516   2.441   4.052  0.3286  1.9098  2.3983
 3437TIP3   OH210255   2.865   1.673   2.120 -0.0254  0.2524 -0.3211
 3437TIP3    H110256   2.875   1.593   2.172  4.1404  1.3864  0.7920
 3437TIP3    H210257   2.876   1.744   2.183  1.1061  1.6741 -2.0741
 3438TIP3   OH210258   2.364   6.251   2.868 -0.2373  0.0564  0.0892
 3438TIP3    H110259   2.349   6.210   2.783 -0.2910  2.4971 -1.1143
 3438TIP3    H210260   2.459   6.252   2.878 -0.1684  1.0008 -0.5880
 3439TIP3   OH210261   1.725   3.596   2.742  0.6648  0.4738 -0.5676
 3439TIP3    H110262   1.704   3.585   2.649  1.1636 -0.2236 -0.6049
 3439TIP3    H210263   1.685   3.679   2.766 -1.4604 -0.4156 -0.8323
 3440TIP3   OH210264   1.974   3.538   4.500 -0.4558 -0.1011 -0.0421
 3440TIP3    H110265   2.025   3.547   4.419 -0.0741 -0.5893  0.1421
 3440TIP3    H210266   2.018   3.595   4.563 -0.3628 -0.2306  0.0100
 3441TIP3   OH210267   3.240   2.860   3.732  0.4052 -0.5368  0.3678
 3441TIP3    H110268   3.162   2.914   3.744  0.3622 -0.1977 -1.3375
 3441TIP3    H210269   3.312   2.915   3.760  0.0049 -1.0694  2.5526
 3442TIP3   OH210270   0.934   3.210   3.924 -0.1639 -0.5317 -0.2089
 3442TIP3    H110271   1.014   3.180   3.969  0.0716 -0.6146 -0.6806
 3442TIP3    H210272   0.962   3.225   3.834 -0.2419  1.3242  0.0658
 3443TIP3   OH210273   2.433   3.549   1.985  0.7123  0.3170 -0.2264
 3443TIP3    H110274   2.527   3.550   1.963  0.9782  0.1941  0.8650
 3443TIP3    H210275   2.392   3.498   1.916  1.7610 -1.4873  0.4515
 3444TIP3   OH210276   0.334   2.574   1.255 -0.2648 -0.5554  0.0043
 3444TIP3    H110277   0.245   2.539   1.255 -1.4973  2.3454  2.9366
 3444TIP3    H210278   0.333   2.645   1.191  0.1230 -0.9407 -0.4327
 3445TIP3   OH210279   0.731   3.704   3.471  0.1791 -0.2897 -0.4565
 3445TIP3    H110280   0.635   3.713   3.467  0.3145  1.7530  0.2879
 3445TIP3    H210281   0.757   3.689   3.380 -1.0023 -2.8418 -0.4273
 3446TIP3   OH210282   1.223   6.021   4.866  0.4791 -0.3536  0.6574
 3446TIP3    H110283   1.257   5.950   4.812  2.1010  0.4969  0.5324
 3446TIP3    H210284   1.146   6.052   4.819  1.2119 -0.3866 -0.5895
 3447TIP3   OH210285   1.912   2.822   4.100 -0.2019  0.2296  0.1363
 3447TIP3    H110286   1.874   2.868   4.175 -0.2838 -1.2490  1.0150
 3447TIP3    H210287   1.948   2.892   4.045 -1.1316  1.4034  0.9917
 3448TIP3   OH210288   1.748   2.535   3.482  0.0675 -0.1412  0.2892
 3448TIP3    H110289   1.772   2.628   3.478  1.8607 -0.5587  0.9088
 3448TIP3    H210290   1.732   2.519   3.575 -0.3951 -0.4192  0.1615
 3449TIP3   OH210291   0.990   1.568   1.147 -0.1350 -0.5430  0.3692
 3449TIP3    H110292   1.079   1.542   1.122  0.2119  1.8694 -1.1017
 3449TIP3    H210293   0.934   1.502   1.108  0.9221 -1.1735 -0.1183
 3450TIP3   OH210294   3.906   6.603   3.349  0.0055 -0.0948 -0.2708
 3450TIP3    H110295   3.852   6.575   3.275 -0.1258  1.7195 -0.8995
 3450TIP3    H210296   3.861   6.681   3.382  1.6146  0.7564 -0.0815
 3451TIP3   OH210297   1.792   2.228   1.320  0.2186 -0.1780 -0.7071
 3451TIP3    H110298   1.724   2.161   1.319 -1.2605  1.2747 -1.2642
 3451TIP3    H210299   1.767   2.289   1.250  1.2858  1.1704  0.0434
 3452TIP3   OH210300   2.256   3.874   2.181 -0.0182  0.6305 -0.6008
 3452TIP3    H110301   2.294   3.787   2.196  1.1056  1.2501  0.2213
 3452TIP3    H210302   2.161   3.859   2.178  0.1540 -0.5826 -0.2129
 3453TIP3   OH210303   1.141   2.977   2.138 -0.1160  0.0938  0.3572
 3453TIP3    H110304   1.201   2.927   2.082  0.8249 -0.3516  1.7566
 3453TIP3    H210305   1.089   2.910   2.183  2.3807  0.2375  3.6199
 3454TIP3   OH210306   1.960   3.459   1.914 -0.0641  0.2712  0.4427
 3454TIP3    H110307   1.894   3.471   1.983 -1.1978  1.6881 -0.8411
 3454TIP3    H210308   2.011   3.540   1.916  1.4345 -0.6611  1.1702
 3455TIP3   OH210309   1.514   4.715   3.040 -0.8372 -0.3428 -0.0015
 3455TIP3    H110310   1.421   4.693   3.035 -0.7760 -0.4350 -0.7100
 3455TIP3    H210311   1.549   4.692   2.954 -0.1059 -0.5543  0.3553
 3456TIP3   OH210312   1.251   2.000   4.403  0.4347  0.1415  0.5529
 3456TIP3    H110313   1.253   1.942   4.328 -0.4159  0.3371  0.3719
 3456TIP3    H210314   1.228   2.086   4.367 -0.0013  0.2300  1.0390
 3457TIP3   OH210315   1.933   4.702   1.360 -0.3354  0.4134  0.2604
 3457TIP3    H110316   1.951   4.611   1.385  1.3759  0.7663  0.3891
 3457TIP3    H210317   1.839   4.711   1.370 -0.7964 -1.8554 -1.4595
 3458TIP3   OH210318   0.754   3.913   2.613  0.1108  0.2554 -0.2489
 3458TIP3    H110319   0.770   3.957   2.696 -3.3772 -0.7761  1.0382
 3458TIP3    H210320   0.672   3.952   2.581  0.9005 -0.0396 -2.7632
 3459TIP3   OH210321   8.254   4.873   4.118 -0.0323 -0.1444  0.4590
 3459TIP3    H110322   8.294   4.923   4.047 -0.2359  0.4229  0.7380
 3459TIP3    H210323   8.213   4.940   4.174 -0.6796 -0.6554  0.5979
 3460TIP3   OH210324   3.279   1.893   3.106 -0.6335  0.2430  0.3944
 3460TIP3    H110325   3.317   1.940   3.031  0.0616 -0.5762  0.2230
 3460TIP3    H210326   3.247   1.963   3.163 -0.3216  0.9096 -0.2248
 3461TIP3   OH210327   1.512   1.111   2.429  0.0932  0.0047  0.1297
 3461TIP3    H110328   1.464   1.188   2.459 -0.4166 -0.3596  0.2443
 3461TIP3    H210329   1.601   1.125   2.461 -0.0047  0.5299  0.1809
 3462TIP3   OH210330   3.140   3.496   2.090 -0.0724  0.0987 -0.0284
 3462TIP3    H110331   3.076   3.484   2.160  1.3758 -2.0979  1.0005
 3462TIP3    H210332   3.156   3.590   2.088 -2.2531  0.5024  0.6568
 3463TIP3   OH210333   2.040   5.147   1.117  0.2214  0.3101 -0.3083
 3463TIP3    H110334   1.950   5.125   1.091  0.3728  0.3666 -0.8845
 3463TIP3    H210335   2.064   5.079   1.179 -0.9457  1.4306  1.4133
 3464TIP3   OH210336   3.064   3.419   3.126  0.0551  0.0269  0.2452
 3464TIP3    H110337   3.150   3.381   3.108  0.0707  0.4176 -0.5362
 3464TIP3    H210338   3.018   3.412   3.042 -0.1595  1.1724  0.2675
 3465TIP3   OH210339   1.091   4.351   1.857  0.3603 -0.1921 -0.7860
 3465TIP3    H110340   1.016   4.361   1.798  0.9615 -0.6711 -1.6354
 3465TIP3    H210341   1.084   4.427   1.916  0.2095  0.7357 -1.9733
 3466TIP3   OH210342   0.170   2.365   3.586 -0.1181 -0.0087  0.1445
 3466TIP3    H110343   0.121   2.304   3.641  1.1371 -0.1959  1.0623
 3466TIP3    H210344   0.170   2.324   3.499 -1.1065 -0.2652  0.2523
 3467TIP3   OH210345   1.940   2.043   3.693 -0.4075 -0.2965  0.0532
 3467TIP3    H110346   1.977   1.954   3.695 -0.1166 -0.1634  1.4192
 3467TIP3    H210347   2.001   2.093   3.640  1.1406 -0.2052  1.8484
 3468TIP3   OH210348   2.024   4.089   4.008 -0.1237  0.1332  0.2433
 3468TIP3    H110349   1.987   4.115   4.093 -1.0306  0.2283 -0.1756
 3468TIP3    H210350   2.115   4.067   4.027 -0.7293 -1.3750  1.5388
 3469TIP3   OH210351   1.441   5.003   3.087 -0.1001  0.7594 -0.2289
 3469TIP3    H110352   1.348   5.009   3.064  0.0576 -2.1959 -1.9151
 3469TIP3    H210353   1.441   4.990   3.182 -1.4872  0.0071 -0.3112
 3470TIP3   OH210354   1.368   4.354   1.203  0.4100  0.0610 -0.1654
 3470TIP3    H110355   1.364   4.272   1.252 -0.2557  0.2257  0.0621
 3470TIP3    H210356   1.302   4.410   1.243  0.4805  0.5180 -0.6723
 3471TIP3   OH210357   0.995   3.583   1.846  0.2622  0.5111 -0.1313
 3471TIP3    H110358   1.011   3.535   1.928  1.2744  1.6080  0.3337
 3471TIP3    H210359   1.083   3.607   1.816 -0.0900 -0.1501 -1.7166
 3472TIP3   OH210360   2.107   3.080   3.505 -0.1236  0.0012  0.5248
 3472TIP3    H110361   2.023   3.065   3.461  0.6694  1.5499 -1.6182
 3472TIP3    H210362   2.157   3.000   3.489 -0.5098 -0.1700  0.1693
 3473TIP3   OH210363   1.211   5.187   2.636  0.3772 -0.2990  0.7614
 3473TIP3    H110364   1.279   5.234   2.684  1.3863 -3.3466  2.4326
 3473TIP3    H210365   1.138   5.181   2.698 -0.1557 -0.0261  0.1705
 3474TIP3   OH210366   3.258   1.638   3.043  0.0147 -0.4637  0.4534
 3474TIP3    H110367   3.301   1.716   3.076 -1.4846  0.5696  0.0323
 3474TIP3    H210368   3.179   1.670   3.000 -1.3031 -2.3167  1.4013
 3475TIP3   OH210369   1.346   4.073   4.101 -0.0599 -0.1410 -0.5889
 3475TIP3    H110370   1.286   4.147   4.095  1.6085  1.1023 -2.6293
 3475TIP3    H210371   1.293   3.996   4.079 -2.0304  0.2850  2.4901
 3476TIP3   OH210372   1.809   5.050   3.775  0.2454 -0.0512 -0.0617
 3476TIP3    H110373   1.896   5.076   3.804 -0.5196  0.2014  2.1035
 3476TIP3    H210374   1.770   5.131   3.741 -0.4409  0.6486  2.3335
 3477TIP3   OH210375   3.320   4.898   0.913 -0.0384  0.1382 -0.1874
 3477TIP3    H110376   3.288   4.910   0.823  0.7501 -0.1454 -0.5055
 3477TIP3    H210377   3.414   4.912   0.907  0.1080 -0.5518  0.4789
 3478TIP3   OH210378   1.197   2.833   3.006  0.1928  0.2396  0.4391
 3478TIP3    H110379   1.274   2.790   2.969 -0.6381 -0.2533 -0.7477
 3478TIP3    H210380   1.231   2.882   3.082  1.9302  1.2820 -0.9662
 3479TIP3   OH210381   0.913   4.009   4.001 -0.0475  0.6452  0.2580
 3479TIP3    H110382   0.960   3.982   4.080  0.3722  3.0251  0.8782
 3479TIP3    H210383   0.835   3.954   3.999 -0.8820  1.6018  3.2468
 3480TIP3   OH210384   1.444   2.410   5.560 -0.1524  0.2075 -0.7854
 3480TIP3    H110385   1.453   2.469   5.485  1.8069  0.7483 -0.1376
 3480TIP3    H210386   1.412   2.328   5.521  0.3651  0.6352 -2.1450
 3481TIP3   OH210387   0.132   1.545   2.878  0.0002  0.2551 -0.7092
 3481TIP3    H110388   0.060   1.576   2.933  0.8617 -0.5452  0.8986
 3481TIP3    H210389   0.098   1.466   2.836 -0.4704  0.5583 -0.9022
 3482TIP3   OH210390   3.097   4.692   3.898  0.7386 -0.0948 -0.3181
 3482TIP3    H110391   3.189   4.669   3.888  0.7026  1.0444 -3.9068
 3482TIP3    H210392   3.051   4.637   3.835 -0.8769  0.2688  0.5230
 3483TIP3   OH210393   0.042   3.118   3.207  0.0790 -0.3264  0.1443
 3483TIP3    H110394  -0.025   3.110   3.276  0.9019  0.7477  1.0942
 3483TIP3    H210395   0.060   3.028   3.180 -0.4046 -0.7429  1.1874
 3484TIP3   OH210396   3.313   4.352   3.700  0.3077 -0.0107 -0.5514
 3484TIP3    H110397   3.326   4.436   3.742 -0.1493 -0.8628  1.3350
 3484TIP3    H210398   3.240   4.366   3.639  1.7900  1.5459 -1.9952
 3485TIP3   OH210399   3.862   3.174   4.116  0.1302  1.0007 -0.3028
 3485TIP3    H110400   3.833   3.170   4.207 -1.5820  0.4168 -0.8690
 3485TIP3    H210401   3.846   3.264   4.090 -1.1577  0.6825 -0.6097
 3486TIP3   OH210402   1.018   4.208   2.931 -0.2686 -0.1753  0.5040
 3486TIP3    H110403   1.080   4.239   2.865 -0.1469 -0.8183  0.3114
 3486TIP3    H210404   1.064   4.136   2.976  0.1083  1.0488  2.1129
 3487TIP3   OH210405   0.749   5.048   2.653  0.3216 -0.2195  0.0334
 3487TIP3    H110406   0.714   4.982   2.713 -0.2149 -0.1779 -0.2339
 3487TIP3    H210407   0.754   5.004   2.568  1.7879 -0.5055  0.2670
 3488TIP3   OH210408   2.881   2.489   5.217  0.0544 -0.0669 -0.1089
 3488TIP3    H110409   2.867   2.581   5.240 -2.1526  0.0096 -1.5965
 3488TIP3    H210410   2.917   2.492   5.129 -2.2063 -0.6741 -1.0766
 3489TIP3   OH210411   3.779   3.461   1.831 -0.2386  0.0429 -0.0914
 3489TIP3    H110412   3.725   3.383   1.847  0.5947 -0.3787  0.7295
 3489TIP3    H210413   3.719   3.534   1.843 -1.0508 -0.4674 -0.9236
 3490TIP3   OH210414   3.585   2.672   3.888  0.2954 -0.4870 -0.1399
 3490TIP3    H110415   3.624   2.685   3.975 -0.3604  0.1210  0.0715
 3490TIP3    H210416   3.517   2.606   3.902  0.4161 -0.6357 -0.2587
 3491TIP3   OH210417   1.469   4.213   2.442  0.3736  0.4079  0.3683
 3491TIP3    H110418   1.531   4.179   2.377 -0.6623 -0.2038 -0.2999
 3491TIP3    H210419   1.502   4.179   2.525 -0.2829 -1.7338 -0.2180
 3492TIP3   OH210420   5.297   2.394   2.126 -0.4169 -0.3609 -0.3001
 3492TIP3    H110421   5.271   2.319   2.179  0.3801  0.1742  0.8613
 3492TIP3    H210422   5.279   2.471   2.180  2.5688  0.0747  0.1607
 3493TIP3   OH210423   2.381   2.424   4.642 -0.1504 -0.6804 -0.0705
 3493TIP3    H110424   2.444   2.371   4.691  0.2258 -0.7148 -0.5894
 3493TIP3    H210425   2.309   2.364   4.623  0.2878 -1.0113 -0.6833
 3494TIP3   OH210426   0.690   2.938   2.420  0.3949  0.3081 -0.3583
 3494TIP3    H110427   0.675   2.969   2.331  0.0298 -0.4175 -0.5522
 3494TIP3    H210428   0.672   3.014   2.476 -1.6949  0.1157 -0.7351
 3495TIP3   OH210429   1.067   1.910   4.606 -0.2635  0.1132  0.2520
 3495TIP3    H110430   1.121   1.876   4.677  0.9017 -0.6978 -1.0019
 3495TIP3    H210431   1.129   1.943   4.541 -1.0850 -2.9445 -2.2791
 3496TIP3   OH210432   1.126   4.787   4.111  0.7419 -0.0674 -0.1066
 3496TIP3    H110433   1.061   4.848   4.076  2.1567  1.5632  0.0055
 3496TIP3    H210434   1.077   4.708   4.132 -0.9567  0.6618 -1.2534
 3497TIP3   OH210435   4.020   4.373   2.505  0.0986 -0.3960 -0.4721
 3497TIP3    H110436   4.069   4.447   2.541  0.5315 -1.2997  0.8380
 3497TIP3    H210437   4.036   4.302   2.567  0.9003 -2.0219 -2.4782
 3498TIP3   OH210438   4.834   1.859   5.503 -0.2380 -0.4197  0.2317
 3498TIP3    H110439   4.897   1.929   5.521 -1.5788  0.5636  1.2784
 3498TIP3    H210440   4.775   1.896   5.437 -0.4757 -0.8374  0.2094
 3499TIP3   OH210441   1.213   5.811   0.669 -0.2284 -0.0283 -0.1200
 3499TIP3    H110442   1.131   5.763   0.676  0.1979 -0.8043 -0.3932
 3499TIP3    H210443   1.274   5.762   0.725  0.1299  0.3594 -0.1721
 3500TIP3   OH210444   1.517   4.298   4.366 -0.0614 -0.3875 -0.3804
 3500TIP3    H110445   1.446   4.342   4.319 -1.4611 -1.2112  0.8985
 3500TIP3    H210446   1.564   4.249   4.299 -2.0708 -1.6145 -0.9174
 3501TIP3   OH210447   2.482   3.092   4.840  0.4158  0.3147 -0.0314
 3501TIP3    H110448   2.552   3.134   4.889  0.3754 -0.0282  0.3175
 3501TIP3    H210449   2.525   3.051   4.765  0.5144  0.5891 -0.1246
 3502TIP3   OH210450   2.914   2.318   5.624 -0.1874  0.2376  0.3150
 3502TIP3    H110451   2.895   2.396   5.675 -0.6459 -0.2736  0.9320
 3502TIP3    H210452   2.974   2.267   5.678 -1.3756 -0.7281  0.7429
 3503TIP3   OH210453   2.249   3.486   0.019  0.0719 -0.1270  0.2717
 3503TIP3    H110454   2.248   3.555  -0.047 -1.3767 -0.7949 -0.4161
 3503TIP3    H210455   2.273   3.531   0.100  1.4716  0.7681 -0.6125
 3504TIP3   OH210456   8.249   4.457   3.552  0.1660  0.0492 -0.2096
 3504TIP3    H110457   8.218   4.547   3.562 -1.4311 -0.5039 -0.0502
 3504TIP3    H210458   8.283   4.433   3.639  1.7162  0.8810 -0.5588
 3505TIP3   OH210459   8.432   4.395   4.642  0.1496 -0.2718  0.4467
 3505TIP3    H110460   8.339   4.374   4.633 -0.0354  0.9590 -0.6663
 3505TIP3    H210461   8.473   4.356   4.566  0.2293  0.9259 -0.1361
 3506TIP3   OH210462   0.395   3.227   1.493  0.1320  0.4628  0.1331
 3506TIP3    H110463   0.364   3.183   1.572 -1.5956  1.6073  0.1132
 3506TIP3    H210464   0.452   3.162   1.451  1.2346 -0.0948  2.3957
 3507TIP3   OH210465   1.949   3.918   4.747  0.3813  0.0239  0.3021
 3507TIP3    H110466   2.041   3.923   4.774  0.6772 -0.3807 -0.6012
 3507TIP3    H210467   1.910   3.998   4.782  1.5547  1.2435 -1.0862
 3508TIP3   OH210468   6.409   7.764   3.602  0.4515  0.4260  0.1577
 3508TIP3    H110469   6.491   7.759   3.552  0.4544  2.1948 -0.0415
 3508TIP3    H210470   6.357   7.829   3.556 -0.8714 -0.3181  0.5849
 3509TIP3   OH210471   4.364   3.449   4.899 -0.4343 -0.3912 -0.4538
 3509TIP3    H110472   4.305   3.494   4.838  0.1359 -0.1365 -0.8330
 3509TIP3    H210473   4.408   3.520   4.945 -0.0872 -0.5697 -0.5076
 3510TIP3   OH210474   1.013   3.151   1.300  0.3686 -0.4390  0.3200
 3510TIP3    H110475   0.945   3.084   1.287 -0.8416  0.5616  1.3195
 3510TIP3    H210476   1.090   3.103   1.329 -0.4636 -1.4077  0.9347
 3511TIP3   OH210477   8.077   2.553   5.671 -0.2347  0.5002 -0.2826
 3511TIP3    H110478   7.984   2.549   5.646 -0.0173  0.5766 -1.1094
 3511TIP3    H210479   8.111   2.466   5.650 -0.1919  0.3591  0.3462
 3512TIP3   OH210480   8.163   6.190   5.295 -0.4314 -0.0143 -0.1888
 3512TIP3    H110481   8.118   6.220   5.374  1.7487 -0.7001  1.3625
 3512TIP3    H210482   8.095   6.146   5.244 -2.1448  1.5822  0.6794
 3513TIP3   OH210483   1.644   1.245   3.508  0.1297  0.1078  0.1442
 3513TIP3    H110484   1.728   1.264   3.467  0.1503  0.7899  0.4862
 3513TIP3    H210485   1.635   1.311   3.577 -1.4663  1.1462 -1.0054
 3514TIP3   OH210486   2.401   2.909   5.038 -0.0438 -0.4110 -0.2872
 3514TIP3    H110487   2.405   2.977   4.971  0.6636  1.3069  1.4215
 3514TIP3    H210488   2.482   2.859   5.027  0.7743  0.7868  0.1964
 3515TIP3   OH210489   3.555   3.953   3.827  0.0922 -0.1914 -0.2010
 3515TIP3    H110490   3.519   4.039   3.803  0.2709  0.3224  1.3330
 3515TIP3    H210491   3.527   3.939   3.917  1.5406 -0.9589  0.1520
 3516TIP3   OH210492   1.293   2.767   4.311 -0.2151 -0.0143  0.1914
 3516TIP3    H110493   1.234   2.762   4.236 -0.5693 -3.4994  0.5940
 3516TIP3    H210494   1.238   2.792   4.385  0.2837  4.2450 -0.7837
 3517TIP3   OH210495   0.722   5.186   4.361  0.1134  0.3112  0.4261
 3517TIP3    H110496   0.803   5.138   4.341 -1.1092 -1.5936 -0.0341
 3517TIP3    H210497   0.685   5.140   4.436 -0.8325  0.8303  0.2839
 3518TIP3   OH210498   1.346   4.647   4.992 -0.6070 -0.5545  0.0818
 3518TIP3    H110499   1.427   4.695   5.008 -1.6323  1.4264 -0.3739
 3518TIP3    H210500   1.283   4.715   4.968 -2.0235 -2.2157 -1.0232
 3519TIP3   OH210501   2.524   2.598   5.452  0.1552 -0.3687 -0.1977
 3519TIP3    H110502   2.536   2.657   5.526  0.9476  0.1371 -0.7244
 3519TIP3    H210503   2.587   2.528   5.466 -0.7434 -1.0733  0.3956
 3520TIP3   OH210504   4.313   1.938   5.141 -0.2727  0.0614  0.4089
 3520TIP3    H110505   4.307   1.844   5.156 -0.6671  0.1600  0.8995
 3520TIP3    H210506   4.321   1.947   5.046  0.2609 -0.4870  0.3953
 3521TIP3   OH210507   1.570   3.513   5.990  1.2058  0.1274 -0.3678
 3521TIP3    H110508   1.506   3.570   6.033  0.9299  0.1648 -0.8243
 3521TIP3    H210509   1.549   3.426   6.022 -0.3405 -0.1282 -2.0220
 3522TIP3   OH210510   3.094   2.214   6.514 -0.3180  0.8573  0.2453
 3522TIP3    H110511   3.190   2.215   6.519 -0.2387  0.9880 -1.1547
 3522TIP3    H210512   3.067   2.156   6.585  0.8391  0.1393  0.1171
 3523TIP3   OH210513   3.435   2.870   3.392  0.6175 -0.0548  0.5015
 3523TIP3    H110514   3.341   2.859   3.378  0.8675 -2.0092  0.1595
 3523TIP3    H210515   3.445   2.872   3.487  0.1022  1.5945  0.5374
 3524TIP3   OH210516   1.318   5.376   2.401 -0.1305 -0.2498 -0.0532
 3524TIP3    H110517   1.391   5.314   2.397  1.3806  1.4751  0.1580
 3524TIP3    H210518   1.299   5.383   2.495  1.7754  1.9314  0.2082
 3525TIP3   OH210519   0.633   3.234   3.463  0.2517 -0.6095  0.7353
 3525TIP3    H110520   0.589   3.155   3.492  0.3905 -0.4496  1.3857
 3525TIP3    H210521   0.567   3.303   3.469 -0.2855 -0.9281 -1.1806
 3526TIP3   OH210522   6.622   1.264   6.281  0.2005  0.2224  0.5510
 3526TIP3    H110523   6.642   1.239   6.191 -0.8455 -1.6312  0.7993
 3526TIP3    H210524   6.649   1.355   6.288  0.8123  0.2091 -1.4714
 3527TIP3   OH210525   1.872   4.591   1.106  0.2215  0.1791  0.3221
 3527TIP3    H110526   1.888   4.640   1.187  3.5173 -0.9567  0.4216
 3527TIP3    H210527   1.787   4.549   1.120 -2.0457  4.5860  0.8184
 3528TIP3   OH210528   3.744   4.035   1.957 -0.6516  0.5363 -0.3996
 3528TIP3    H110529   3.695   3.961   1.921  0.1083 -0.5520  0.7574
 3528TIP3    H210530   3.679   4.085   2.006 -0.6240 -0.8955  1.1187
 3529TIP3   OH210531   3.383   3.808   1.560  0.0161  0.3836 -0.0066
 3529TIP3    H110532   3.403   3.802   1.466  2.5007 -0.4268  0.5214
 3529TIP3    H210533   3.381   3.717   1.589  0.2232  0.6688  0.9123
 3530TIP3   OH210534   1.060   3.934   4.235  0.1038 -0.1822  0.2766
 3530TIP3    H110535   0.996   3.884   4.285  0.2147 -1.6818 -1.0376
 3530TIP3    H210536   1.131   3.872   4.218  0.3383  0.4808 -1.2291
 3531TIP3   OH210537   2.060   4.665   3.860 -0.3801 -0.1172  0.4104
 3531TIP3    H110538   2.111   4.593   3.896 -0.6294 -0.6078 -0.2084
 3531TIP3    H210539   1.975   4.659   3.904 -0.2327  0.1054  0.7260
 3532TIP3   OH210540   2.197   3.551   2.890  0.5495  0.3074 -0.2704
 3532TIP3    H110541   2.193   3.581   2.981  0.7752  0.5869 -0.3510
 3532TIP3    H210542   2.117   3.584   2.850  0.0523 -0.5203  0.0368
 3533TIP3   OH210543   2.956   2.998   3.404 -0.1125 -0.5018 -0.1695
 3533TIP3    H110544   2.999   3.038   3.329  0.5449 -1.0349 -0.0851
 3533TIP3    H210545   2.875   3.047   3.415  0.2299  0.1729 -0.6561
 3534TIP3   OH210546   1.406   4.543   1.960  0.5929  0.2187  0.7729
 3534TIP3    H110547   1.429   4.456   1.992 -2.4357 -1.0996 -0.4768
 3534TIP3    H210548   1.385   4.593   2.039  2.3740 -0.1183  1.4948
 3535TIP3   OH210549   2.122   2.553   2.868  0.0783  1.1141  0.3735
 3535TIP3    H110550   2.144   2.632   2.917  2.0258  0.3324  0.8263
 3535TIP3    H210551   2.077   2.498   2.932 -0.0146  1.2873  0.4581
 3536TIP3   OH210552   3.022   2.564   2.628 -0.1968 -0.1974 -0.5059
 3536TIP3    H110553   3.102   2.588   2.582  0.1110 -1.2669 -0.5453
 3536TIP3    H210554   3.017   2.626   2.702  0.3059  0.3001 -0.8828
 3537TIP3   OH210555   2.578   4.280   2.834  0.8716  0.1666  0.2170
 3537TIP3    H110556   2.578   4.253   2.742  0.8448  2.1812 -0.4127
 3537TIP3    H210557   2.630   4.361   2.835 -0.2179  0.8672  1.7582
 3538TIP3   OH210558   1.293   1.865   2.744  0.2695 -0.2409 -0.1683
 3538TIP3    H110559   1.370   1.818   2.713  1.8481  2.7163 -0.9193
 3538TIP3    H210560   1.312   1.885   2.835  0.0516 -0.2158 -0.1279
 3539TIP3   OH210561   4.185   2.114   4.101 -0.3588 -0.4373  0.1962
 3539TIP3    H110562   4.185   2.053   4.175  0.9854 -1.0299 -0.2695
 3539TIP3    H210563   4.194   2.058   4.023  0.2321  0.2944 -0.2764
 3540TIP3   OH210564   2.284   3.070   4.643 -0.4028  0.0408  0.3446
 3540TIP3    H110565   2.227   3.142   4.669  0.6029  0.9985 -0.0600
 3540TIP3    H210566   2.350   3.065   4.712 -1.7676 -2.0188  1.5724
 3541TIP3   OH210567   3.693   4.045   2.596 -0.2256  0.1373  0.1227
 3541TIP3    H110568   3.690   3.951   2.613 -1.9666 -0.0981 -1.2943
 3541TIP3    H210569   3.656   4.085   2.674 -0.3675 -0.4154  0.3387
 3542TIP3   OH210570   2.973   1.814   3.121 -0.3571  0.3753  0.1503
 3542TIP3    H110571   3.040   1.869   3.163  0.2055 -0.3588  0.2408
 3542TIP3    H210572   3.003   1.805   3.031  0.2662 -0.8635  0.4693
 3543TIP3   OH210573   2.594   4.541   3.488  0.2030  0.1951 -0.4142
 3543TIP3    H110574   2.598   4.482   3.413  1.4905  0.5290 -0.6243
 3543TIP3    H210575   2.623   4.626   3.454 -0.0971  0.5680  0.2399
 3544TIP3   OH210576   1.723   4.490   3.171  0.2680 -0.0347 -0.2912
 3544TIP3    H110577   1.663   4.522   3.239 -1.7512 -1.8193 -1.1733
 3544TIP3    H210578   1.760   4.570   3.132 -0.9476  1.0852  0.7957
 3545TIP3   OH210579   2.663   3.398   4.451  0.4773 -0.5852  0.4334
 3545TIP3    H110580   2.730   3.465   4.464 -0.0940  0.5918 -2.4624
 3545TIP3    H210581   2.708   3.328   4.404  0.3299 -0.9961  0.8963
 3546TIP3   OH210582   4.288   4.281   6.524  0.2894  0.6914  0.2933
 3546TIP3    H110583   4.253   4.197   6.554 -1.0828  1.5079  1.0225
 3546TIP3    H210584   4.218   4.319   6.471  0.6025  1.6992  0.5834
 3547TIP3   OH210585   2.304   3.188   3.273  0.8374  0.2111 -0.2189
 3547TIP3    H110586   2.340   3.269   3.310 -2.0095  0.6670  1.7503
 3547TIP3    H210587   2.250   3.152   3.343  0.1826 -2.1670 -1.9035
 3548TIP3   OH210588   2.638   2.717   3.245 -0.4151 -0.2077  0.3781
 3548TIP3    H110589   2.640   2.657   3.170  0.0690 -1.2938  1.2388
 3548TIP3    H210590   2.686   2.794   3.216 -0.1754 -0.6502 -0.4072
 3549TIP3   OH210591   0.352   2.606   3.644  0.5483  0.1961 -0.3535
 3549TIP3    H110592   0.302   2.535   3.605  1.4024 -0.8688  0.4627
 3549TIP3    H210593   0.424   2.621   3.582  1.0057 -0.4263  0.0159
 3550TIP3   OH210594   4.843   4.089   2.342  0.0612 -0.0449  0.3006
 3550TIP3    H110595   4.908   4.046   2.287  1.4602  1.3132  0.8661
 3550TIP3    H210596   4.808   4.159   2.287 -2.3393 -1.9479 -0.6810
 3551TIP3   OH210597   2.008   4.133   1.184 -0.0413  0.7718  0.3645
 3551TIP3    H110598   1.937   4.158   1.243  1.0081  5.5051 -0.1736
 3551TIP3    H210599   1.964   4.113   1.101 -0.9633  0.4762  0.9160
 3552TIP3   OH210600   0.193   1.298   3.569 -0.1449  0.0144  0.2154
 3552TIP3    H110601   0.214   1.338   3.653  1.7473 -0.8970  0.2029
 3552TIP3    H210602   0.255   1.338   3.508  0.7292 -1.7879 -0.0929
 3553TIP3   OH210603   2.424   4.986   2.238  0.4462  0.2085  0.3121
 3553TIP3    H110604   2.345   5.037   2.219  2.0148  3.6902  2.5584
 3553TIP3    H210605   2.484   5.006   2.166  0.6931  0.8293  0.6777
 3554TIP3   OH210606   1.111   0.801   3.416 -0.6421 -0.4779 -0.1350
 3554TIP3    H110607   1.132   0.709   3.401  1.2560  0.0812 -1.0260
 3554TIP3    H210608   1.133   0.817   3.507  0.7972 -0.4448 -0.4836
 3555TIP3   OH210609   0.423   4.443   4.646 -0.4554 -0.1978 -0.1270
 3555TIP3    H110610   0.361   4.406   4.708 -0.4659 -2.3635 -1.3359
 3555TIP3    H210611   0.508   4.406   4.672  0.4328  2.9433  1.6739
 3556TIP3   OH210612   3.110   3.640   2.365 -0.2249  0.4616  0.3566
 3556TIP3    H110613   3.050   3.714   2.369 -0.5049  0.2221  0.6046
 3556TIP3    H210614   3.193   3.678   2.338 -0.4346  0.8262  0.2192
 3557TIP3   OH210615   2.741   1.893   3.239 -0.1189 -0.0358  0.1147
 3557TIP3    H110616   2.827   1.853   3.223 -0.1289 -0.1994  0.4695
 3557TIP3    H210617   2.699   1.835   3.301 -0.7870 -0.3636 -0.6313
 3558TIP3   OH210618   0.129   4.369   3.800  0.1486  0.3853 -0.1988
 3558TIP3    H110619   0.130   4.416   3.717  2.3594  0.5237 -0.1124
 3558TIP3    H210620   0.159   4.432   3.865 -1.1818  0.1630  0.6674
 3559TIP3   OH210621   1.565   4.018   3.629 -0.1676  0.1505  0.0859
 3559TIP3    H110622   1.590   3.926   3.627 -1.6749 -0.2496 -0.1713
 3559TIP3    H210623   1.639   4.063   3.588  0.7037 -0.9024  0.4732
 3560TIP3   OH210624   1.780   4.225   3.517 -0.1783 -0.5908 -0.2708
 3560TIP3    H110625   1.703   4.274   3.488  2.1574  2.4000 -1.5581
 3560TIP3    H210626   1.830   4.287   3.569  2.6103 -1.7492 -1.5012
 3561TIP3   OH210627   1.858   6.765   3.369  0.2611  0.3068 -0.5356
 3561TIP3    H110628   1.789   6.702   3.391  0.3551  0.2922 -0.2808
 3561TIP3    H210629   1.938   6.712   3.363  0.4575  0.4974  0.3308
 3562TIP3   OH210630   1.093   5.042   3.223  0.3803  0.0060 -0.2951
 3562TIP3    H110631   1.116   4.976   3.289  0.6484 -0.8248 -1.2114
 3562TIP3    H210632   1.013   5.083   3.257  2.1936  1.7386  2.0810
 3563TIP3   OH210633   2.998   4.221   4.917  0.0186  0.0682 -0.1146
 3563TIP3    H110634   3.000   4.191   4.826 -1.1230  0.5945 -0.3285
 3563TIP3    H210635   2.921   4.279   4.921 -0.3192 -0.4601  1.3266
 3564TIP3   OH210636   1.469   6.181   1.823 -0.2605  0.4674  0.0394
 3564TIP3    H110637   1.397   6.205   1.880 -0.6586  0.1574 -0.3319
 3564TIP3    H210638   1.435   6.194   1.734  0.0235 -0.0066 -0.1413
 3565TIP3   OH210639   1.462   3.620   4.232  0.2754 -0.2631 -0.0257
 3565TIP3    H110640   1.458   3.527   4.254  0.4968 -0.3226 -0.2324
 3565TIP3    H210641   1.453   3.665   4.316  2.3556 -0.5061  0.3562
 3566TIP3   OH210642   0.531   4.706   4.596  0.1473  0.0469  0.0881
 3566TIP3    H110643   0.542   4.757   4.676  0.9912 -1.5572  1.0160
 3566TIP3    H210644   0.497   4.621   4.626  0.2399 -0.4866 -1.2765
 3567TIP3   OH210645   2.365   3.455   3.411 -0.5261 -0.4954  0.2104
 3567TIP3    H110646   2.342   3.463   3.504 -0.3214  1.7933  0.0858
 3567TIP3    H210647   2.454   3.489   3.405 -0.4091 -0.9697 -0.7760
 3568TIP3   OH210648   2.279   2.421   5.566  0.6049 -0.0812  0.8312
 3568TIP3    H110649   2.270   2.386   5.478  1.9240  2.0358 -0.1785
 3568TIP3    H210650   2.214   2.491   5.571  0.8526  0.1130  1.3726
 3569TIP3   OH210651   1.701   2.299   4.332 -0.4115 -0.3716  0.1075
 3569TIP3    H110652   1.792   2.296   4.304 -0.2401 -0.1265  0.6332
 3569TIP3    H210653   1.651   2.314   4.252  0.2432  2.5728  0.2244
 3570TIP3   OH210654   1.171   2.323   1.776  0.2761  0.0082  0.5539
 3570TIP3    H110655   1.183   2.257   1.844  0.0052  0.1412  0.7320
 3570TIP3    H210656   1.127   2.277   1.705 -1.4076  0.4019  1.3393
 3571TIP3   OH210657   1.770   2.890   1.643  0.0716 -0.0395  0.1349
 3571TIP3    H110658   1.857   2.866   1.675 -0.4127  2.1507  3.2537
 3571TIP3    H210659   1.738   2.811   1.601  3.3225 -1.0790 -0.5749
 3572TIP3   OH210660   2.154   1.598   3.009 -0.5196  0.0656  0.5392
 3572TIP3    H110661   2.119   1.591   2.920 -1.4825 -0.4519  0.9541
 3572TIP3    H210662   2.249   1.592   2.998 -0.7468 -2.5053 -0.2283
 3573TIP3   OH210663   2.583   1.690   3.350  0.4100 -0.2670  0.6268
 3573TIP3    H110664   2.533   1.631   3.292  0.1734 -1.9778  2.5123
 3573TIP3    H210665   2.522   1.711   3.420  1.1091  0.7491  0.9340
 3574TIP3   OH210666   2.514   2.616   4.473 -0.4195 -0.5835  0.3816
 3574TIP3    H110667   2.456   2.543   4.495 -0.6280 -0.2718  0.8811
 3574TIP3    H210668   2.463   2.694   4.496  1.1971 -0.3211  3.3799
 3575TIP3   OH210669   1.270   2.975   3.241  0.6646 -0.0329 -0.5739
 3575TIP3    H110670   1.336   3.045   3.240  1.4202 -0.7353 -0.0059
 3575TIP3    H210671   1.319   2.895   3.258 -0.2414 -0.6708 -0.8955
 3576TIP3   OH210672   0.664   3.832   3.134  0.1011 -0.2491  0.4479
 3576TIP3    H110673   0.626   3.860   3.051  0.1507 -0.0739  0.4851
 3576TIP3    H210674   0.588   3.807   3.188 -0.1378  2.1983  1.3104
 3577TIP3   OH210675   0.205   3.410   4.254  0.4414 -0.4200  0.3804
 3577TIP3    H110676   0.263   3.377   4.186  0.4662 -0.6965  0.5351
 3577TIP3    H210677   0.117   3.396   4.221  0.4645  1.1609 -0.4144
 3578TIP3   OH210678   2.499   3.481   2.996 -0.1847 -0.0709 -0.0602
 3578TIP3    H110679   2.475   3.388   2.996 -0.4382 -0.0334  2.3431
 3578TIP3    H210680   2.428   3.524   3.042  0.0209  1.3118 -1.0218
 3579TIP3   OH210681   1.790   4.748   3.045  0.1809 -0.7237  0.3540
 3579TIP3    H110682   1.695   4.747   3.054  0.3243 -0.4588  2.0762
 3579TIP3    H210683   1.816   4.834   3.078  1.0203 -0.7394 -0.2323
 3580TIP3   OH210684   2.719   2.980   3.177 -0.3129 -0.3209 -0.1076
 3580TIP3    H110685   2.693   3.040   3.246  1.7011  0.5569 -0.0586
 3580TIP3    H210686   2.715   3.033   3.097 -1.0345 -0.8627 -0.4329
 3581TIP3   OH210687   0.076   2.366   5.179  0.4858 -0.0303 -0.1464
 3581TIP3    H110688   0.082   2.382   5.085 -0.3953  1.9312  0.1107
 3581TIP3    H210689   0.124   2.439   5.219 -0.3801 -0.0557  0.9663
 3582TIP3   OH210690   1.902   2.953   5.319 -0.2120  0.3226 -0.4487
 3582TIP3    H110691   1.832   3.018   5.327  1.5339  2.0074  1.9689
 3582TIP3    H210692   1.909   2.913   5.406  0.8642 -0.8368 -1.0495
 3583TIP3   OH210693   0.444   4.257   3.771  0.3934 -0.2996 -0.1773
 3583TIP3    H110694   0.372   4.234   3.830  0.6340 -0.5185  0.0305
 3583TIP3    H210695   0.400   4.284   3.690  0.0175  1.0410  0.4502
 3584TIP3   OH210696   1.912   1.674   2.130  0.5126 -0.0090 -0.0248
 3584TIP3    H110697   1.853   1.611   2.088 -1.3762  1.5877  0.1552
 3584TIP3    H210698   1.959   1.715   2.057  0.0128  0.0411 -0.3263
 3585TIP3   OH210699   3.583   4.034   3.457 -0.5039  0.1056  0.5032
 3585TIP3    H110700   3.530   4.058   3.534 -2.0954  2.1148 -1.1539
 3585TIP3    H210701   3.542   4.081   3.384  1.9354 -0.4855 -1.3180
 3586TIP3   OH210702   1.491   4.123   1.720  0.5084  0.2928  0.1512
 3586TIP3    H110703   1.464   4.138   1.811 -0.0762  0.2601 -0.0146
 3586TIP3    H210704   1.435   4.181   1.668 -1.7827 -2.3931 -0.4973
 3587TIP3   OH210705   7.101   2.607   2.248  0.0209  0.2331  0.2332
 3587TIP3    H110706   7.067   2.617   2.338 -1.7487 -1.8054 -0.1372
 3587TIP3    H210707   7.025   2.577   2.198  1.6865 -1.4930 -1.3281
 3588TIP3   OH210708   2.525   2.285   2.846  0.7049 -0.6029  0.4246
 3588TIP3    H110709   2.561   2.249   2.765  0.4662  2.8669 -1.3119
 3588TIP3    H210710   2.430   2.276   2.836  0.6761 -0.1764  0.3021
 3589TIP3   OH210711   2.942   6.320   2.828 -0.1385  0.5440  0.1840
 3589TIP3    H110712   3.035   6.340   2.821 -0.1439  0.0739 -1.4211
 3589TIP3    H210713   2.938   6.224   2.832 -0.4533  0.6106  2.2929
 3590TIP3   OH210714   3.891   5.111   3.072  0.2867 -0.5818 -0.3200
 3590TIP3    H110715   3.921   5.024   3.046  0.7906 -0.4332 -0.2401
 3590TIP3    H210716   3.870   5.102   3.165 -1.7253 -1.1685 -0.8269
 3591TIP3   OH210717   3.301   5.371   3.102 -0.7115 -0.1366 -0.4977
 3591TIP3    H110718   3.293   5.430   3.176  0.5798  0.1486 -0.5721
 3591TIP3    H210719   3.355   5.299   3.134  1.2369  0.7794 -1.6031
 3592TIP3   OH210720   3.350   3.853   2.334  0.4248 -0.5614  0.0198
 3592TIP3    H110721   3.328   3.930   2.386 -1.7234 -1.5450  0.6225
 3592TIP3    H210722   3.351   3.885   2.244 -1.5443 -0.0365  0.1600
 3593TIP3   OH210723   5.292   3.518   2.688 -0.7853 -0.3217  0.0164
 3593TIP3    H110724   5.364   3.577   2.664 -1.4627  0.1060 -1.0128
 3593TIP3    H210725   5.304   3.442   2.632 -0.3532 -0.8321  0.8039
 3594TIP3   OH210726   5.128   2.176   4.294 -0.3524 -0.1156 -0.1426
 3594TIP3    H110727   5.063   2.221   4.240 -0.0469  1.1652  0.5314
 3594TIP3    H210728   5.107   2.204   4.383  0.1430 -0.9586  0.2443
 3595TIP3   OH210729   6.373   1.516   2.285 -0.4967  0.2706  0.5104
 3595TIP3    H110730   6.368   1.456   2.360  2.4096 -1.5238 -0.6237
 3595TIP3    H210731   6.440   1.580   2.311 -0.0801  0.1304 -0.2152
 3596TIP3   OH210732   6.695   4.978   3.202  1.1989 -0.1516 -0.1326
 3596TIP3    H110733   6.691   4.946   3.112  1.1618  0.4491 -0.3441
 3596TIP3    H210734   6.649   4.911   3.253  0.3581 -0.0055 -0.6902
 3597TIP3   OH210735   3.140   4.207   3.359  0.9169 -0.1760  0.2941
 3597TIP3    H110736   3.062   4.154   3.342  1.8157 -1.6480  0.6442
 3597TIP3    H210737   3.112   4.270   3.425 -0.5087  0.6018 -1.0295
 3598TIP3   OH210738   4.479   3.406   3.490  0.0982 -0.4061 -0.3671
 3598TIP3    H110739   4.448   3.401   3.400 -2.0577  1.0869  0.2398
 3598TIP3    H210740   4.558   3.459   3.486  0.9661 -1.7695 -1.5812
 3599TIP3   OH210741   2.129   5.046   3.851  0.3403  0.3946  0.4164
 3599TIP3    H110742   2.210   5.017   3.892  0.4748 -1.4609 -1.1006
 3599TIP3    H210743   2.146   5.041   3.757 -1.2968  0.6498  0.0890
 3600TIP3   OH210744   2.888   2.514   0.741  0.1021 -0.3481 -0.3841
 3600TIP3    H110745   2.891   2.421   0.765 -2.0142 -0.0532  1.1170
 3600TIP3    H210746   2.847   2.557   0.815  1.9740  1.9724 -0.6352
 3601TIP3   OH210747   4.713   4.043   3.254  0.2693  0.2154  0.4342
 3601TIP3    H110748   4.744   4.013   3.339  0.6263  1.4660  0.7612
 3601TIP3    H210749   4.637   3.988   3.234  0.5996 -0.5390  1.2344
 3602TIP3   OH210750   5.085   4.613   1.828  0.1547 -0.3946  0.4180
 3602TIP3    H110751   5.083   4.574   1.740 -1.3869  1.5311 -0.4323
 3602TIP3    H210752   5.036   4.695   1.819 -1.1895 -0.8211  3.4207
 3603TIP3   OH210753   4.641   3.578   1.264 -0.2356  0.7418  0.5207
 3603TIP3    H110754   4.712   3.594   1.202  0.6348 -1.0416  1.0190
 3603TIP3    H210755   4.643   3.653   1.322 -0.8019  2.2482 -1.3433
 3604TIP3   OH210756   6.471   3.390   2.551 -0.5350 -0.1001  0.0762
 3604TIP3    H110757   6.480   3.355   2.639 -1.3048  1.3099  0.7315
 3604TIP3    H210758   6.539   3.347   2.500  0.0288 -0.7757  1.4061
 3605TIP3   OH210759   5.758   4.241   2.800 -0.0877  0.1815  0.1882
 3605TIP3    H110760   5.824   4.285   2.746 -0.4127 -0.3728 -0.6662
 3605TIP3    H210761   5.808   4.199   2.870  0.5554 -0.9147 -0.9080
 3606TIP3   OH210762   3.205   3.306   3.832 -0.5869  0.2235 -0.0981
 3606TIP3    H110763   3.172   3.248   3.900 -0.2969 -1.4929 -1.3803
 3606TIP3    H210764   3.249   3.376   3.879 -0.1149 -1.1103  1.4688
 3607TIP3   OH210765   5.788   4.536   1.595  0.6273 -0.2352  0.0558
 3607TIP3    H110766   5.794   4.477   1.670 -0.1572 -0.9513 -0.4331
 3607TIP3    H210767   5.702   4.576   1.602 -0.6716 -2.5067 -2.0399
 3608TIP3   OH210768   4.261   3.718   3.161 -0.0965  0.1726  0.2955
 3608TIP3    H110769   4.272   3.731   3.067  0.2846 -0.0618  0.3060
 3608TIP3    H210770   4.263   3.623   3.173 -1.2226  0.1637  0.4142
 3609TIP3   OH210771   3.634   6.907   1.018  0.7550  0.5179  0.1996
 3609TIP3    H110772   3.637   6.811   1.013 -1.2778  0.5176 -1.4811
 3609TIP3    H210773   3.663   6.936   0.931  0.5052  1.4176  0.4193
 3610TIP3   OH210774   6.173   1.691   2.434  0.6118 -0.5570  0.0681
 3610TIP3    H110775   6.152   1.768   2.487 -0.7967  0.0003 -1.2918
 3610TIP3    H210776   6.234   1.723   2.368  1.5471 -1.0436  0.6668
 3611TIP3   OH210777   4.712   0.394   1.887  0.0983  0.2945  0.5331
 3611TIP3    H110778   4.634   0.375   1.835  0.3172 -0.7467  0.5780
 3611TIP3    H210779   4.677   0.436   1.966 -0.3387  0.7057  0.1243
 3612TIP3   OH210780   4.179   5.698   0.400 -0.1439 -0.2558  0.0744
 3612TIP3    H110781   4.158   5.706   0.493  2.5088 -0.1852  0.7126
 3612TIP3    H210782   4.125   5.626   0.369 -1.4128  0.0445  1.5512
 3613TIP3   OH210783   3.878   3.514   1.245 -0.0178  0.0122 -0.0038
 3613TIP3    H110784   3.802   3.544   1.295  0.0143  0.3047 -0.1318
 3613TIP3    H210785   3.920   3.594   1.214  1.6983 -0.0491  2.0579
 3614TIP3   OH210786   5.035   6.507   2.290  0.1617 -0.1200  0.6073
 3614TIP3    H110787   5.035   6.422   2.333 -0.3692 -0.9663 -1.0361
 3614TIP3    H210788   5.075   6.491   2.205  0.4069  1.3598  0.4300
 3615TIP3   OH210789   4.428   3.176   2.737  0.4688 -0.4603 -0.0294
 3615TIP3    H110790   4.421   3.124   2.657 -0.7758 -0.3651  0.0160
 3615TIP3    H210791   4.437   3.266   2.705 -1.4965 -0.2498 -0.0672
 3616TIP3   OH210792   4.425   3.096   3.266 -0.1840 -0.1931 -0.3723
 3616TIP3    H110793   4.508   3.093   3.217 -0.5746 -0.6893 -1.0090
 3616TIP3    H210794   4.357   3.096   3.198 -0.7414 -1.5136  0.1718
 3617TIP3   OH210795   4.008   7.604   1.771 -0.4795 -0.2686  0.3891
 3617TIP3    H110796   4.024   7.696   1.748 -2.3271 -0.2563 -0.9009
 3617TIP3    H210797   4.091   7.560   1.752  1.1718  1.4604  3.0990
 3618TIP3   OH210798   3.305   3.244   3.118  0.1249 -0.4248 -0.3375
 3618TIP3    H110799   3.323   3.336   3.137 -1.1522  0.3103 -2.5206
 3618TIP3    H210800   3.357   3.196   3.182  0.7432  1.8125  0.8945
 3619TIP3   OH210801   4.136   4.078   1.533 -0.2587 -0.1961 -0.0123
 3619TIP3    H110802   4.110   4.165   1.503  0.0389 -1.1567 -3.1579
 3619TIP3    H210803   4.062   4.021   1.509 -0.7085 -0.7742  2.5223
 3620TIP3   OH210804   5.843   3.008   1.356  0.2838 -0.1098  0.5942
 3620TIP3    H110805   5.894   2.945   1.407  0.1116 -0.0200  0.8769
 3620TIP3    H210806   5.881   3.004   1.268  0.3815 -0.4846  0.6538
 3621TIP3   OH210807   3.221   2.434   2.896  0.0995 -0.6055 -0.5049
 3621TIP3    H110808   3.161   2.508   2.904  0.6016 -0.1362 -1.0699
 3621TIP3    H210809   3.284   2.446   2.967 -1.1673 -1.7578  0.8488
 3622TIP3   OH210810   2.470   2.959   2.161 -0.3014 -0.6917 -0.1657
 3622TIP3    H110811   2.443   2.950   2.070  0.6255  0.1038 -0.5261
 3622TIP3    H210812   2.561   2.989   2.157  0.0454 -1.5415  1.0194
 3623TIP3   OH210813   5.433   4.326   0.895  0.2700 -0.3354  0.4441
 3623TIP3    H110814   5.454   4.317   0.988 -0.2121 -0.4619  0.5387
 3623TIP3    H210815   5.471   4.249   0.854 -2.1746 -1.8527  0.9744
 3624TIP3   OH210816   4.848   3.801   3.462 -0.6438 -0.3732 -0.1892
 3624TIP3    H110817   4.922   3.861   3.447 -1.3650  0.8715  1.0868
 3624TIP3    H210818   4.863   3.766   3.550 -0.2100 -2.1218 -0.9440
 3625TIP3   OH210819   3.994   4.909   2.675  0.5518 -0.0572 -0.1486
 3625TIP3    H110820   4.030   4.986   2.720  1.9550 -0.7114 -0.0998
 3625TIP3    H210821   3.903   4.904   2.704  0.9085  0.6322  1.1276
 3626TIP3   OH210822   2.750   5.251   4.240 -0.1838  0.3500 -0.4662
 3626TIP3    H110823   2.686   5.241   4.310 -1.4014  0.6992 -1.4900
 3626TIP3    H210824   2.832   5.272   4.284 -1.2445  1.9949  0.7595
 3627TIP3   OH210825   7.180   3.880   3.358  0.1081 -0.3109  0.2847
 3627TIP3    H110826   7.234   3.827   3.298 -0.0894 -0.3565  0.1472
 3627TIP3    H210827   7.129   3.816   3.408  1.4986 -0.3528  1.6854
 3628TIP3   OH210828   4.675   3.694   3.886 -0.3139  0.1107 -0.2893
 3628TIP3    H110829   4.723   3.776   3.896 -0.8842  0.2606  1.3807
 3628TIP3    H210830   4.599   3.716   3.833 -0.9810  0.8900  0.9759
 3629TIP3   OH210831   2.293   7.835   1.395  0.0354  0.3346 -0.2582
 3629TIP3    H110832   2.326   7.918   1.430 -1.6015  1.1691 -0.6533
 3629TIP3    H210833   2.249   7.859   1.313 -0.7540 -0.8688 -0.1992
 3630TIP3   OH210834   4.465   4.312   2.302 -0.5664 -0.4046  0.1602
 3630TIP3    H110835   4.557   4.301   2.278 -0.4234  1.1465 -0.0288
 3630TIP3    H210836   4.463   4.391   2.356 -1.6818 -0.8396  0.7931
 3631TIP3   OH210837   4.911   7.003   1.423 -0.7400  0.0360  0.4256
 3631TIP3    H110838   4.817   6.991   1.413 -0.7146 -0.8594  1.2607
 3631TIP3    H210839   4.948   6.915   1.417  0.0399  0.3694  0.2092
 3632TIP3   OH210840   2.944   3.435   3.751  0.2211 -0.2305 -0.0932
 3632TIP3    H110841   3.039   3.435   3.761  0.0986 -1.1929  1.2597
 3632TIP3    H210842   2.918   3.344   3.769 -1.1046  0.3983  1.2986
 3633TIP3   OH210843   2.913   3.846   3.732 -0.3369 -0.1628 -0.6563
 3633TIP3    H110844   2.853   3.905   3.777 -0.0545 -0.9074  0.7219
 3633TIP3    H210845   2.955   3.900   3.665 -1.2605  0.7871 -0.4694
 3634TIP3   OH210846   4.080   7.481   4.678  0.1900 -0.5187  0.3813
 3634TIP3    H110847   4.140   7.457   4.749 -2.0498 -1.6460  1.9410
 3634TIP3    H210848   4.013   7.535   4.720 -0.8729 -0.7352 -1.0057
 3635TIP3   OH210849   2.598   4.369   4.421 -0.3853 -0.2190 -0.1973
 3635TIP3    H110850   2.657   4.416   4.480 -0.1957  1.6152 -1.8024
 3635TIP3    H210851   2.584   4.429   4.348 -1.4022 -2.0447 -1.5518
 3636TIP3   OH210852   3.334   5.765   2.936  0.1208  0.0176  0.4124
 3636TIP3    H110853   3.249   5.797   2.906  0.4815  0.7790  0.1841
 3636TIP3    H210854   3.336   5.673   2.910 -0.0274  0.3829 -0.9309
 3637TIP3   OH210855   3.386   2.844   2.062 -0.5400 -0.1383  0.0628
 3637TIP3    H110856   3.457   2.831   1.999 -1.4412  1.2552 -1.2844
 3637TIP3    H210857   3.332   2.766   2.054  0.1979 -0.6725  0.2449
 3638TIP3   OH210858   2.869   4.390   3.202  1.1112  0.3934 -0.1006
 3638TIP3    H110859   2.928   4.362   3.132  1.2498 -1.8920  0.9087
 3638TIP3    H210860   2.921   4.452   3.253  1.7727  0.3436 -0.7095
 3639TIP3   OH210861   4.713   4.346   3.562  0.2285 -0.3390  0.0394
 3639TIP3    H110862   4.654   4.316   3.632  1.6805 -2.2542  0.4786
 3639TIP3    H210863   4.665   4.327   3.481  0.1703 -1.7937  0.3923
 3640TIP3   OH210864   4.752   5.079   2.479 -0.7223  0.5722 -0.1583
 3640TIP3    H110865   4.816   5.036   2.423 -1.5928 -0.7632 -0.1513
 3640TIP3    H210866   4.672   5.084   2.426 -0.8386  1.5815  0.0820
 3641TIP3   OH210867   5.751   3.427   3.281  0.5845 -0.5300 -0.5388
 3641TIP3    H110868   5.726   3.506   3.233  0.8898 -0.0188  0.1389
 3641TIP3    H210869   5.845   3.437   3.297  0.7283 -1.2690 -0.8920
 3642TIP3   OH210870   3.510   1.436   2.401  0.1813 -0.0830  0.2318
 3642TIP3    H110871   3.476   1.422   2.313  0.6683  1.3245 -0.2012
 3642TIP3    H210872   3.520   1.349   2.437  1.1945 -0.7558 -1.5855
 3643TIP3   OH210873   5.518   1.589   5.725  0.3591  0.2832  0.0496
 3643TIP3    H110874   5.464   1.595   5.646 -1.9728 -0.5226  1.5368
 3643TIP3    H210875   5.479   1.652   5.786  1.8246  0.5393  0.7448
 3644TIP3   OH210876   4.042   2.427   3.892 -0.2397 -0.5232 -0.2832
 3644TIP3    H110877   4.052   2.361   3.824  4.1596 -0.5335  0.2503
 3644TIP3    H210878   4.119   2.482   3.884 -0.7023  0.7894  3.2998
 3645TIP3   OH210879   6.752   3.946   0.289  0.1134 -0.0884  0.1061
 3645TIP3    H110880   6.830   3.890   0.289  2.7281  3.3232  2.0857
 3645TIP3    H210881   6.723   3.947   0.380 -1.0762  0.2404 -0.2678
 3646TIP3   OH210882   5.861   2.711   3.354 -0.9090 -0.4188 -0.1681
 3646TIP3    H110883   5.779   2.668   3.378 -0.7000 -1.8864 -2.0456
 3646TIP3    H210884   5.923   2.683   3.421 -1.3200 -1.2965 -0.1514
 3647TIP3   OH210885   3.015   4.184   2.717 -0.2317 -0.0031 -0.0072
 3647TIP3    H110886   2.969   4.206   2.636  0.6607 -0.6418 -0.7037
 3647TIP3    H210887   3.017   4.088   2.717  2.0888  0.0089 -0.5846
 3648TIP3   OH210888   4.855   1.879   1.360  0.5537  0.0475  0.1496
 3648TIP3    H110889   4.786   1.844   1.417  0.5536  0.0768  0.1682
 3648TIP3    H210890   4.932   1.825   1.379 -0.1442 -1.6383 -1.7176
 3649TIP3   OH210891   3.912   3.444   0.975  0.3898 -0.3270  0.4629
 3649TIP3    H110892   3.825   3.436   0.937  0.9101 -2.3038 -0.3500
 3649TIP3    H210893   3.898   3.435   1.070 -0.3052 -0.3775  0.3551
 3650TIP3   OH210894   3.049   2.921   4.979 -0.3977  0.1205  0.3076
 3650TIP3    H110895   2.972   2.886   5.024 -0.7173  0.8516  0.3382
 3650TIP3    H210896   3.114   2.935   5.048 -0.0765 -0.9100  0.2214
 3651TIP3   OH210897   4.693   3.054   3.054  0.0998 -0.3569 -0.8135
 3651TIP3    H110898   4.718   2.974   3.101 -2.0965 -0.7408 -0.2190
 3651TIP3    H210899   4.774   3.086   3.015  1.6430 -1.0986  1.6595
 3652TIP3   OH210900   6.698   4.378   2.925 -0.2272 -0.8861 -0.4991
 3652TIP3    H110901   6.631   4.444   2.945 -0.3677 -1.4866  1.0244
 3652TIP3    H210902   6.762   4.425   2.871 -0.3360  0.5137  0.5551
 3653TIP3   OH210903   3.586   3.461   4.599  0.0170 -0.0763  0.2548
 3653TIP3    H110904   3.578   3.545   4.553  1.6554 -0.1006 -0.1294
 3653TIP3    H210905   3.663   3.472   4.655 -0.6285 -0.8274  1.3079
 3654TIP3   OH210906   2.407   3.226   3.022  0.6386 -0.1132  0.2299
 3654TIP3    H110907   2.370   3.201   3.107  1.7307 -1.3742  0.3379
 3654TIP3    H210908   2.335   3.214   2.960 -0.3578  1.4076  1.0412
 3655TIP3   OH210909   2.770   2.752   2.488  0.0325 -0.5428  0.2435
 3655TIP3    H110910   2.763   2.670   2.538  0.7645 -1.0387 -0.4641
 3655TIP3    H210911   2.817   2.811   2.547 -0.4559 -0.6352  0.7379
 3656TIP3   OH210912   4.282   4.339   3.165 -0.3450  0.5317 -0.7757
 3656TIP3    H110913   4.344   4.329   3.093 -0.8990 -2.4305 -0.9018
 3656TIP3    H210914   4.199   4.307   3.130 -0.9545  0.4291  0.7369
 3657TIP3   OH210915   5.254   4.491   2.633 -0.2129 -0.0135  0.1349
 3657TIP3    H110916   5.283   4.467   2.545  1.4812  0.8725  0.4325
 3657TIP3    H210917   5.162   4.514   2.622  0.1268  0.6251 -1.5175
 3658TIP3   OH210918   2.093   3.863   1.036  0.2311 -0.1528 -0.2469
 3658TIP3    H110919   2.009   3.907   1.043  0.4744  0.7314 -2.3631
 3658TIP3    H210920   2.148   3.904   1.102 -1.2718 -1.4477  1.8506
 3659TIP3   OH210921   2.686   2.558   3.000  0.1795 -0.1877  0.2437
 3659TIP3    H110922   2.712   2.625   2.936 -0.4802  0.2295  0.4081
 3659TIP3    H210923   2.618   2.507   2.955 -0.3891  0.1988  0.6649
 3660TIP3   OH210924   5.525   5.220   2.472  0.1043  0.0473  0.0924
 3660TIP3    H110925   5.572   5.138   2.489 -2.4012 -1.3341  0.7364
 3660TIP3    H210926   5.520   5.225   2.377  0.8170 -0.2325  0.0353
 3661TIP3   OH210927   2.706   4.093   1.408  0.2030  0.4285  0.4329
 3661TIP3    H110928   2.664   4.025   1.354  1.6176  0.5456 -0.8337
 3661TIP3    H210929   2.731   4.047   1.488  0.5979 -0.4030 -0.1601
 3662TIP3   OH210930   4.140   6.453   3.023 -0.2976  0.5035  0.8263
 3662TIP3    H110931   4.175   6.542   3.020 -1.0476  0.8504  2.0825
 3662TIP3    H210932   4.069   6.453   2.958  1.2865  0.1090 -0.9307
 3663TIP3   OH210933   4.312   2.684   4.324  0.1534  0.1569 -0.1057
 3663TIP3    H110934   4.219   2.663   4.318  1.0622 -3.9105 -2.0111
 3663TIP3    H210935   4.336   2.661   4.414 -0.5476  0.4808  0.1627
 3664TIP3   OH210936   4.914   2.779   4.412 -0.0670  0.3727 -0.0445
 3664TIP3    H110937   4.935   2.689   4.387  1.3804  0.4531  0.8449
 3664TIP3    H210938   4.900   2.825   4.328 -2.3899 -1.0218 -0.4622
 3665TIP3   OH210939   3.337   2.363   2.512  0.1504 -0.4319 -1.0573
 3665TIP3    H110940   3.401   2.394   2.448  1.2133 -0.5839 -0.0779
 3665TIP3    H210941   3.388   2.313   2.575 -0.7072  0.5733  0.4782
 3666TIP3   OH210942   5.680   4.219   1.365  0.6984 -0.1505 -0.3557
 3666TIP3    H110943   5.631   4.267   1.432  0.6172 -1.3044  0.4236
 3666TIP3    H210944   5.766   4.261   1.364  0.2411  0.7949 -0.5452
 3667TIP3   OH210945   5.335   3.722   1.826  0.3550  0.1570  0.3470
 3667TIP3    H110946   5.316   3.775   1.748 -0.5734 -0.4856  0.1267
 3667TIP3    H210947   5.426   3.744   1.849 -0.0962  2.0082  0.4041
 3668TIP3   OH210948   5.361   4.329   2.420 -0.4576 -0.2185  0.8435
 3668TIP3    H110949   5.315   4.272   2.359  1.9037 -1.5358  0.2196
 3668TIP3    H210950   5.389   4.271   2.491  1.8492  0.1449  0.2715
 3669TIP3   OH210951   4.805   2.288   2.129 -0.4643 -0.5989 -0.1887
 3669TIP3    H110952   4.722   2.333   2.146 -0.1373  0.1045 -0.4456
 3669TIP3    H210953   4.869   2.335   2.183  0.4968  1.3324 -2.8750
 3670TIP3   OH210954   3.456   6.032   4.707  0.9901 -0.5116 -0.0641
 3670TIP3    H110955   3.512   6.094   4.660 -0.0004  2.5551  2.6088
 3670TIP3    H210956   3.485   5.946   4.677  1.2121  1.1807 -5.3447
 3671TIP3   OH210957   3.801   6.396   1.283  0.0593  0.0003 -0.2919
 3671TIP3    H110958   3.750   6.326   1.324 -0.1807 -0.4569 -1.3460
 3671TIP3    H210959   3.737   6.466   1.268  0.0473 -0.0083 -0.2816
 3672TIP3   OH210960   4.790   5.300   4.234  0.6146  0.1438  0.7509
 3672TIP3    H110961   4.697   5.296   4.211  0.8848  0.4267 -0.4376
 3672TIP3    H210962   4.809   5.214   4.273  0.6010 -1.2254 -2.0494
 3673TIP3   OH210963   3.787   3.045   2.525 -0.4576  0.0289 -0.6374
 3673TIP3    H110964   3.836   2.962   2.525  0.2982  0.4581 -1.7268
 3673TIP3    H210965   3.850   3.110   2.557 -0.3323  0.5592 -1.9118
 3674TIP3   OH210966   1.834   5.027   2.729 -0.8071  0.2770  0.0620
 3674TIP3    H110967   1.750   5.024   2.774 -0.9384 -0.6554 -0.2419
 3674TIP3    H210968   1.864   4.936   2.725 -1.1396  0.2346 -2.3213
 3675TIP3   OH210969   2.825   1.621   3.456  0.4327 -0.3877  0.5956
 3675TIP3    H110970   2.877   1.541   3.453 -0.3336 -0.9823  2.4534
 3675TIP3    H210971   2.758   1.608   3.389  0.1290 -1.4208  1.0948
 3676TIP3   OH210972   6.245   4.041   0.391 -0.4596  0.3794 -0.1511
 3676TIP3    H110973   6.189   4.078   0.323 -0.2830 -0.0211 -0.5160
 3676TIP3    H210974   6.206   4.071   0.473 -0.6661  0.8800 -0.4260
 3677TIP3   OH210975   4.293   4.701   1.989  0.2376  0.0899 -0.1466
 3677TIP3    H110976   4.317   4.628   2.048  0.4710  0.3425  0.0721
 3677TIP3    H210977   4.212   4.671   1.946 -1.3111  0.8913  2.1046
 3678TIP3   OH210978   6.246   4.312   2.004 -0.0718  0.8466 -0.1948
 3678TIP3    H110979   6.281   4.231   2.041  1.5475  0.3602 -2.6641
 3678TIP3    H210980   6.304   4.381   2.038  1.2547  0.4318 -1.5559
 3679TIP3   OH210981   4.303   3.858   1.585 -0.4963  0.1619  0.0507
 3679TIP3    H110982   4.270   3.787   1.530 -1.6954  1.4146 -0.9016
 3679TIP3    H210983   4.275   3.938   1.540 -0.0242  1.2349  1.6103
 3680TIP3   OH210984   4.112   6.115   1.809 -0.9996 -0.1270 -0.3152
 3680TIP3    H110985   4.182   6.092   1.747 -1.2933 -0.7780 -0.4160
 3680TIP3    H210986   4.155   6.168   1.876  0.0328 -2.2177  0.7207
 3681TIP3   OH210987   5.278   3.089   2.302  0.4233 -0.2204  0.1384
 3681TIP3    H110988   5.221   3.165   2.309  0.1249 -0.3958 -0.3613
 3681TIP3    H210989   5.366   3.125   2.292  0.0623  0.0915 -2.1423
 3682TIP3   OH210990   1.419   5.282   2.041  0.1311 -0.0951  0.4585
 3682TIP3    H110991   1.324   5.294   2.038  0.2249  0.6776  0.2834
 3682TIP3    H210992   1.436   5.205   1.987 -0.3062  0.3494 -0.3253
 3683TIP3   OH210993   3.363   3.798   3.608 -0.0185 -0.1518  0.1019
 3683TIP3    H110994   3.409   3.866   3.559  0.2957 -0.2463  0.2643
 3683TIP3    H210995   3.306   3.846   3.668  1.9722  0.0258  1.9372
 3684TIP3   OH210996   3.540   3.423   4.165  0.2911 -0.4290 -0.1700
 3684TIP3    H110997   3.446   3.419   4.150  0.3438  0.3824 -0.7627
 3684TIP3    H210998   3.566   3.508   4.130  1.4639 -1.2278 -1.2887
 3685TIP3   OH210999   4.021   4.426   2.230  0.7387  0.2166 -0.0083
 3685TIP3    H111000   3.996   4.338   2.203 -1.7894  0.3817  1.6314
 3685TIP3    H211001   4.037   4.420   2.324  1.5969  1.3010 -0.0632
 3686TIP3   OH211002   4.548   4.036   4.023 -0.0167  0.4327  0.4593
 3686TIP3    H111003   4.514   4.125   4.031 -2.0293 -0.3629  0.9541
 3686TIP3    H211004   4.477   3.980   4.055  0.5563 -1.4515 -1.4384
 3687TIP3   OH211005   5.176   4.066   1.025 -0.3521  0.6205  0.0301
 3687TIP3    H111006   5.229   4.032   0.953 -0.8004  1.3946 -0.6719
 3687TIP3    H211007   5.163   4.158   1.003 -1.5188  0.5648  0.4902
 3688TIP3   OH211008   4.514   4.971   2.807  0.8303 -0.2310  0.0345
 3688TIP3    H111009   4.461   4.964   2.887  2.2152 -0.6757  0.9398
 3688TIP3    H211010   4.451   4.992   2.738 -0.3297  0.6818  1.3329
 3689TIP3   OH211011   2.763   2.760   1.412 -0.1763 -0.1135  0.5537
 3689TIP3    H111012   2.738   2.841   1.368 -0.6304 -0.7762 -0.4384
 3689TIP3    H211013   2.773   2.696   1.341  0.4240 -0.8627  1.2954
 3690TIP3   OH211014   3.508   3.557   2.124  0.4393 -0.4114  0.0331
 3690TIP3    H111015   3.594   3.595   2.143  0.4321 -0.2828 -0.1894
 3690TIP3    H211016   3.502   3.558   2.029  0.8215 -1.8106 -0.0191
 3691TIP3   OH211017   6.253   3.437   2.325 -0.5399  0.4605 -0.3253
 3691TIP3    H111018   6.332   3.433   2.378 -0.5509 -0.1168 -0.3546
 3691TIP3    H211019   6.254   3.525   2.286 -0.0253  0.5246 -0.1602
 3692TIP3   OH211020   3.968   3.633   3.214  0.3700 -0.5087  0.4800
 3692TIP3    H111021   4.000   3.619   3.125  0.3381  0.7959  0.2543
 3692TIP3    H211022   3.899   3.567   3.226  1.9481 -2.2147  0.3698
 3693TIP3   OH211023   4.292   4.497   2.209  0.7498 -0.0032  0.3187
 3693TIP3    H111024   4.330   4.412   2.230  0.2553 -0.7938 -1.9163
 3693TIP3    H211025   4.198   4.481   2.205  0.6138  0.7627  0.3807
 3694TIP3   OH211026   3.934   5.406   1.513  0.5959  0.3186  0.8238
 3694TIP3    H111027   3.977   5.353   1.445  0.4555 -2.0159  2.4924
 3694TIP3    H211028   4.004   5.428   1.574  0.3942  0.9686  0.8266
 3695TIP3   OH211029   6.080   3.330   3.303  0.1826 -0.0595 -0.2121
 3695TIP3    H111030   6.145   3.389   3.341 -1.7573  1.4984  0.7513
 3695TIP3    H211031   6.072   3.259   3.366  0.1081  0.3369  0.2260
 3696TIP3   OH211032   3.105   4.092   2.367  0.0628  0.1032  0.1840
 3696TIP3    H111033   3.142   4.179   2.375  2.1168 -0.5030 -2.1657
 3696TIP3    H211034   3.098   4.077   2.273 -5.8978  0.0092  0.4334
 3697TIP3   OH211035   5.553   3.365   3.814  0.0110  0.7468 -0.6078
 3697TIP3    H111036   5.641   3.333   3.831 -0.0952  0.0116 -1.3822
 3697TIP3    H211037   5.509   3.291   3.772 -0.5185  1.6192 -1.6153
 3698TIP3   OH211038   0.192   2.254   6.901  0.2748 -0.1936  0.0184
 3698TIP3    H111039   0.265   2.306   6.934 -0.5412  0.8542  0.2317
 3698TIP3    H211040   0.232   2.179   6.858  1.5629  1.2725 -1.4232
 3699TIP3   OH211041   4.845   2.872   1.857  0.1209  0.5390  0.5010
 3699TIP3    H111042   4.763   2.828   1.836 -0.2300  1.0324  0.8480
 3699TIP3    H211043   4.836   2.961   1.822  0.5277  0.5809  0.4902
 3700TIP3   OH211044   5.409   4.210   2.030  0.2782 -0.2307 -0.0133
 3700TIP3    H111045   5.438   4.134   2.082  0.6148 -0.2209 -0.1850
 3700TIP3    H211046   5.453   4.200   1.946 -0.7253 -0.5544 -0.5081
 3701TIP3   OH211047   5.131   4.006   2.676  0.3291  0.1165 -0.7104
 3701TIP3    H111048   5.150   3.942   2.745  1.2814  1.8254  0.6357
 3701TIP3    H211049   5.120   4.089   2.722 -2.3794  0.6936 -2.2767
 3702TIP3   OH211050   4.669   3.124   4.551 -0.1019 -0.0627  0.4327
 3702TIP3    H111051   4.671   3.220   4.555 -0.4911 -0.0141 -0.3681
 3702TIP3    H211052   4.604   3.105   4.483  2.7419 -0.8368 -2.1942
 3703TIP3   OH211053   3.552   1.892   1.942 -0.2655  0.5584 -0.8524
 3703TIP3    H111054   3.463   1.889   1.978 -1.1755  0.6316 -3.0545
 3703TIP3    H211055   3.592   1.810   1.971 -0.6428  1.0205  1.0937
 3704TIP3   OH211056   5.644   3.957   3.773 -0.0996 -0.0938  0.2346
 3704TIP3    H111057   5.621   3.907   3.695 -0.5820 -0.5845  0.6928
 3704TIP3    H211058   5.580   4.028   3.775  0.4601  0.4470 -0.3005
 3705TIP3   OH211059   5.557   6.806   0.961 -0.1125 -0.4714 -1.0094
 3705TIP3    H111060   5.587   6.885   1.006 -0.0696 -1.1538  0.1911
 3705TIP3    H211061   5.637   6.757   0.942 -0.3556 -2.2077  2.0328
 3706TIP3   OH211062   4.456   2.961   2.543  0.3506  0.3188 -0.2377
 3706TIP3    H111063   4.444   2.938   2.451  1.4914 -3.2237  0.4222
 3706TIP3    H211064   4.550   2.976   2.552  0.3957 -0.3994  0.5600
 3707TIP3   OH211065   4.565   5.347   2.322  0.2653 -0.2675  0.3341
 3707TIP3    H111066   4.630   5.292   2.279  0.4358  0.7924 -0.8064
 3707TIP3    H211067   4.581   5.334   2.416  0.1305 -2.3173  0.0763
 3708TIP3   OH211068   8.061   7.181   1.466  0.2221 -0.6662 -0.2604
 3708TIP3    H111069   8.093   7.262   1.425 -0.9884  0.1289  0.3437
 3708TIP3    H211070   7.967   7.180   1.448  0.1825 -1.8031 -0.0200
 3709TIP3   OH211071   2.422   1.494   2.569 -0.9820 -0.1573  0.3519
 3709TIP3    H111072   2.393   1.503   2.660 -2.1437  1.8184 -0.1822
 3709TIP3    H211073   2.344   1.468   2.521 -0.0660 -2.5974  0.0946
 3710TIP3   OH211074   3.944   2.909   3.021  0.1222 -0.2514 -0.7090
 3710TIP3    H111075   3.998   2.908   2.942 -0.1252 -1.7749 -0.8744
 3710TIP3    H211076   3.928   2.816   3.040  2.0587 -0.0036  2.3958
 3711TIP3   OH211077   3.067   4.475   4.558 -0.3967  0.3563  0.4169
 3711TIP3    H111078   3.089   4.392   4.601 -1.8013  0.7783  2.0172
 3711TIP3    H211079   2.975   4.490   4.581  0.0445  2.7106  0.7571
 3712TIP3   OH211080   4.488   3.946   2.862  0.2814 -0.2877  0.5705
 3712TIP3    H111081   4.468   4.019   2.804  1.1540 -0.6675 -0.2109
 3712TIP3    H211082   4.556   3.979   2.920 -1.4878  0.5138  2.2512
 3713TIP3   OH211083   3.774   3.661   2.150 -0.1574 -0.1674 -0.8743
 3713TIP3    H111084   3.739   3.708   2.226 -3.2764 -1.8787 -1.1720
 3713TIP3    H211085   3.743   3.711   2.075  1.8047  0.7602 -1.1161
 3714TIP3   OH211086   6.562   5.732   4.732 -0.7032 -0.2019 -0.1663
 3714TIP3    H111087   6.511   5.657   4.701 -2.5576  1.1296 -0.4693
 3714TIP3    H211088   6.554   5.796   4.661  1.2446  0.1252 -0.1138
 3715TIP3   OH211089   5.603   4.123   0.805 -0.2083  0.1064  0.5277
 3715TIP3    H111090   5.598   4.048   0.745 -0.2102  2.0936 -2.0420
 3715TIP3    H211091   5.650   4.090   0.881  0.3673 -2.3290 -0.8303
 3716TIP3   OH211092   3.654   3.096   5.683 -0.3862  0.0501 -0.4159
 3716TIP3    H111093   3.649   3.113   5.777 -0.6074 -0.1685 -0.3872
 3716TIP3    H211094   3.638   3.181   5.643  2.0976  0.6295 -0.2271
 3717TIP3   OH211095   4.142   5.049   2.139  0.4430 -0.8318  0.3745
 3717TIP3    H111096   4.159   5.014   2.227 -0.1646 -1.2548  0.3284
 3717TIP3    H211097   4.109   5.137   2.154  0.1163 -0.9886  0.5820
 3718TIP3   OH211098   4.524   5.230   1.808 -0.4917  0.4930 -0.1637
 3718TIP3    H111099   4.437   5.198   1.785 -1.0872  1.9366  0.0133
 3718TIP3    H211100   4.584   5.163   1.775 -1.6435 -0.3410 -0.6008
 3719TIP3   OH211101   5.913   2.947   2.683  0.5683  0.0125  0.7884
 3719TIP3    H111102   5.827   2.918   2.653 -0.0325  0.4553  2.0584
 3719TIP3    H211103   5.950   2.994   2.608 -0.7881  0.8452  0.6292
 3720TIP3   OH211104   4.632   3.327   3.147  0.6183 -0.0492 -0.1665
 3720TIP3    H111105   4.540   3.332   3.118  0.0953  1.0262  1.5986
 3720TIP3    H211106   4.660   3.239   3.122 -0.5449 -0.0121 -1.7194
 3721TIP3   OH211107   4.754   2.479   3.921  0.3889  0.1049 -0.1678
 3721TIP3    H111108   4.699   2.412   3.963 -1.3991  1.5397 -0.1521
 3721TIP3    H211109   4.734   2.470   3.827 -1.4707  1.9759  0.0163
 3722TIP3   OH211110   4.136   5.395   2.951  0.1206 -0.3954  0.3043
 3722TIP3    H111111   4.070   5.329   2.971 -0.1123 -0.0731  0.6125
 3722TIP3    H211112   4.085   5.474   2.932  0.2560 -0.9436 -2.6866
 3723TIP3   OH211113   5.101   2.619   1.784 -0.2152 -0.3543 -0.0022
 3723TIP3    H111114   5.013   2.612   1.822 -0.5082 -0.6264 -0.7279
 3723TIP3    H211115   5.093   2.581   1.697  0.5775 -0.1906 -0.1511
 3724TIP3   OH211116   4.884   2.175   2.978  0.3760 -0.3714 -0.2848
 3724TIP3    H111117   4.896   2.081   2.974  0.4644 -0.3699 -0.0063
 3724TIP3    H211118   4.969   2.210   3.005 -0.5329 -0.4496  2.8921
 3725TIP3   OH211119   5.028   2.882   3.308 -0.0823 -0.2967  0.3557
 3725TIP3    H111120   5.041   2.822   3.380 -1.1971 -0.2071  0.6495
 3725TIP3    H211121   4.962   2.839   3.253  0.4639 -0.1819 -0.3895
 3726TIP3   OH211122   5.165   1.962   0.834 -0.1038  0.2096  0.5702
 3726TIP3    H111123   5.111   1.886   0.855 -0.4920 -0.3514 -2.3069
 3726TIP3    H211124   5.186   1.952   0.741  3.2804  1.4669  1.1195
 3727TIP3   OH211125   3.085   4.626   1.306 -0.0498 -0.2910  0.1608
 3727TIP3    H111126   3.151   4.671   1.252 -1.0419  0.2587 -0.6184
 3727TIP3    H211127   3.042   4.566   1.246 -0.8179 -0.0465  0.4564
 3728TIP3   OH211128   4.838   2.463   1.082 -0.1695 -0.0533 -0.5767
 3728TIP3    H111129   4.794   2.388   1.122 -0.6221  0.3121 -0.3900
 3728TIP3    H211130   4.767   2.515   1.043  0.1436  0.2691 -0.7190
 3729TIP3   OH211131   5.089   2.768   2.606 -0.4604 -0.0650  0.3817
 3729TIP3    H111132   5.056   2.683   2.636  0.0415 -0.3568  0.1100
 3729TIP3    H211133   5.094   2.760   2.511  1.0606 -0.2752  0.4660
 3730TIP3   OH211134   4.993   3.920   1.724 -0.3228  0.0298  0.4640
 3730TIP3    H111135   5.019   3.829   1.738  1.4981  0.0197 -2.5933
 3730TIP3    H211136   5.050   3.971   1.782  0.3605 -0.6197  0.3642
 3731TIP3   OH211137   5.109   3.203   4.818  0.4389  0.1484  0.3105
 3731TIP3    H111138   5.029   3.254   4.828  0.4176  0.2423 -0.3188
 3731TIP3    H211139   5.108   3.174   4.726  1.6013  0.9801  0.0163
 3732TIP3   OH211140   1.395   1.332   4.115 -0.0285  0.3928  0.2629
 3732TIP3    H111141   1.434   1.255   4.074  0.2755 -0.0053  1.2872
 3732TIP3    H211142   1.317   1.298   4.160 -0.2486  0.7883  0.1829
 3733TIP3   OH211143   6.191   4.456   2.474  0.1760 -0.9691 -0.2274
 3733TIP3    H111144   6.220   4.432   2.562  0.5677 -0.8645 -0.3271
 3733TIP3    H211145   6.117   4.515   2.488  1.3586  0.4737  0.0515
 3734TIP3   OH211146   4.897   3.393   2.497 -0.4779  0.1452 -0.0315
 3734TIP3    H111147   4.881   3.348   2.414 -0.6935 -0.5756  0.3991
 3734TIP3    H211148   4.850   3.476   2.488  0.0104  0.3376 -0.8691
 3735TIP3   OH211149   3.464   2.186   3.840 -0.9427  0.4724  0.3707
 3735TIP3    H111150   3.417   2.104   3.823  0.1651 -0.3531  1.2274
 3735TIP3    H211151   3.398   2.254   3.826 -1.3468 -0.4073 -2.4901
 3736TIP3   OH211152   4.195   4.010   3.923  0.3676 -0.1880 -0.5569
 3736TIP3    H111153   4.164   3.936   3.976 -0.7247  0.5818 -0.1139
 3736TIP3    H211154   4.117   4.039   3.875  1.1216 -0.2290 -1.8288
 3737TIP3   OH211155   3.255   2.620   3.637 -0.6133 -0.3426 -0.0773
 3737TIP3    H111156   3.236   2.694   3.695 -2.3945  0.6000 -1.7973
 3737TIP3    H211157   3.347   2.631   3.614 -1.2166  2.1694 -1.4246
 3738TIP3   OH211158   3.842   3.483   3.781  0.0348 -0.5470 -0.2855
 3738TIP3    H111159   3.772   3.547   3.791 -0.5815 -1.1930 -0.4214
 3738TIP3    H211160   3.922   3.532   3.800 -0.4607  0.1623  0.0032
 3739TIP3   OH211161   3.653   3.343   3.453 -0.3987 -0.0686  0.1257
 3739TIP3    H111162   3.689   3.281   3.516 -1.1213 -0.5498  0.0651
 3739TIP3    H211163   3.581   3.296   3.411 -0.7333  0.6943 -0.1627
 3740TIP3   OH211164   4.109   5.768   0.671  0.2200 -0.1884  0.4136
 3740TIP3    H111165   4.134   5.691   0.722 -0.9496 -0.3933  0.7015
 3740TIP3    H211166   4.161   5.840   0.708  0.8011 -0.7079  0.6056
 3741TIP3   OH211167   3.506   4.386   2.448  0.3716 -0.0563  0.0948
 3741TIP3    H111168   3.429   4.332   2.465 -0.4948  1.1265  0.0747
 3741TIP3    H211169   3.577   4.324   2.433 -0.6583 -1.1763 -0.2435
 3742TIP3   OH211170   2.255   4.971   2.916  0.5142 -0.8579  0.1973
 3742TIP3    H111171   2.302   4.951   2.835 -2.1431 -1.6925 -1.2074
 3742TIP3    H211172   2.269   5.065   2.928  0.8730 -0.7030 -1.2739
 3743TIP3   OH211173   3.201   5.827   1.713 -0.3083  0.1465 -0.2734
 3743TIP3    H111174   3.255   5.881   1.771 -3.4999  1.1650  1.9070
 3743TIP3    H211175   3.169   5.887   1.646  0.1525 -0.1579 -0.7730
 3744TIP3   OH211176   5.178   5.038   3.475 -0.4653  0.1092  0.0791
 3744TIP3    H111177   5.241   5.104   3.445  1.1243 -1.1314  0.6478
 3744TIP3    H211178   5.166   4.980   3.400 -0.5771  0.0639  0.1316
 3745TIP3   OH211179   4.760   5.735   1.714 -0.3653 -0.2615 -0.1591
 3745TIP3    H111180   4.761   5.812   1.657 -1.4002 -0.1974 -0.1041
 3745TIP3    H211181   4.803   5.667   1.663  0.7245  0.4007 -0.1391
 3746TIP3   OH211182   3.429   5.535   1.514  0.4574 -0.4331 -0.1089
 3746TIP3    H111183   3.447   5.597   1.443 -0.2714 -0.6228 -0.4651
 3746TIP3    H211184   3.494   5.466   1.502  0.4283 -0.3943 -0.5123
 3747TIP3   OH211185   6.425   5.584   1.456  0.6564 -0.2434 -0.3150
 3747TIP3    H111186   6.398   5.540   1.536  0.4100  0.6871  0.1299
 3747TIP3    H211187   6.488   5.525   1.415  1.1495 -0.5125  0.8175
 3748TIP3   OH211188   5.767   4.823   1.835  0.1342 -0.1830 -0.3856
 3748TIP3    H111189   5.826   4.818   1.759 -0.2581  2.0745 -0.8736
 3748TIP3    H211190   5.824   4.844   1.908  0.2677 -0.5445 -0.3838
 3749TIP3   OH211191   4.702   4.759   1.426 -0.2005 -0.7639 -0.0265
 3749TIP3    H111192   4.682   4.833   1.369 -0.2848 -0.9560 -0.2507
 3749TIP3    H211193   4.640   4.766   1.499 -0.9034 -1.1913 -0.5686
 3750TIP3   OH211194   3.925   6.349   5.517  0.1203  0.2782 -0.0928
 3750TIP3    H111195   3.874   6.413   5.566  0.2006  1.2653 -1.2482
 3750TIP3    H211196   3.941   6.277   5.578 -3.2433 -0.3794  0.0879
 3751TIP3   OH211197   1.434   3.956   3.126  0.1537  0.7241  0.0634
 3751TIP3    H111198   1.490   3.997   3.192 -1.6846  2.0643  0.8355
 3751TIP3    H211199   1.448   3.862   3.138  1.3231  1.0045  1.0241
 3752TIP3   OH211200   6.927   2.636   3.712 -0.1202  0.0441  0.1074
 3752TIP3    H111201   6.894   2.610   3.625 -0.1671 -0.3058  0.2283
 3752TIP3    H211202   6.884   2.720   3.730 -1.9773 -1.0301  0.8257
 3753TIP3   OH211203   3.120   4.872   2.133 -0.2377  0.4208 -0.6519
 3753TIP3    H111204   3.097   4.882   2.225  0.1494  2.9326 -0.8030
 3753TIP3    H211205   3.043   4.905   2.086 -0.6153 -1.2600 -1.2747
 3754TIP3   OH211206   0.453   5.112   3.971 -0.2735  0.3268  0.2386
 3754TIP3    H111207   0.370   5.145   3.938  0.2149  0.5025 -0.8411
 3754TIP3    H211208   0.519   5.148   3.911  0.6885  1.0170  1.6494
 3755TIP3   OH211209   0.951   5.727   1.528 -0.3937 -0.1302 -0.2789
 3755TIP3    H111210   0.869   5.679   1.525 -0.5561  0.1911 -1.0698
 3755TIP3    H211211   0.996   5.693   1.606 -1.0655 -0.6343 -0.1076
 3756TIP3   OH211212   6.388   2.805   4.454  0.2073  0.1242  0.1348
 3756TIP3    H111213   6.331   2.838   4.385  0.9998  1.2761  0.0093
 3756TIP3    H211214   6.365   2.858   4.531 -0.5924 -1.0745  0.7350
 3757TIP3   OH211215   6.002   2.481   3.532 -0.0922  0.1923  0.9714
 3757TIP3    H111216   5.921   2.456   3.488 -0.5014  2.0487  0.6680
 3757TIP3    H211217   6.069   2.473   3.465 -0.2117 -0.1371  0.8894
 3758TIP3   OH211218   4.402   1.804   1.732  0.0624 -0.1916  0.3701
 3758TIP3    H111219   4.356   1.806   1.648  1.0032 -2.7765 -0.2591
 3758TIP3    H211220   4.445   1.889   1.738 -0.2194  0.1238 -1.6759
 3759TIP3   OH211221   6.479   3.850   3.291  0.4300  0.1203  0.2556
 3759TIP3    H111222   6.540   3.812   3.228  0.3561  0.3085  0.0700
 3759TIP3    H211223   6.412   3.782   3.303  1.1059 -0.4095  1.0746
 3760TIP3   OH211224   6.889   4.469   2.744  0.1178 -0.2940 -0.2361
 3760TIP3    H111225   6.918   4.535   2.680 -2.4605  0.4969 -0.6214
 3760TIP3    H211226   6.970   4.442   2.788  1.3006  2.7816 -0.3884
 3761TIP3   OH211227   1.401   3.796   3.406  0.5379  0.2366 -0.0857
 3761TIP3    H111228   1.397   3.775   3.312 -1.5954  1.2753 -0.2491
 3761TIP3    H211229   1.310   3.793   3.435  0.9393  2.2339  1.4580
 3762TIP3   OH211230   6.262   3.278   2.026 -0.3030 -0.0719  0.4525
 3762TIP3    H111231   6.218   3.200   2.059 -1.0933 -0.6796 -1.9325
 3762TIP3    H211232   6.319   3.305   2.098 -0.4830 -2.4736  1.5632
 3763TIP3   OH211233   6.357   0.779   1.545 -0.5524 -0.0079 -0.0292
 3763TIP3    H111234   6.306   0.720   1.489  0.2045  0.1683 -0.9068
 3763TIP3    H211235   6.329   0.756   1.634 -0.9845 -1.0179 -0.4093
 3764TIP3   OH211236   3.587   2.011   4.036 -0.0664 -0.5047  0.7464
 3764TIP3    H111237   3.657   2.028   3.973 -2.6315 -0.3946 -2.1872
 3764TIP3    H211238   3.583   1.916   4.042 -0.5867 -0.5457 -0.1755
 3765TIP3   OH211239   4.354   4.777   2.560 -0.8548 -0.2913  0.0396
 3765TIP3    H111240   4.365   4.863   2.602 -4.3669  0.7566 -1.0219
 3765TIP3    H211241   4.370   4.794   2.467  4.3677 -2.0981  0.4342
 3766TIP3   OH211242   5.422   1.588   2.131  0.0462  0.3266  0.3583
 3766TIP3    H111243   5.448   1.513   2.077 -0.2230  0.1243  0.5053
 3766TIP3    H211244   5.504   1.630   2.155  0.2807 -0.5693  1.1980
 3767TIP3   OH211245   2.695   3.068   2.616  0.4422 -0.5653  0.6942
 3767TIP3    H111246   2.615   3.080   2.566  0.1992 -1.3944  0.8878
 3767TIP3    H211247   2.765   3.088   2.554  0.1042 -0.0986  0.4529
 3768TIP3   OH211248   1.878   4.302   2.454 -0.6224 -0.0620  0.0968
 3768TIP3    H111249   1.939   4.370   2.480 -1.5017  0.5104  0.7213
 3768TIP3    H211250   1.812   4.301   2.524 -1.7988 -0.0605 -0.9833
 3769TIP3   OH211251   3.205   3.976   1.295 -0.2446  0.1153 -0.1481
 3769TIP3    H111252   3.265   3.923   1.243  0.2815  0.2534  0.3093
 3769TIP3    H211253   3.252   4.059   1.309  0.1775 -0.3880  1.6444
 3770TIP3   OH211254   4.904   2.708   3.974 -0.6636 -0.2828  0.0430
 3770TIP3    H111255   4.826   2.669   3.935 -0.5387  1.2211 -1.7632
 3770TIP3    H211256   4.974   2.645   3.955 -0.9456 -0.4010 -0.6036
 3771TIP3   OH211257   3.709   4.210   2.373  0.0272  0.6209  0.0410
 3771TIP3    H111258   3.725   4.129   2.421  0.3986  0.7219  0.0879
 3771TIP3    H211259   3.796   4.240   2.346 -0.0956  1.0863  0.1562
 3772TIP3   OH211260   1.559   2.818   4.465 -0.4708 -0.0473 -0.0201
 3772TIP3    H111261   1.586   2.905   4.433 -0.9645 -0.1965 -0.8690
 3772TIP3    H211262   1.468   2.809   4.437 -0.5270 -0.6972  0.3622
 3773TIP3   OH211263   4.441   2.256   2.274  0.1236  0.5333 -0.6188
 3773TIP3    H111264   4.363   2.282   2.322  1.2251  1.5647  0.6555
 3773TIP3    H211265   4.514   2.288   2.328  1.4326 -0.9756 -1.4506
 3774TIP3   OH211266   5.128   5.185   3.696 -0.3783  0.1072  0.0463
 3774TIP3    H111267   5.036   5.164   3.715 -0.5351  1.3183  0.7312
 3774TIP3    H211268   5.150   5.131   3.621 -1.1797 -1.3664  0.8474
 3775TIP3   OH211269   4.987   3.575   5.148  0.0043  0.1245 -0.0184
 3775TIP3    H111270   5.061   3.535   5.194  0.7336  0.1534 -1.1399
 3775TIP3    H211271   4.949   3.636   5.212  0.8097 -0.0520  0.6457
 3776TIP3   OH211272   4.083   4.653   2.568  0.4306 -0.0182 -0.3400
 3776TIP3    H111273   4.038   4.727   2.608 -0.6433 -0.1420 -1.3132
 3776TIP3    H211274   4.174   4.682   2.560  0.0783  1.0771 -0.4320
 3777TIP3   OH211275   2.796   6.407   2.216  0.8784  0.4651  0.7436
 3777TIP3    H111276   2.845   6.472   2.165  0.2098  1.0848  0.8818
 3777TIP3    H211277   2.844   6.402   2.299  0.8577  0.8888  0.7867
 3778TIP3   OH211278   3.537   4.948   4.332  0.6054  0.0581  0.4479
 3778TIP3    H111279   3.477   5.006   4.379  0.6996  0.0623  0.5641
 3778TIP3    H211280   3.604   5.006   4.296 -0.0582  0.1787 -0.6092
 3779TIP3   OH211281   6.603   3.509   3.631 -0.2309  0.0818  0.1149
 3779TIP3    H111282   6.568   3.468   3.552 -1.8155  1.1703  0.2365
 3779TIP3    H211283   6.540   3.489   3.700  1.3619 -1.2257  1.2263
 3780TIP3   OH211284   3.973   5.099   1.631 -0.7447  0.3272  0.0602
 3780TIP3    H111285   3.960   5.078   1.724 -1.8154 -0.1257 -0.1761
 3780TIP3    H211286   3.994   5.192   1.630  3.1307 -0.4551  1.0644
 3781TIP3   OH211287   3.027   3.682   1.712 -0.4843  0.4091  0.1619
 3781TIP3    H111288   3.024   3.751   1.778  0.1173  0.3978  0.2096
 3781TIP3    H211289   3.035   3.601   1.762  0.1214  0.4122  0.0732
 3782TIP3   OH211290   4.089   4.888   3.700  0.0052  0.1096  0.1998
 3782TIP3    H111291   4.127   4.806   3.671 -0.9655 -0.4115  0.3798
 3782TIP3    H211292   4.011   4.899   3.646 -0.0868  0.7134  0.4485
 3783TIP3   OH211293   6.082   3.487   3.717  0.6449  0.4055 -0.2348
 3783TIP3    H111294   6.036   3.473   3.800  1.4730  0.0993  0.1761
 3783TIP3    H211295   6.016   3.467   3.650  0.6580 -1.6842  0.3402
 3784TIP3   OH211296   4.097   4.148   3.060 -0.5408 -0.9400 -0.2959
 3784TIP3    H111297   4.115   4.055   3.068 -2.7259 -1.4811 -1.3959
 3784TIP3    H211298   4.003   4.154   3.045 -0.5638  1.4894  0.5100
 3785TIP3   OH211299   5.154   2.913   2.123  0.1449 -0.2898 -0.0005
 3785TIP3    H111300   5.230   2.962   2.153  1.0567 -0.9976 -1.0791
 3785TIP3    H211301   5.120   2.964   2.050 -1.4022  0.8600  1.4946
 3786TIP3   OH211302   4.816   3.337   3.478  0.5440  0.2134 -0.8070
 3786TIP3    H111303   4.758   3.412   3.466 -2.0237 -1.4586  0.5568
 3786TIP3    H211304   4.877   3.365   3.546  0.2920  1.4601 -1.0875
 3787TIP3   OH211305   3.437   0.889   2.539 -0.2979 -0.3074 -0.3638
 3787TIP3    H111306   3.496   0.873   2.612  2.1363  0.4572 -2.1172
 3787TIP3    H211307   3.457   0.820   2.475 -2.0156 -0.6500 -0.5582
 3788TIP3   OH211308   2.376   0.098   2.033  0.0748 -0.3854 -0.0409
 3788TIP3    H111309   2.304   0.037   2.019  0.9780 -1.4914 -0.0360
 3788TIP3    H211310   2.450   0.042   2.057  1.2776  0.5934 -1.3717
 3789TIP3   OH211311   3.958   2.868   1.850  0.0304  0.2239 -0.0519
 3789TIP3    H111312   4.053   2.871   1.836  0.1360  0.0467  0.5942
 3789TIP3    H211313   3.937   2.774   1.849 -0.2325  0.2870 -0.7795
 3790TIP3   OH211314   4.418   2.571   1.725  0.0049 -0.2147 -0.0279
 3790TIP3    H111315   4.427   2.485   1.684 -0.5631 -0.0516 -0.5076
 3790TIP3    H211316   4.340   2.563   1.781  0.7028 -0.3988  0.9233
 3791TIP3   OH211317   7.840   5.354   6.578 -0.1687 -0.8818 -0.1494
 3791TIP3    H111318   7.929   5.322   6.565  0.5532  1.1655 -0.5662
 3791TIP3    H211319   7.841   5.394   6.665 -0.5412 -0.4767 -0.3258
 3792TIP3   OH211320   1.567   2.342   0.892 -0.6905 -0.9750  0.1159
 3792TIP3    H111321   1.473   2.331   0.881 -0.9934  1.6347 -0.2812
 3792TIP3    H211322   1.593   2.399   0.820  0.7988  0.0554  1.4361
 3793TIP3   OH211323   1.497   2.459   3.054 -0.0362  0.6418  0.1864
 3793TIP3    H111324   1.479   2.464   3.147  1.7641  1.5290  0.5243
 3793TIP3    H211325   1.445   2.529   3.015  0.6574  1.5059  0.7907
 3794TIP3   OH211326   4.583   3.891   2.587 -0.0149  0.3175 -0.0804
 3794TIP3    H111327   4.584   3.888   2.683  2.6701 -2.7722 -0.1292
 3794TIP3    H211328   4.659   3.946   2.565 -0.0676  0.2332 -0.4699
 3795TIP3   OH211329   4.183   3.252   1.661 -0.5679  0.2479 -0.2376
 3795TIP3    H111330   4.130   3.179   1.629  0.6855 -1.1803  0.8948
 3795TIP3    H211331   4.157   3.262   1.753  1.0049 -0.3612  0.2809
 3796TIP3   OH211332   3.789   4.122   1.517  0.1813  0.1638  0.4325
 3796TIP3    H111333   3.839   4.202   1.536 -0.1658  0.3159  0.6937
 3796TIP3    H211334   3.809   4.063   1.589 -0.9511  0.6567  1.1489
 3797TIP3   OH211335   2.494   1.945   5.641 -0.1773 -0.2279  0.5725
 3797TIP3    H111336   2.504   2.010   5.572  2.0399  0.5479  1.5873
 3797TIP3    H211337   2.400   1.925   5.642 -0.2070 -0.5161 -2.8463
 3798TIP3   OH211338   4.914   2.939   4.188  0.2219  0.8122  0.3876
 3798TIP3    H111339   4.942   2.900   4.106  0.8814  1.4565  0.3050
 3798TIP3    H211340   4.988   2.992   4.216 -1.0035  2.7374  0.0348
 3799TIP3   OH211341   4.383   3.586   2.636 -0.0961  0.2308  0.4011
 3799TIP3    H111342   4.472   3.580   2.670 -0.5805 -1.2871  1.4717
 3799TIP3    H211343   4.367   3.502   2.594 -1.4575 -0.0125  1.3689
 3800TIP3   OH211344   5.434   2.845   2.372 -0.4085  0.6364  0.5160
 3800TIP3    H111345   5.418   2.938   2.357 -2.3113  0.2486 -0.0606
 3800TIP3    H211346   5.407   2.830   2.462 -0.7170  0.5167  0.4040
 3801TIP3   OH211347   4.191   3.925   2.029  0.1325  0.3074  0.4472
 3801TIP3    H111348   4.235   3.968   2.102  0.7700 -0.1131  0.3164
 3801TIP3    H211349   4.123   3.872   2.070 -1.5147  2.4206  0.5261
 3802TIP3   OH211350   5.782   5.493   0.518  0.0825  0.0899  0.9124
 3802TIP3    H111351   5.723   5.566   0.538  0.6280  0.5419  0.8756
 3802TIP3    H211352   5.860   5.535   0.482 -0.0908 -0.5820 -0.2731
 3803TIP3   OH211353   6.168   2.424   0.739  0.4182 -0.3638 -0.1927
 3803TIP3    H111354   6.171   2.512   0.699  1.5056 -0.1660  0.3073
 3803TIP3    H211355   6.240   2.424   0.801 -1.0265 -0.7989  1.5416
 3804TIP3   OH211356   4.207   4.291   2.848  0.1643  0.2816 -0.7516
 3804TIP3    H111357   4.204   4.282   2.944  0.5085  2.1285 -0.5443
 3804TIP3    H211358   4.141   4.229   2.816 -1.6298  1.3136  0.8053
 3805TIP3   OH211359   3.379   3.107   2.383  0.6972 -0.6019  0.5016
 3805TIP3    H111360   3.409   3.089   2.473 -1.0101 -2.7529  0.6759
 3805TIP3    H211361   3.410   3.196   2.365  0.0226  0.3369  3.6770
 3806TIP3   OH211362   4.216   1.830   3.532 -0.0506  0.3923  0.1181
 3806TIP3    H111363   4.133   1.831   3.580 -1.5147 -0.2332 -2.2913
 3806TIP3    H211364   4.233   1.922   3.513  0.4450  0.6268  1.6495
 3807TIP3   OH211365   4.192   3.904   1.007 -0.0449 -0.1324  0.0559
 3807TIP3    H111366   4.269   3.916   1.061 -0.4347  0.4097  0.4992
 3807TIP3    H211367   4.222   3.922   0.918  0.4749 -0.5159  0.1520
 3808TIP3   OH211368   2.235   5.386   1.421 -0.7864 -0.0283 -0.0594
 3808TIP3    H111369   2.187   5.418   1.345 -0.7106 -0.3670 -0.2517
 3808TIP3    H211370   2.316   5.437   1.422 -0.7037 -0.1533 -0.3158
 3809TIP3   OH211371   8.222   5.399   2.299 -0.0453 -0.2477  0.4505
 3809TIP3    H111372   8.187   5.319   2.339  0.1567 -0.8668 -0.6050
 3809TIP3    H211373   8.316   5.383   2.290  0.3589  0.9669  2.2208
 3810TIP3   OH211374   3.818   3.338   2.778  0.0762 -0.1826 -0.2518
 3810TIP3    H111375   3.805   3.415   2.722  0.6680  1.3533  1.6481
 3810TIP3    H211376   3.894   3.294   2.740  0.5529  0.9161 -0.6124
 3811TIP3   OH211377   6.269   4.220   2.358 -0.2198 -0.6356 -0.0953
 3811TIP3    H111378   6.251   4.311   2.381 -1.0350 -0.6174 -0.7709
 3811TIP3    H211379   6.350   4.223   2.307 -0.6942 -0.1755 -0.8440
 3812TIP3   OH211380   6.063   3.962   1.272 -0.1797  0.4013  0.1606
 3812TIP3    H111381   6.020   3.882   1.241 -2.4330  0.9812  1.7123
 3812TIP3    H211382   6.155   3.951   1.246 -0.9802 -1.4611 -2.0118
 3813TIP3   OH211383   5.252   3.354   4.302 -0.1492  0.4479  0.5156
 3813TIP3    H111384   5.344   3.331   4.294 -0.1710  0.0930  1.2717
 3813TIP3    H211385   5.251   3.439   4.345 -0.1763  0.4793  0.4533
 3814TIP3   OH211386   6.355   3.819   2.669  0.4029  0.4348 -0.0047
 3814TIP3    H111387   6.377   3.912   2.663 -0.5693  0.6485 -0.2846
 3814TIP3    H211388   6.437   3.774   2.648  0.1323  1.2198 -2.9769
 3815TIP3   OH211389   5.384   3.734   2.925 -0.4656  0.1504 -0.0448
 3815TIP3    H111390   5.319   3.666   2.942  1.3526 -1.6659 -0.1858
 3815TIP3    H211391   5.411   3.719   2.834  0.3619  0.7339  0.0976
 3816TIP3   OH211392   7.641   2.235   0.725  0.8473 -0.2016 -0.1142
 3816TIP3    H111393   7.596   2.280   0.654  1.0588 -0.0142 -0.1281
 3816TIP3    H211394   7.601   2.148   0.726  0.1743  0.1056  0.1615
 3817TIP3   OH211395   7.300   4.328   1.471  0.4163 -0.1032 -0.4306
 3817TIP3    H111396   7.228   4.389   1.487  0.0881 -0.9459  1.5267
 3817TIP3    H211397   7.368   4.381   1.429 -0.4079  1.2678 -0.0586
 3818TIP3   OH211398   5.132   2.946   1.725  0.1866  0.5935 -0.3323
 3818TIP3    H111399   5.094   2.938   1.638  1.0936 -0.2264 -0.6648
 3818TIP3    H211400   5.088   2.879   1.777  0.1530  0.6101 -0.3395
 3819TIP3   OH211401   5.143   4.303   0.927 -0.1665  0.1237  0.1780
 3819TIP3    H111402   5.237   4.323   0.932 -0.4670  1.7316 -0.3611
 3819TIP3    H211403   5.101   4.389   0.923 -1.6810 -0.5912  0.6027
 3820TIP3   OH211404   5.218   6.794   2.093  0.2314  0.4409  0.2833
 3820TIP3    H111405   5.173   6.796   2.177  1.9948 -2.6488  1.3550
 3820TIP3    H211406   5.268   6.876   2.091 -0.4612  0.9224  1.8587
 3821TIP3   OH211407   6.829   2.442   1.554  0.0192  0.3601 -0.2450
 3821TIP3    H111408   6.876   2.485   1.626  0.2396  1.9237 -1.2890
 3821TIP3    H211409   6.740   2.429   1.588  0.7486 -1.1599  1.1715
 3822TIP3   OH211410   5.267   2.651   2.244  0.0018 -0.1030 -0.3438
 3822TIP3    H111411   5.211   2.692   2.177 -0.0856 -0.1129 -0.2764
 3822TIP3    H211412   5.309   2.725   2.288  0.6978 -0.1217 -0.9570
 3823TIP3   OH211413   5.779   2.989   2.250  0.4646  0.1477  0.3651
 3823TIP3    H111414   5.692   3.029   2.239  0.4660 -0.0162 -0.2368
 3823TIP3    H211415   5.817   3.036   2.324  0.2801  0.9472 -0.0376
 3824TIP3   OH211416   3.154   5.723   0.334  0.0327  0.3866 -0.4116
 3824TIP3    H111417   3.228   5.662   0.325 -0.3379  0.3054 -3.4070
 3824TIP3    H211418   3.094   5.699   0.263 -2.2756  1.3232  1.1413
 3825TIP3   OH211419   0.731   5.937   0.088  0.2198  0.5154 -0.0548
 3825TIP3    H111420   0.805   5.975   0.041 -0.4790  1.6370 -0.2665
 3825TIP3    H211421   0.723   5.848   0.054  0.7527  0.7734 -0.8551
 3826TIP3   OH211422   6.813   5.982   2.801  0.2950  0.5660  0.8987
 3826TIP3    H111423   6.902   6.015   2.810  1.1647 -1.2894 -0.6348
 3826TIP3    H211424   6.815   5.897   2.845 -0.5262  0.1734  0.1851
 3827TIP3   OH211425   6.661   2.746   3.188  0.3160 -0.2154 -0.3631
 3827TIP3    H111426   6.579   2.696   3.182  1.5819 -2.8332  2.6887
 3827TIP3    H211427   6.643   2.813   3.254 -0.5793  1.8423 -2.6279
 3828TIP3   OH211428   7.144   3.397   1.548 -0.1448 -0.3521 -0.5826
 3828TIP3    H111429   7.088   3.335   1.500 -0.3017  0.5780 -1.6180
 3828TIP3    H211430   7.117   3.483   1.516  0.6212  0.2114  0.2659
 3829TIP3   OH211431   5.651   3.996   1.063  0.2348 -0.2336  0.7451
 3829TIP3    H111432   5.716   3.948   1.011 -0.5440 -1.3151  0.7567
 3829TIP3    H211433   5.574   3.939   1.063 -0.3891  0.6084  1.5350
 3830TIP3   OH211434   6.022   6.944   0.988 -0.0465 -0.0779 -0.7416
 3830TIP3    H111435   6.052   6.857   0.961  0.6636  0.0532 -0.3833
 3830TIP3    H211436   6.102   6.996   0.994 -0.3890  0.3901 -0.1963
 3831TIP3   OH211437   4.474   3.887   1.967  0.4354  0.2380  0.4170
 3831TIP3    H111438   4.379   3.892   1.972  0.4123  1.5034 -0.9300
 3831TIP3    H211439   4.496   3.800   2.001 -1.2041 -0.1844  0.4262
 3832TIP3   OH211440   4.307   2.937   6.918  0.4312  0.1354  0.0503
 3832TIP3    H111441   4.316   2.847   6.950 -0.6328 -0.4373 -1.2523
 3832TIP3    H211442   4.395   2.974   6.928  0.3343 -0.2339  2.9529
 3833TIP3   OH211443   7.499   5.690   0.203  0.0376 -0.2067  0.2248
 3833TIP3    H111444   7.593   5.678   0.193 -0.1248 -2.2042  0.8292
 3833TIP3    H211445   7.462   5.661   0.120 -0.4135 -5.0136  1.9504
 3834TIP3   OH211446   6.845   4.254   2.012 -0.8045  0.3961  0.0190
 3834TIP3    H111447   6.857   4.209   2.095  0.0647  0.4685 -0.0671
 3834TIP3    H211448   6.754   4.284   2.014 -0.7804  0.4159  0.9479
 3835TIP3   OH211449   6.882   5.333   2.520  0.1396 -0.0207  0.0289
 3835TIP3    H111450   6.950   5.345   2.586  0.3048  1.8592 -0.4499
 3835TIP3    H211451   6.926   5.349   2.436  0.1683 -3.3310 -0.6685
 3836TIP3   OH211452   4.579   4.086   2.121 -0.0006 -0.0830  0.1822
 3836TIP3    H111453   4.661   4.045   2.146 -1.3364 -2.0874  1.3838
 3836TIP3    H211454   4.551   4.038   2.042 -1.0358 -0.8331  0.9827
 3837TIP3   OH211455   5.330   4.408   0.033  0.3128  0.5164  0.3643
 3837TIP3    H111456   5.259   4.467   0.009 -1.1609 -1.1988  0.4595
 3837TIP3    H211457   5.399   4.426  -0.031 -0.7853  1.1223 -0.6614
 3838TIP3   OH211458   4.399   4.187   1.236 -0.2208  0.0716 -0.3016
 3838TIP3    H111459   4.346   4.263   1.259 -0.8135 -1.1587  2.6642
 3838TIP3    H211460   4.478   4.196   1.291 -0.5726 -1.7458  0.5250
 3839TIP3   OH211461   7.140   4.414   2.866  0.3314  0.3066  0.1664
 3839TIP3    H111462   7.168   4.406   2.957  1.1960 -0.4849 -0.1480
 3839TIP3    H211463   7.208   4.467   2.824 -0.9007  2.0478  0.3200
 3840TIP3   OH211464   0.759   6.881   1.255 -0.4153 -0.6132  0.2442
 3840TIP3    H111465   0.798   6.831   1.327  0.3482  0.7308  0.7926
 3840TIP3    H211466   0.667   6.890   1.279 -0.0860  0.1595  1.2615
 3841TIP3   OH211467   5.693   2.550   2.887  0.1159  0.9485  0.1426
 3841TIP3    H111468   5.753   2.549   2.812  2.5705  0.3314  2.0624
 3841TIP3    H211469   5.727   2.620   2.943  0.1462 -0.6213  2.1109
 3842TIP3   OH211470   5.210   4.819   2.694  0.2368  0.7851 -0.1847
 3842TIP3    H111471   5.128   4.860   2.722 -0.8392 -0.8474 -0.9106
 3842TIP3    H211472   5.205   4.729   2.727  0.6738 -0.0247 -2.2707
 3843TIP3   OH211473   6.582   3.920   0.058  0.9691 -0.0496  0.3699
 3843TIP3    H111474   6.648   3.928   0.127  0.0888 -2.2063  1.5171
 3843TIP3    H211475   6.511   3.979   0.087  1.0421 -0.1650  0.7945
 3844TIP3   OH211476   5.880   2.600   2.245 -0.2856 -0.2927 -0.0993
 3844TIP3    H111477   5.839   2.551   2.174  0.9115 -0.5192 -0.6507
 3844TIP3    H211478   5.973   2.580   2.237  0.3586  2.6964 -0.8334
 3845TIP3   OH211479   4.085   0.263   6.747  0.1650 -0.2962  0.2611
 3845TIP3    H111480   4.026   0.202   6.792  0.4860  1.7343  3.6014
 3845TIP3    H211481   4.171   0.245   6.786  0.7209  0.6083 -0.5375
 3846TIP3   OH211482   5.353   3.228   0.995  0.0872  0.2351  0.0946
 3846TIP3    H111483   5.273   3.180   0.976  0.1450  0.1092  0.1682
 3846TIP3    H211484   5.338   3.267   1.081  0.7775 -1.2158  0.8911
 3847TIP3   OH211485   6.402   6.098   1.003 -0.1122  0.0149 -0.0237
 3847TIP3    H111486   6.325   6.117   1.057  0.9749  0.2420  1.4665
 3847TIP3    H211487   6.435   6.184   0.977 -1.1383 -0.1046 -1.8165
 3848TIP3   OH211488   5.124   5.791   3.747  0.2458  0.9567 -0.7378
 3848TIP3    H111489   5.057   5.739   3.792  0.3871  0.4824 -1.0806
 3848TIP3    H211490   5.206   5.749   3.769  0.4278  1.4700 -0.4192
 3849TIP3   OH211491   4.059   7.494   3.040  0.7198  0.1814  0.1464
 3849TIP3    H111492   4.131   7.432   3.043  0.4550 -0.1401 -0.1482
 3849TIP3    H211493   4.068   7.545   3.120 -0.9203 -2.3386  2.0296
 3850TIP3   OH211494   5.829   5.889   2.331  0.4877 -0.2925  0.0190
 3850TIP3    H111495   5.851   5.862   2.420 -2.0015  1.3216  1.2014
 3850TIP3    H211496   5.747   5.843   2.311  1.1827 -0.8822 -1.5764
 3851TIP3   OH211497   4.381   5.701   1.120  0.2538  0.5069  0.2000
 3851TIP3    H111498   4.371   5.792   1.091  1.7301  1.0072  1.2201
 3851TIP3    H211499   4.415   5.708   1.209  0.2298 -1.0548  0.3447
 3852TIP3   OH211500   5.724   3.459   1.277  0.1447  0.1593  0.0063
 3852TIP3    H111501   5.640   3.495   1.308 -0.2272 -0.0120 -0.8044
 3852TIP3    H211502   5.753   3.403   1.349 -1.3120 -1.2034 -0.4321
 3853TIP3   OH211503   1.899   1.906   5.535 -0.3449  0.3162  0.3584
 3853TIP3    H111504   1.935   1.981   5.583  4.2326 -1.3596 -0.2449
 3853TIP3    H211505   1.962   1.890   5.465 -2.0780 -3.1278 -0.5071
 3854TIP3   OH211506   7.007   5.014   0.289  0.5066  0.1310 -0.4132
 3854TIP3    H111507   7.065   4.942   0.267  1.0216  0.4520 -0.1248
 3854TIP3    H211508   6.921   4.987   0.257  0.2888 -1.4447  1.3820
 3855TIP3   OH211509   5.706   4.377   1.994 -0.1522  0.1194 -0.0783
 3855TIP3    H111510   5.662   4.328   1.925  1.4646 -1.5822  0.0524
 3855TIP3    H211511   5.756   4.445   1.948  2.0768 -1.9133 -0.7469
 3856TIP3   OH211512   7.656   3.325   1.777  0.6723  0.0572  0.3524
 3856TIP3    H111513   7.679   3.390   1.711  1.0351  1.3291  1.6944
 3856TIP3    H211514   7.739   3.301   1.818  0.3884 -0.2439  0.7608
 3857TIP3   OH211515   4.045   2.489   0.091  0.5118  0.2979 -0.8320
 3857TIP3    H111516   4.110   2.418   0.091 -0.3538 -0.4978 -1.1141
 3857TIP3    H211517   4.078   2.551   0.156  1.5150 -0.1371 -0.9093
 3858TIP3   OH211518   3.381   1.727   2.172  0.0375  0.0368  0.0117
 3858TIP3    H111519   3.338   1.802   2.213  1.5357  2.2113 -2.2395
 3858TIP3    H211520   3.468   1.725   2.213  0.4845  0.4228 -0.8843
 3859TIP3   OH211521   5.522   2.428   1.660  0.6392 -0.6293  0.0500
 3859TIP3    H111522   5.501   2.479   1.739  0.7889  0.1835 -0.4323
 3859TIP3    H211523   5.438   2.415   1.617  0.7028 -0.0965 -0.2402
 3860TIP3   OH211524   6.872   6.652   1.345  0.4672 -0.4790  0.2173
 3860TIP3    H111525   6.779   6.659   1.367  0.6266 -0.6423  0.9334
 3860TIP3    H211526   6.910   6.599   1.415  1.5400  1.5342  1.2096
 3861TIP3   OH211527   2.137   7.068   5.566  0.6105 -0.5203 -0.3763
 3861TIP3    H111528   2.183   6.991   5.600 -0.2372 -0.6819  0.4581
 3861TIP3    H211529   2.143   7.060   5.471 -1.1622 -2.6907 -0.3542
 3862TIP3   OH211530   4.958   2.095   1.201  0.2854  0.2182 -0.2274
 3862TIP3    H111531   4.918   2.016   1.236  1.3690 -0.4401 -0.4215
 3862TIP3    H211532   5.040   2.065   1.161  0.7997  1.4606 -0.1574
 3863TIP3   OH211533   6.962   4.020   1.631  0.1067  0.0079  0.9196
 3863TIP3    H111534   6.948   4.003   1.538 -1.2892 -0.2081  1.1594
 3863TIP3    H211535   6.973   3.934   1.670  2.1291  0.1556  0.7647
 3864TIP3   OH211536   7.026   4.556   1.125 -0.3294  0.2451  0.0792
 3864TIP3    H111537   7.045   4.519   1.039 -0.0391 -0.9974  0.6581
 3864TIP3    H211538   6.931   4.548   1.134 -0.2106 -0.8534  0.4106
 3865TIP3   OH211539   7.756   5.620   0.120  0.0528  0.5162  0.0189
 3865TIP3    H111540   7.826   5.677   0.152 -1.1303  2.0774 -0.1252
 3865TIP3    H211541   7.762   5.627   0.024  0.6628 -0.5393 -0.0212
 3866TIP3   OH211542   4.154   0.647   6.912 -0.6337 -0.5017  0.4406
 3866TIP3    H111543   4.196   0.708   6.973 -0.8414 -1.9138  2.0497
 3866TIP3    H211544   4.217   0.576   6.902 -0.6256 -0.3051 -0.9875
 3867TIP3   OH211545   5.958   2.433   2.851  0.1467  0.2831 -0.2889
 3867TIP3    H111546   5.989   2.514   2.811 -0.3319  0.3778 -0.4710
 3867TIP3    H211547   5.955   2.371   2.779 -1.1193  0.5670 -0.4894
 3868TIP3   OH211548   7.669   5.044   2.181  0.0723 -0.3757  0.3634
 3868TIP3    H111549   7.738   5.108   2.201  0.4435 -0.8908  0.7417
 3868TIP3    H211550   7.712   4.978   2.127 -0.5706  0.2300 -0.9197
 3869TIP3   OH211551   3.123   7.959   0.668  0.3524  0.0640 -0.0918
 3869TIP3    H111552   3.049   7.911   0.707  1.2699 -1.8368 -0.6170
 3869TIP3    H211553   3.131   7.923   0.580  1.9508  0.1967 -0.0159
 3870TIP3   OH211554   5.459   3.991   2.188 -0.1233 -0.5549  0.5737
 3870TIP3    H111555   5.387   3.932   2.212  0.6921 -1.2122  1.4107
 3870TIP3    H211556   5.536   3.954   2.231  0.7910 -0.0497 -0.6014
 3871TIP3   OH211557   5.123   2.533   3.921  0.0095 -0.2860  0.0761
 3871TIP3    H111558   5.215   2.556   3.936 -0.1337 -0.6737  1.6391
 3871TIP3    H211559   5.113   2.447   3.962 -1.0601 -0.2304 -0.0600
 3872TIP3   OH211560   6.312   6.559   1.731 -0.3204 -0.2909  0.3146
 3872TIP3    H111561   6.244   6.496   1.707  0.3949 -0.8219 -0.3706
 3872TIP3    H211562   6.265   6.640   1.748 -0.9485 -0.0230 -2.4030
 3873TIP3   OH211563   4.557   3.649   2.110  0.6070 -0.1019  0.0674
 3873TIP3    H111564   4.633   3.593   2.095  0.4182 -0.6154  1.0005
 3873TIP3    H211565   4.553   3.658   2.205 -1.4677 -1.4322  0.1333
 3874TIP3   OH211566   6.362   4.949   0.238 -0.0967 -0.1631  0.3032
 3874TIP3    H111567   6.416   5.028   0.229 -2.2948  1.2499 -0.8263
 3874TIP3    H211568   6.382   4.898   0.160 -0.9666  0.7308 -0.5170
 3875TIP3   OH211569   7.991   2.373   0.899  0.4742  0.0479  0.4974
 3875TIP3    H111570   8.072   2.413   0.870  1.7884 -1.8218  1.4762
 3875TIP3    H211571   7.968   2.313   0.828 -0.4811  1.1198 -0.1195
 3876TIP3   OH211572   5.945   2.998   1.088 -0.0236  0.1031 -0.5802
 3876TIP3    H111573   5.869   3.012   1.031 -2.2871 -0.3147  2.2320
 3876TIP3    H211574   5.938   2.907   1.117  0.6143  0.5300  0.9976
 3877TIP3   OH211575   7.280   1.501   2.405  0.1953 -0.1480  0.5362
 3877TIP3    H111576   7.273   1.463   2.493  0.5241 -1.9531 -0.2034
 3877TIP3    H211577   7.291   1.595   2.421 -0.6395 -0.3454  2.3948
 3878TIP3   OH211578   5.692   4.790   2.859 -0.1415 -0.0129 -0.0021
 3878TIP3    H111579   5.639   4.731   2.805  0.9798 -0.3650 -0.7574
 3878TIP3    H211580   5.638   4.810   2.935 -0.1179 -2.9293  0.8377
 3879TIP3   OH211581   3.747   7.545   3.745  0.3792  0.2027  0.8715
 3879TIP3    H111582   3.761   7.625   3.795  0.4778  0.3317  0.6390
 3879TIP3    H211583   3.726   7.575   3.656 -0.8411  0.0084  1.0761
 3880TIP3   OH211584   6.281   2.418   1.675 -0.2866  0.0864  0.2672
 3880TIP3    H111585   6.230   2.343   1.706  1.1039 -0.9584  0.1279
 3880TIP3    H211586   6.218   2.490   1.668 -2.1247 -1.6189 -1.6537
 3881TIP3   OH211587   5.729   2.811   2.987  0.0890 -0.1055  0.1230
 3881TIP3    H111588   5.805   2.841   3.038  0.0519  1.0856 -0.5006
 3881TIP3    H211589   5.697   2.890   2.943 -0.5071 -0.9131 -0.9249
 3882TIP3   OH211590   0.337   2.342   1.778  0.4581 -0.2593  0.3335
 3882TIP3    H111591   0.356   2.365   1.869 -0.2138  0.1956  0.3617
 3882TIP3    H211592   0.285   2.415   1.745 -2.0859 -1.9093  0.5413
 3883TIP3   OH211593   4.981   0.334   5.853 -0.0210  0.5157  0.3048
 3883TIP3    H111594   5.068   0.360   5.883 -0.7624  2.2341  1.0356
 3883TIP3    H211595   4.921   0.392   5.900 -1.6190 -1.1709  0.4108
 3884TIP3   OH211596   6.594   7.990   2.998  0.2849  0.3012 -0.1428
 3884TIP3    H111597   6.584   7.911   3.051 -0.8918  1.3967  1.3254
 3884TIP3    H211598   6.670   8.035   3.035  0.8351 -0.0405 -0.8495
 3885TIP3   OH211599   3.543   0.469   6.189 -0.0728  0.2037  0.2904
 3885TIP3    H111600   3.633   0.458   6.159 -0.2910 -0.9117  0.0321
 3885TIP3    H211601   3.533   0.563   6.201  0.8346  0.4135 -0.5939
 3886TIP3   OH211602   7.144   5.596   1.676 -0.1140  0.5328 -0.4573
 3886TIP3    H111603   7.188   5.515   1.652 -1.3506 -0.5775  0.9161
 3886TIP3    H211604   7.194   5.631   1.749  0.8033  1.3776 -1.4665
 3887TIP3   OH211605   5.164   1.134   3.475 -0.4289  0.2599  0.0741
 3887TIP3    H111606   5.082   1.169   3.511 -0.9854 -0.4910 -0.4541
 3887TIP3    H211607   5.196   1.075   3.544  0.6011  1.8899  1.0399
 3888TIP3   OH211608   5.224   3.466   1.659  0.0176 -0.0330 -0.0428
 3888TIP3    H111609   5.278   3.541   1.683  1.3528 -1.0730  0.2316
 3888TIP3    H211610   5.258   3.438   1.574 -0.4468 -0.3670 -0.1195
 3889TIP3   OH211611   3.794   1.620   5.993  0.1003  0.3304  0.0756
 3889TIP3    H111612   3.882   1.581   6.000  0.5704  1.2827 -0.3811
 3889TIP3    H211613   3.810   1.708   5.959 -0.9804  0.7821  0.7285
 3890TIP3   OH211614   6.270   4.774   2.183  0.0871  0.2696  0.0672
 3890TIP3    H111615   6.254   4.784   2.276  0.0885 -0.7776  0.1845
 3890TIP3    H211616   6.189   4.735   2.148  0.1221  0.5584 -0.3439
 3891TIP3   OH211617   7.075   5.201   3.484 -0.3480 -0.2162  0.1675
 3891TIP3    H111618   7.032   5.130   3.437 -0.4683 -0.2063  0.2627
 3891TIP3    H211619   7.004   5.251   3.523 -0.2233 -0.7117  1.0520
 3892TIP3   OH211620   3.574   0.721   6.568  0.4489 -0.3378 -0.3512
 3892TIP3    H111621   3.668   0.737   6.577  0.4374 -0.2832 -0.3299
 3892TIP3    H211622   3.568   0.636   6.523  0.5038 -0.8496  0.5912
 3893TIP3   OH211623   4.863   0.804   4.530  0.4394 -0.4193  0.3661
 3893TIP3    H111624   4.903   0.825   4.614 -1.3507  0.3628  1.0544
 3893TIP3    H211625   4.917   0.850   4.465  0.3466  1.0576  1.3143
 3894TIP3   OH211626   6.290   6.850   2.155  0.8456  0.1628  0.0053
 3894TIP3    H111627   6.330   6.769   2.188 -0.5243 -0.4125  0.2888
 3894TIP3    H211628   6.327   6.860   2.067  2.1630  0.0409  0.5313
 3895TIP3   OH211629   3.129   3.935   0.837 -0.5631  0.5518  0.1872
 3895TIP3    H111630   3.215   3.959   0.802  0.1125  1.1935  2.2421
 3895TIP3    H211631   3.075   4.012   0.822  0.0014  1.2072  1.4229
 3896TIP3   OH211632   6.573   4.254   2.296 -0.2897 -0.0139  0.2496
 3896TIP3    H111633   6.574   4.204   2.378  1.7594  1.1335  0.9687
 3896TIP3    H211634   6.551   4.343   2.323 -0.8663  0.1199 -0.6304
 3897TIP3   OH211635   5.506   4.596   1.142  0.0206 -0.3232  0.2162
 3897TIP3    H111636   5.464   4.678   1.168  0.2310  0.1271 -0.8279
 3897TIP3    H211637   5.463   4.529   1.195  0.7469  0.5979  2.0406
 3898TIP3   OH211638   5.919   5.169   0.268  0.0258  0.0332 -0.5352
 3898TIP3    H111639   5.974   5.116   0.211  0.6827  1.3843 -1.1790
 3898TIP3    H211640   5.905   5.115   0.345  1.2473 -0.7945 -0.8845
 3899TIP3   OH211641   5.871   2.421   1.199 -0.2947  0.4750 -0.3860
 3899TIP3    H111642   5.811   2.451   1.132 -0.2485  1.8395  0.1684
 3899TIP3    H211643   5.836   2.456   1.281  0.5691  0.2352  0.0966
 3900TIP3   OH211644   5.350   4.166   2.922  0.1647 -0.2300  0.1695
 3900TIP3    H111645   5.318   4.095   2.978 -0.7972 -0.2079 -0.3504
 3900TIP3    H211646   5.406   4.122   2.858  0.3464 -0.3981  0.4414
 3901TIP3   OH211647   4.052   7.627   1.417  0.0778 -0.1426 -0.5535
 3901TIP3    H111648   4.134   7.600   1.457  0.6061  2.3729  0.1902
 3901TIP3    H211649   3.985   7.572   1.457  1.2032 -1.0554  0.0795
 3902TIP3   OH211650   7.371   5.180   1.438  0.0014 -0.0750 -0.4560
 3902TIP3    H111651   7.449   5.156   1.488  1.0656  0.7887 -1.6562
 3902TIP3    H211652   7.298   5.139   1.485  1.3004 -1.9674 -0.0417
 3903TIP3   OH211653   5.441   3.836   1.055  0.0820  0.0294  0.1902
 3903TIP3    H111654   5.440   3.774   1.127  0.0005  0.1079  0.2563
 3903TIP3    H211655   5.388   3.794   0.986 -1.4386  0.8014  0.8749
 3904TIP3   OH211656   5.709   4.766   0.785  0.1737 -0.8706  0.0503
 3904TIP3    H111657   5.688   4.727   0.699 -1.9052 -1.5708  0.8438
 3904TIP3    H211658   5.647   4.726   0.845  1.7899 -0.5846  1.9663
 3905TIP3   OH211659   7.129   3.861   0.679 -0.1766  0.5875  0.2689
 3905TIP3    H111660   7.042   3.839   0.713 -0.5716 -0.1615 -1.1726
 3905TIP3    H211661   7.112   3.930   0.616  0.2063  0.0820 -0.3911
 3906TIP3   OH211662   7.146   4.045   2.111 -0.3781  0.0863 -0.0301
 3906TIP3    H111663   7.067   4.061   2.163 -0.9824  1.8840 -1.4397
 3906TIP3    H211664   7.129   3.963   2.066 -1.0075 -0.0821  0.5047
 3907TIP3   OH211665   6.719   5.737   2.884 -0.0418 -0.3432 -0.2999
 3907TIP3    H111666   6.707   5.688   2.803  2.1625  0.5707 -1.2153
 3907TIP3    H211667   6.717   5.671   2.953 -0.4336 -1.2994 -1.2189
 3908TIP3   OH211668   5.010   6.285   3.246 -0.2657  0.1938 -0.1727
 3908TIP3    H111669   5.026   6.361   3.302 -0.0607  0.5477 -0.7096
 3908TIP3    H211670   5.076   6.292   3.177 -0.1041 -0.5937 -0.1039
 3909TIP3   OH211671   3.504   5.437   0.803 -0.1410  0.1391 -0.4301
 3909TIP3    H111672   3.524   5.361   0.748 -0.6378  0.3678 -0.9371
 3909TIP3    H211673   3.409   5.448   0.792 -0.0749  0.7914 -0.3050
 3910TIP3   OH211674   6.192   5.716   1.428 -0.2248 -0.0234  0.8861
 3910TIP3    H111675   6.285   5.696   1.438  0.1328  0.9068 -0.4075
 3910TIP3    H211676   6.189   5.809   1.407 -1.4376 -0.0684  0.7989
 3911TIP3   OH211677   4.319   3.591   3.687  0.0576 -0.2375  0.4574
 3911TIP3    H111678   4.349   3.538   3.614 -1.0233 -1.8525  1.1688
 3911TIP3    H211679   4.391   3.654   3.701  0.5227 -0.2787 -1.5772
 3912TIP3   OH211680   5.328   5.136   0.796  0.0608  0.0138 -0.4416
 3912TIP3    H111681   5.318   5.138   0.701 -0.9769 -4.1743 -0.4931
 3912TIP3    H211682   5.410   5.090   0.811  0.4827  1.1014  0.7236
 3913TIP3   OH211683   4.009   4.979   2.369  0.0369 -0.4594  0.0003
 3913TIP3    H111684   4.028   5.058   2.419  1.0673 -0.7053  0.0169
 3913TIP3    H211685   4.026   4.907   2.431 -0.2332 -0.7136 -0.2180
 3914TIP3   OH211686   5.601   5.699   0.530  0.0378 -0.3791  0.2196
 3914TIP3    H111687   5.535   5.658   0.475  0.8975 -1.4032 -0.0767
 3914TIP3    H211688   5.558   5.776   0.568  0.1718  1.8866 -3.9215
 3915TIP3   OH211689   5.758   2.340   2.115 -0.0482 -0.2824 -0.0719
 3915TIP3    H111690   5.705   2.400   2.062 -0.9769  0.6217  1.8286
 3915TIP3    H211691   5.694   2.290   2.166  0.8889  0.0025  1.4064
 3916TIP3   OH211692   5.702   6.599   2.343 -0.4752  0.4592 -0.3453
 3916TIP3    H111693   5.732   6.551   2.420  0.2496  0.6330 -0.5200
 3916TIP3    H211694   5.754   6.679   2.341 -1.7181  1.2927 -0.0329
 3917TIP3   OH211695   5.919   3.595   0.675 -0.7171 -0.4985  0.1953
 3917TIP3    H111696   5.939   3.508   0.641 -3.8375 -1.4662  0.7161
 3917TIP3    H211697   5.937   3.588   0.769  0.2331 -0.1919  0.0416
 3918TIP3   OH211698   5.017   5.868   1.023 -0.2735  0.2058 -0.3510
 3918TIP3    H111699   4.998   5.887   1.115 -0.7745  0.9757 -0.6129
 3918TIP3    H211700   5.096   5.919   1.004 -0.6945  0.7766 -0.5988
 3919TIP3   OH211701   6.501   3.087   2.457 -0.0164 -0.0489  0.5814
 3919TIP3    H111702   6.579   3.141   2.466  0.0633 -0.2769  1.2098
 3919TIP3    H211703   6.499   3.033   2.535 -1.1262  0.3799  0.8646
 3920TIP3   OH211704   6.594   1.957   0.606  0.2053  0.3184 -0.0089
 3920TIP3    H111705   6.660   2.026   0.599  2.3946 -1.6484  0.6688
 3920TIP3    H211706   6.526   1.994   0.662  0.0699  2.8590 -1.7754
 3921TIP3   OH211707   8.213   3.959   1.252  0.0442  0.6266  0.2202
 3921TIP3    H111708   8.218   4.041   1.301 -0.9125  0.4371  0.6449
 3921TIP3    H211709   8.216   3.891   1.319  1.6372  0.2776 -0.1798
 3922TIP3   OH211710   5.924   4.934   0.772  0.1363 -0.0222  0.3912
 3922TIP3    H111711   5.846   4.880   0.786  0.8881 -0.9630  0.9959
 3922TIP3    H211712   5.963   4.943   0.858  0.4852  0.7765  0.1496
 3923TIP3   OH211713   3.751   2.841   1.284  0.1988  0.0288  0.5200
 3923TIP3    H111714   3.675   2.896   1.303 -1.1941 -1.6138 -0.0651
 3923TIP3    H211715   3.736   2.811   1.194  1.4408 -0.4854  0.4786
 3924TIP3   OH211716   7.008   5.334   0.887  0.0555  0.1559  0.7871
 3924TIP3    H111717   6.974   5.415   0.924 -0.6082  0.0272  0.4723
 3924TIP3    H211718   7.045   5.359   0.802  0.3436  0.2173  0.9286
 3925TIP3   OH211719   6.799   2.814   1.017  0.0669 -0.2690 -0.1103
 3925TIP3    H111720   6.784   2.740   1.076 -0.9330 -0.5718 -0.7452
 3925TIP3    H211721   6.832   2.774   0.936 -0.2292  0.0033 -0.3649
 3926TIP3   OH211722   4.576   5.511   0.329  0.2912  0.3422 -0.0050
 3926TIP3    H111723   4.545   5.458   0.256 -0.8084  0.3851  0.4203
 3926TIP3    H211724   4.541   5.599   0.311 -1.8457 -0.1067  1.6479
 3927TIP3   OH211725   7.429   5.362   2.982  0.5574  0.2729 -0.5189
 3927TIP3    H111726   7.371   5.292   3.013 -0.8349  1.2520 -0.8798
 3927TIP3    H211727   7.395   5.441   3.023  2.2591  0.7251  0.0545
 3928TIP3   OH211728   4.071   4.815   4.429 -0.0355 -0.0325 -0.7578
 3928TIP3    H111729   4.094   4.866   4.351 -0.8738  0.8944 -0.4100
 3928TIP3    H211730   4.023   4.876   4.485 -0.7896 -1.1196 -0.1890
 3929TIP3   OH211731   3.575   5.363   4.104  0.2629  0.3450 -0.4089
 3929TIP3    H111732   3.604   5.273   4.085  0.7613  0.2628  0.7143
 3929TIP3    H211733   3.596   5.376   4.196  0.2117  1.6319 -0.5703
 3930TIP3   OH211734   6.397   4.529   2.107 -0.2261  0.2084  0.2951
 3930TIP3    H111735   6.440   4.524   2.192  0.2685  2.3312  0.2043
 3930TIP3    H211736   6.360   4.617   2.104  0.6273  0.5313 -2.0888
 3931TIP3   OH211737   3.514   3.942   0.094 -0.0657 -0.4293  0.3820
 3931TIP3    H111738   3.587   3.885   0.069  0.9928  0.9496  0.2536
 3931TIP3    H211739   3.556   4.026   0.115 -1.5979  0.3033  0.5487
 3932TIP3   OH211740   7.325   4.394   3.952  0.3411  0.0908  0.4246
 3932TIP3    H111741   7.332   4.324   3.888  1.6736 -0.6360  1.3367
 3932TIP3    H211742   7.252   4.369   4.008 -1.2106  1.0247 -1.1485
 3933TIP3   OH211743   4.004   3.100   2.714  0.3850 -0.4849  0.8673
 3933TIP3    H111744   4.040   3.035   2.774  0.6397  0.2182  1.4783
 3933TIP3    H211745   4.078   3.125   2.659  0.3849 -0.4169  0.8973
 3934TIP3   OH211746   3.892   4.094   3.435 -0.1409 -0.3257  0.0658
 3934TIP3    H111747   3.828   4.084   3.364 -1.8051  1.3187  1.3006
 3934TIP3    H211748   3.948   4.017   3.427 -0.7815 -0.5765 -2.5413
 3935TIP3   OH211749   4.428   5.471   1.380  0.3344  0.2304 -0.2839
 3935TIP3    H111750   4.518   5.504   1.385 -0.7863  3.4775  0.0099
 3935TIP3    H211751   4.374   5.550   1.385 -2.5677 -1.7378  0.6788
 3936TIP3   OH211752   0.301   2.903   3.114  0.2682  0.3285 -0.3267
 3936TIP3    H111753   0.346   2.980   3.079  0.3955  0.6861  0.6022
 3936TIP3    H211754   0.210   2.912   3.086  0.0222  1.4455  0.7730
 3937TIP3   OH211755   6.565   5.230   3.840  0.1304  0.4840 -0.9033
 3937TIP3    H111756   6.560   5.287   3.764  0.9067  0.9670 -0.6093
 3937TIP3    H211757   6.610   5.283   3.906 -0.2506 -0.0385 -0.2193
 3938TIP3   OH211758   3.726   4.733   0.581  0.0426 -0.5555 -0.2497
 3938TIP3    H111759   3.635   4.712   0.561  0.1119 -2.1130  0.9648
 3938TIP3    H211760   3.724   4.822   0.615 -0.6896  0.3357 -2.5230
 3939TIP3   OH211761   4.690   4.390   0.462  0.1195 -0.3535  0.0361
 3939TIP3    H111762   4.749   4.447   0.511 -1.1489  0.5995  0.4888
 3939TIP3    H211763   4.746   4.349   0.396  1.4098  0.0182  0.8780
 3940TIP3   OH211764   4.083   4.349   1.489  0.0244 -0.1595 -0.0275
 3940TIP3    H111765   4.178   4.354   1.487 -0.0093  2.3470  1.5626
 3940TIP3    H211766   4.057   4.413   1.556 -2.8095 -0.1945 -1.0066
 3941TIP3   OH211767   4.448   4.713   2.292 -0.3739 -0.8152  0.0170
 3941TIP3    H111768   4.419   4.627   2.262  0.7278 -1.1523 -0.1028
 3941TIP3    H211769   4.410   4.774   2.229  3.4826 -1.6437 -3.3474
 3942TIP3   OH211770   6.183   5.464   2.979  0.4546 -0.0227 -0.4444
 3942TIP3    H111771   6.216   5.477   2.890 -0.4688  0.2085 -0.7580
 3942TIP3    H211772   6.182   5.369   2.991 -1.5298 -0.1674 -1.5046
 3943TIP3   OH211773   4.098   3.474   1.930 -0.2930  0.1705  0.1817
 3943TIP3    H111774   4.042   3.514   1.863 -0.1417 -1.0883 -0.7150
 3943TIP3    H211775   4.076   3.381   1.927  1.1882 -0.1963  0.4511
 3944TIP3   OH211776   6.043   6.013   0.917 -0.0931 -0.0115  0.0845
 3944TIP3    H111777   6.043   6.061   1.000 -0.7667 -1.1048  0.7245
 3944TIP3    H211778   6.004   6.074   0.854  1.2244  1.1492  0.3648
 3945TIP3   OH211779   5.208   2.303   1.878 -0.1632  0.3663  0.6374
 3945TIP3    H111780   5.247   2.343   1.956  0.7985 -0.3063  0.5050
 3945TIP3    H211781   5.169   2.376   1.830  2.9468  1.3821 -0.4182
 3946TIP3   OH211782   5.346   4.628   3.504  0.4106  0.3269 -0.2511
 3946TIP3    H111783   5.350   4.547   3.555 -0.1812 -0.4879 -1.4623
 3946TIP3    H211784   5.282   4.682   3.550  0.1525 -0.2545  0.0765
 3947TIP3   OH211785   7.629   2.690   3.568  0.4075  0.6635  0.5735
 3947TIP3    H111786   7.680   2.614   3.543 -1.0099 -0.1145 -0.0497
 3947TIP3    H211787   7.684   2.738   3.630  1.3256 -0.8237  0.9136
 3948TIP3   OH211788   7.307   2.463   2.143  0.0004  0.2876  0.3541
 3948TIP3    H111789   7.360   2.464   2.222 -0.9708  1.2776  1.0096
 3948TIP3    H211790   7.217   2.471   2.174 -0.3646  1.0959 -0.8642
 3949TIP3   OH211791   3.634   6.132   0.429 -0.0382 -0.0947 -0.1501
 3949TIP3    H111792   3.717   6.130   0.382 -0.6142  0.4503 -1.1820
 3949TIP3    H211793   3.618   6.040   0.451  1.7397 -0.0221  1.6787
 3950TIP3   OH211794   4.796   6.336   2.346  0.3737  0.0269  0.0534
 3950TIP3    H111795   4.835   6.315   2.260 -0.5589  2.1285 -0.9239
 3950TIP3    H211796   4.757   6.253   2.375  2.6178 -1.2828 -0.4990
 3951TIP3   OH211797   1.421   7.644   5.831 -0.0848  0.7869 -0.5845
 3951TIP3    H111798   1.513   7.662   5.848 -0.1573  0.6347 -0.0386
 3951TIP3    H211799   1.373   7.697   5.894 -0.3023 -1.0934  0.8622
 3952TIP3   OH211800   7.454   4.412   3.193 -0.2992  0.0456 -0.0443
 3952TIP3    H111801   7.533   4.399   3.140 -0.6278 -0.5612 -0.3874
 3952TIP3    H211802   7.480   4.386   3.281  0.3054  1.2431  0.1381
 3953TIP3   OH211803   5.574   6.242   2.371  0.1543 -0.1713  0.9632
 3953TIP3    H111804   5.529   6.168   2.332  2.6138 -1.6313  0.7878
 3953TIP3    H211805   5.613   6.289   2.298  0.9942 -0.3435  1.2912
 3954TIP3   OH211806   5.822   2.751   4.209  0.0614 -0.4267 -0.8753
 3954TIP3    H111807   5.872   2.824   4.246 -0.2990  0.5608 -2.2999
 3954TIP3    H211808   5.867   2.673   4.242 -0.6821  0.3840  2.2383
 3955TIP3   OH211809   5.180   2.900   2.868 -0.3301  0.1739  0.1026
 3955TIP3    H111810   5.143   2.879   2.782 -0.4204  0.4306  0.0812
 3955TIP3    H211811   5.249   2.963   2.850 -0.0403 -0.1208  0.1684
 3956TIP3   OH211812   4.247   5.438   1.868 -0.4609  0.4777  0.1182
 3956TIP3    H111813   4.328   5.476   1.837 -0.6938 -0.1958 -1.3409
 3956TIP3    H211814   4.193   5.427   1.790 -0.2592 -3.1821  0.4186
 3957TIP3   OH211815   4.392   4.402   1.552 -0.3751  0.5902  0.2200
 3957TIP3    H111816   4.405   4.357   1.635  0.2679 -0.0764 -0.2343
 3957TIP3    H211817   4.480   4.419   1.519 -0.6213  0.7339 -0.3885
 3958TIP3   OH211818   6.137   3.129   0.893  0.0231  0.7979  0.0909
 3958TIP3    H111819   6.231   3.117   0.906  0.0337 -0.4494 -1.0916
 3958TIP3    H211820   6.096   3.064   0.951 -0.0584 -0.0495 -0.9003
 3959TIP3   OH211821   5.247   3.619   1.140 -0.3021 -0.1360 -0.6187
 3959TIP3    H111822   5.179   3.582   1.195  0.7062 -1.1681 -0.0569
 3959TIP3    H211823   5.200   3.669   1.073 -1.5263  1.7858  1.6011
 3960TIP3   OH211824   6.517   5.185   3.133  0.3307 -0.7774  0.1405
 3960TIP3    H111825   6.566   5.103   3.142 -0.6156 -1.1688  1.8223
 3960TIP3    H211826   6.514   5.222   3.221 -0.7182  0.2369 -0.3000
 3961TIP3   OH211827   5.964   4.756   1.582 -0.1856 -0.1991 -0.4261
 3961TIP3    H111828   5.898   4.686   1.574  0.6302 -0.8895 -1.1716
 3961TIP3    H211829   6.038   4.713   1.624 -0.5667  0.8272  1.3567
 3962TIP3   OH211830   6.180   3.124   4.759 -0.1971 -0.5165  0.1104
 3962TIP3    H111831   6.104   3.065   4.765 -0.7061  0.3369  2.6928
 3962TIP3    H211832   6.194   3.154   4.848  0.3425  2.9635 -1.0779
 3963TIP3   OH211833   7.498   5.109   1.713  0.3168 -0.2400 -0.1111
 3963TIP3    H111834   7.438   5.148   1.776  1.4285 -1.6342  1.8712
 3963TIP3    H211835   7.556   5.181   1.688 -0.9364  0.6342 -0.5454
 3964TIP3   OH211836   4.456   0.111   6.682  0.2105  0.0367  0.3351
 3964TIP3    H111837   4.547   0.088   6.664 -0.0842 -0.2607 -0.8109
 3964TIP3    H211838   4.448   0.202   6.652  0.3275  0.3105  1.1360
 3965TIP3   OH211839   6.088   6.132   3.083  0.1380 -0.5996 -0.1316
 3965TIP3    H111840   6.114   6.210   3.132  1.9173 -0.8023 -0.7280
 3965TIP3    H211841   6.073   6.065   3.150 -0.3886 -0.0307  0.3184
 3966TIP3   OH211842   7.486   3.266   2.823  0.3700  0.2610 -0.3840
 3966TIP3    H111843   7.508   3.179   2.857 -1.3865 -0.4800 -1.1059
 3966TIP3    H211844   7.519   3.327   2.889  2.1936 -0.9117 -0.1780
 3967TIP3   OH211845   0.851   5.213   6.419 -0.4442 -0.7306 -0.1312
 3967TIP3    H111846   0.875   5.184   6.331  1.0605  0.7473 -0.2115
 3967TIP3    H211847   0.809   5.298   6.406  2.5399  0.9438  0.8236
 3968TIP3   OH211848   5.895   2.763   1.180  0.2103  0.1902  0.5245
 3968TIP3    H111849   5.801   2.742   1.183  0.1366  0.3717 -0.3220
 3968TIP3    H211850   5.929   2.730   1.263 -0.3819 -0.9916  0.3144
 3969TIP3   OH211851   4.533   0.686   2.092 -0.5188 -0.5606 -0.0232
 3969TIP3    H111852   4.548   0.781   2.092  0.6072 -0.7238 -0.8026
 3969TIP3    H211853   4.621   0.648   2.100 -1.0447 -1.5383  1.3267
 3970TIP3   OH211854   3.523   6.170   2.941  0.3822 -0.3648  0.0737
 3970TIP3    H111855   3.429   6.166   2.960  0.0894 -1.2306 -1.4572
 3970TIP3    H211856   3.558   6.090   2.981 -0.1731 -1.9916 -2.5418
 3971TIP3   OH211857   8.132   4.685   2.703  0.5668  0.3310  0.2832
 3971TIP3    H111858   8.180   4.731   2.772  1.1245  0.6129 -0.2901
 3971TIP3    H211859   8.189   4.690   2.626  0.4252 -0.9011  0.0848
 3972TIP3   OH211860   1.963   7.265   6.594 -0.1988 -0.4819  0.2684
 3972TIP3    H111861   2.029   7.302   6.653 -1.2886  2.8367 -0.4567
 3972TIP3    H211862   1.898   7.227   6.653  0.3134 -0.0612  1.1193
 3973TIP3   OH211863   6.214   3.531   1.581  0.5385  0.5523  0.2930
 3973TIP3    H111864   6.266   3.499   1.655  0.0888 -0.2270  0.2762
 3973TIP3    H211865   6.125   3.540   1.616  0.7699  2.3087  0.4410
 3974TIP3   OH211866   0.159   4.314   1.990 -0.1821 -0.5365  0.2866
 3974TIP3    H111867   0.226   4.273   1.935 -1.0141  0.3116 -1.3917
 3974TIP3    H211868   0.076   4.282   1.954 -0.7668  0.8570  0.3655
 3975TIP3   OH211869   6.360   5.750   1.728  0.1766  0.3160 -0.0914
 3975TIP3    H111870   6.424   5.687   1.763 -1.0703 -1.0289 -0.1848
 3975TIP3    H211871   6.342   5.810   1.801  1.2815  0.5021  0.0381
 3976TIP3   OH211872   5.071   4.847   1.184  0.2568  0.1318  0.1641
 3976TIP3    H111873   5.066   4.767   1.132  0.0926  0.9453 -1.0959
 3976TIP3    H211874   5.012   4.907   1.141 -1.2720  0.2654  2.3462
 3977TIP3   OH211875   5.467   3.870   3.134 -0.4933 -0.1418  0.0844
 3977TIP3    H111876   5.434   3.836   3.217 -1.1236 -0.5480 -0.3278
 3977TIP3    H211877   5.417   3.823   3.067  0.6385 -0.4713 -0.5386
 3978TIP3   OH211878   6.060   4.633   1.239 -0.5229 -0.1414 -0.2462
 3978TIP3    H111879   6.144   4.633   1.284 -0.4483  2.1208 -0.3375
 3978TIP3    H211880   6.081   4.607   1.149  0.0089 -0.1562 -0.1163
 3979TIP3   OH211881   7.629   1.994   1.335 -0.2824 -0.1216 -0.2806
 3979TIP3    H111882   7.584   2.023   1.256  2.4261 -1.7788 -2.5234
 3979TIP3    H211883   7.582   1.915   1.362  0.9848 -1.6353 -2.3905
 3980TIP3   OH211884   6.395   3.526   0.321 -0.5214  0.5776 -0.0273
 3980TIP3    H111885   6.362   3.614   0.342  0.2910  0.3565  2.2830
 3980TIP3    H211886   6.316   3.476   0.299 -1.5505  0.6470  3.2348
 3981TIP3   OH211887   6.962   3.941   2.476  0.5072 -0.9854  0.5067
 3981TIP3    H111888   7.047   3.974   2.503 -0.2176  0.8333  0.6782
 3981TIP3    H211889   6.903   3.963   2.548 -0.4722 -0.4690 -0.4292
 3982TIP3   OH211890   6.401   2.614   2.658  0.1570  0.4413 -0.5273
 3982TIP3    H111891   6.420   2.540   2.600 -0.1170 -0.5734  0.6471
 3982TIP3    H211892   6.486   2.653   2.677  0.4200 -0.2146 -0.3365
 3983TIP3   OH211893   7.096   1.692   1.266  0.3427 -0.2432  0.1839
 3983TIP3    H111894   7.069   1.715   1.177  0.8962  1.6277  0.4748
 3983TIP3    H211895   7.069   1.767   1.319  3.6275  0.5202  0.9193
 3984TIP3   OH211896   3.585   1.769   3.344 -0.2116  0.1140 -0.0690
 3984TIP3    H111897   3.496   1.735   3.339  0.3980 -1.7401  1.0265
 3984TIP3    H211898   3.575   1.864   3.340 -2.2261 -0.0755 -0.0448
 3985TIP3   OH211899   8.335   5.403   1.997 -0.0907 -0.6501  0.2955
 3985TIP3    H111900   8.269   5.353   1.949 -0.3483 -1.7173  1.7337
 3985TIP3    H211901   8.290   5.482   2.026 -0.0772 -0.2504 -0.7462
 3986TIP3   OH211902   4.929   3.003   3.805 -0.2556 -0.3027 -0.0793
 3986TIP3    H111903   4.885   2.927   3.843 -1.6800  0.5870  0.0611
 3986TIP3    H211904   4.859   3.063   3.781  0.8415  0.8751 -0.4206
 3987TIP3   OH211905   4.749   4.501   1.348  0.6937 -0.8355 -0.4103
 3987TIP3    H111906   4.719   4.585   1.381  0.9148 -0.1368 -1.9467
 3987TIP3    H211907   4.845   4.505   1.355  0.6306 -1.8993  1.6936
 3988TIP3   OH211908   5.085   4.169   1.415 -0.0105 -0.1096 -0.3556
 3988TIP3    H111909   5.155   4.143   1.356  0.3186 -2.0184  0.8479
 3988TIP3    H211910   5.005   4.143   1.369  0.1834 -0.2396 -0.6226
 3989TIP3   OH211911   7.535   5.616   2.245 -0.0640  0.0948 -0.3110
 3989TIP3    H111912   7.545   5.698   2.292 -1.9922  0.1856 -0.0302
 3989TIP3    H211913   7.465   5.569   2.290 -1.1780 -0.3093 -2.3646
 3990TIP3   OH211914   5.723   4.687   2.492 -0.1777  0.0826  0.4510
 3990TIP3    H111915   5.668   4.672   2.569  1.0260 -0.8740  1.1535
 3990TIP3    H211916   5.692   4.624   2.428 -2.4022  2.1252 -0.5260
 3991TIP3   OH211917   7.145   3.930   0.215 -0.1448  0.0453  0.0241
 3991TIP3    H111918   7.206   3.999   0.189  0.3520 -1.5055 -3.1443
 3991TIP3    H211919   7.192   3.848   0.199 -1.2868 -1.0972  2.2510
 3992TIP3   OH211920   4.325   5.142   0.860  0.4693  0.0466  0.1676
 3992TIP3    H111921   4.252   5.202   0.872  1.2813  1.1460 -0.3155
 3992TIP3    H211922   4.293   5.058   0.893 -0.9100  0.5806  0.2074
 3993TIP3   OH211923   6.417   4.503   2.671  0.3987 -0.2315  0.9874
 3993TIP3    H111924   6.472   4.581   2.670 -1.0256  0.7769 -0.1670
 3993TIP3    H211925   6.428   4.468   2.760  3.2576 -0.3553  0.6524
 3994TIP3   OH211926   6.024   6.186   1.625 -0.5621 -0.1864  0.6529
 3994TIP3    H111927   5.931   6.175   1.604 -0.3419  1.0074 -1.0294
 3994TIP3    H211928   6.069   6.136   1.557  0.0620  0.6256  0.4625
 3995TIP3   OH211929   4.166   7.127   0.664 -0.1645 -0.1544  0.3218
 3995TIP3    H111930   4.104   7.075   0.613  0.4489  0.0626 -0.6566
 3995TIP3    H211931   4.129   7.216   0.662 -0.5725 -0.3102  0.9546
 3996TIP3   OH211932   6.140   3.733   1.049  0.1108 -0.4958  0.2916
 3996TIP3    H111933   6.202   3.705   1.116  0.5632 -1.4241 -0.5038
 3996TIP3    H211934   6.075   3.662   1.046  0.6016 -0.9090 -0.8964
 3997TIP3   OH211935   5.348   4.514   1.465  0.4853  0.5636 -0.1489
 3997TIP3    H111936   5.401   4.589   1.491 -1.0366  1.0852  1.5483
 3997TIP3    H211937   5.264   4.528   1.507 -0.4455 -1.1449 -1.3666
 3998TIP3   OH211938   4.123   5.307   0.654  0.5308  0.3148  0.4237
 3998TIP3    H111939   4.152   5.375   0.595  0.3945  2.7720  3.0816
 3998TIP3    H211940   4.163   5.227   0.620  1.9519  1.9505 -1.8664
 3999TIP3   OH211941   7.125   5.384   0.643  0.5315 -0.0105 -0.3044
 3999TIP3    H111942   7.115   5.338   0.560  1.8801  0.3958 -0.6935
 3999TIP3    H211943   7.208   5.352   0.679  0.5211  0.6782  0.3424
 4000TIP3   OH211944   6.007   2.698   2.741 -0.1469 -0.8111  0.7121
 4000TIP3    H111945   5.963   2.672   2.661 -1.2994 -1.3641  1.5082
 4000TIP3    H211946   5.984   2.790   2.753  0.2836 -0.6429  0.2447
 4001TIP3   OH211947   7.579   4.192   0.051 -0.0680  0.5222 -0.3177
 4001TIP3    H111948   7.617   4.106   0.034 -0.5771  0.3120 -0.3670
 4001TIP3    H211949   7.616   4.217   0.137 -1.2820 -0.5022  0.5147
 4002TIP3   OH211950   6.609   4.056   0.820  0.3176 -0.6288 -0.4153
 4002TIP3    H111951   6.592   4.150   0.812 -0.9155 -0.7312  0.8738
 4002TIP3    H211952   6.614   4.040   0.914 -0.1968 -1.9937 -0.6062
 4003TIP3   OH211953   6.236   3.632   1.295 -0.2247  0.7950 -0.2128
 4003TIP3    H111954   6.282   3.705   1.336 -0.4565 -0.1917  1.8695
 4003TIP3    H211955   6.197   3.584   1.368  0.3914 -1.7179 -1.4752
 4004TIP3   OH211956   5.089   1.153   0.598  0.1130 -0.1400 -0.0938
 4004TIP3    H111957   5.008   1.199   0.576 -1.0553 -1.4948  1.2217
 4004TIP3    H211958   5.079   1.131   0.690  2.1587 -0.0200  0.1665
 4005TIP3   OH211959   4.897   3.741   2.793  0.1945  0.1281 -0.3033
 4005TIP3    H111960   4.944   3.765   2.713 -0.1035 -0.6264 -0.7103
 4005TIP3    H211961   4.821   3.691   2.762  0.1427 -0.2727  0.4568
 4006TIP3   OH211962   6.235   2.053   1.861 -0.8441 -0.1773 -0.1011
 4006TIP3    H111963   6.245   1.968   1.818 -1.3079 -0.7597  0.9132
 4006TIP3    H211964   6.169   2.098   1.809 -1.6017 -0.9783  0.1549
 4007TIP3   OH211965   6.896   2.203   1.463 -0.7645  0.1486 -0.7760
 4007TIP3    H111966   6.879   2.294   1.488  0.2995  0.2368 -0.3170
 4007TIP3    H211967   6.868   2.152   1.539 -1.2708  0.0971 -0.9954
 4008TIP3   OH211968   3.849   2.078   2.554 -0.2425 -0.6802  0.2724
 4008TIP3    H111969   3.942   2.062   2.573 -0.1028 -1.9041 -1.3160
 4008TIP3    H211970   3.815   1.993   2.528 -1.2702  0.2066 -1.3647
 4009TIP3   OH211971   4.946   2.050   2.050  0.0322  0.0684  0.2851
 4009TIP3    H111972   4.965   2.012   2.136  2.4783  0.0989 -0.1979
 4009TIP3    H211973   4.919   2.140   2.069  2.3712  0.6644  0.9471
 4010TIP3   OH211974   6.086   4.559   0.189 -0.2800  0.2391  0.2503
 4010TIP3    H111975   6.010   4.530   0.240 -1.4673  1.8933 -0.5240
 4010TIP3    H211976   6.147   4.592   0.255 -1.2584  1.1491  0.7186
 4011TIP3   OH211977   4.410   5.727   0.214 -0.8876 -0.0294 -0.3613
 4011TIP3    H111978   4.361   5.724   0.296 -0.8165 -1.6586 -0.3714
 4011TIP3    H211979   4.378   5.806   0.170 -0.2969  1.3509  1.6105
 4012TIP3   OH211980   6.435   7.550   0.460  0.3303  0.0131 -0.4257
 4012TIP3    H111981   6.497   7.606   0.413 -1.8493  1.8616 -1.1783
 4012TIP3    H211982   6.444   7.576   0.552  0.5935  0.3499 -0.5457
 4013TIP3   OH211983   7.657   3.262   2.151 -0.4758  0.3960  0.3636
 4013TIP3    H111984   7.692   3.199   2.088  0.5147  2.4785 -1.2212
 4013TIP3    H211985   7.564   3.241   2.157 -0.1528 -1.2552 -0.0568
 4014TIP3   OH211986   6.640   3.509   4.204  0.1058 -0.1620  0.0037
 4014TIP3    H111987   6.581   3.520   4.279  0.6173 -0.7789  0.5017
 4014TIP3    H211988   6.696   3.436   4.228 -1.0008 -1.6780 -1.7975
 4015TIP3   OH211989   3.809   5.290   2.315 -0.0737  0.6366 -0.0367
 4015TIP3    H111990   3.893   5.275   2.359 -1.1011 -1.0350  1.4150
 4015TIP3    H211991   3.828   5.275   2.222  1.0095 -0.8764  0.3929
 4016TIP3   OH211992   6.208   5.548   2.346 -0.4347 -0.6899  0.3102
 4016TIP3    H111993   6.143   5.490   2.386 -1.1242  0.2773  0.6486
 4016TIP3    H211994   6.268   5.569   2.417 -0.3721 -0.7474  0.2734
 4017TIP3   OH211995   4.306   5.557   0.726  0.9351  0.0506 -0.6410
 4017TIP3    H111996   4.334   5.497   0.656  1.7129  0.5135 -0.7272
 4017TIP3    H211997   4.348   5.640   0.705 -0.8777  0.9083 -1.0389
 4018TIP3   OH211998   5.580   1.440   6.401  0.0302 -0.0038 -0.1138
 4018TIP3    H111999   5.641   1.395   6.342  0.0202  1.1677 -1.0356
 4018TIP3    H212000   5.522   1.370   6.432 -0.9619 -0.4149 -2.7469
 4019TIP3   OH212001   0.713   3.506   2.776 -0.0395  0.2297  0.5410
 4019TIP3    H112002   0.807   3.493   2.773  0.2905  2.3926  0.6973
 4019TIP3    H212003   0.701   3.586   2.828 -2.1377 -1.6878  3.1018
 4020TIP3   OH212004   8.139   4.663   2.124  0.4117  0.2980 -0.1326
 4020TIP3    H112005   8.069   4.679   2.187  1.1228 -0.8620  0.9698
 4020TIP3    H212006   8.097   4.621   2.050 -0.1361  0.1024  0.2941
 4021TIP3   OH212007   7.700   2.794   1.909 -0.0564 -0.3654  0.3308
 4021TIP3    H112008   7.643   2.798   1.833  0.4130 -1.9572 -0.1286
 4021TIP3    H212009   7.781   2.754   1.876  0.8398  0.6484  1.2550
 4022TIP3   OH212010   4.807   5.921   0.350 -0.0726 -0.1489  0.1676
 4022TIP3    H112011   4.827   5.972   0.271  0.2614 -1.3326 -0.5157
 4022TIP3    H212012   4.711   5.924   0.356 -0.1207 -0.3314 -0.4601
 4023TIP3   OH212013   6.984   3.778   1.747  0.2807  0.2680 -0.6035
 4023TIP3    H112014   6.903   3.732   1.767  1.0790 -0.0821  2.0774
 4023TIP3    H212015   7.026   3.725   1.679 -1.4367  0.1401 -1.5942
 4024TIP3   OH212016   6.572   1.663   3.745 -0.0235  0.0791 -0.2596
 4024TIP3    H112017   6.604   1.601   3.810 -1.2965 -0.6557 -0.3173
 4024TIP3    H212018   6.565   1.747   3.792 -1.8159 -0.6457  0.8098
 4025TIP3   OH212019   6.212   5.636   2.015  0.0868 -0.1564 -0.1448
 4025TIP3    H112020   6.267   5.560   2.036  2.4042  0.8399 -2.2990
 4025TIP3    H212021   6.141   5.599   1.963 -0.1200 -1.1871  0.8524
 4026TIP3   OH212022   8.013   4.922   1.085  0.1797 -0.0628  0.5643
 4026TIP3    H112023   7.929   4.945   1.124 -0.7493 -1.3403 -0.5996
 4026TIP3    H212024   8.002   4.940   0.992  0.8782 -1.0912  0.2722
 4027TIP3   OH212025   7.500   3.702   3.048  0.2955  0.3536 -0.1969
 4027TIP3    H112026   7.434   3.703   3.117  0.5320 -0.3314  0.0392
 4027TIP3    H212027   7.457   3.659   2.974  0.4383  0.0118 -0.0815
 4028TIP3   OH212028   6.971   2.822   1.272 -0.5814 -0.0502 -0.0568
 4028TIP3    H112029   6.928   2.886   1.215  3.0258  2.4202 -0.1958
 4028TIP3    H212030   7.005   2.756   1.212 -0.8113  0.0441 -0.2962
 4029TIP3   OH212031   8.231   5.852   1.519  0.1676 -0.0389 -0.1288
 4029TIP3    H112032   8.151   5.845   1.466 -0.5333  0.2044  0.8791
 4029TIP3    H212033   8.299   5.875   1.457 -0.6790  0.4227 -0.8948
 4030TIP3   OH212034   5.008   0.096   6.911  0.0570 -0.0426  0.0338
 4030TIP3    H112035   5.007   0.030   6.842  2.3271 -0.5261  0.4278
 4030TIP3    H212036   5.093   0.137   6.904 -0.1971  0.8210  1.6998
 4031TIP3   OH212037   0.323   7.852   0.154 -0.1933  0.1113 -0.0144
 4031TIP3    H112038   0.275   7.835   0.073  1.8394 -1.1908 -0.9766
 4031TIP3    H212039   0.304   7.943   0.175  0.1653  0.8047 -2.6092
 4032TIP3   OH212040   7.314   5.602   3.033  0.2677 -0.2053  0.0703
 4032TIP3    H112041   7.355   5.668   3.089  0.2648  0.8431 -1.1411
 4032TIP3    H212042   7.232   5.643   3.004  0.6207 -0.4401 -1.2826
 4033TIP3   OH212043   6.070   4.632   4.676  0.3766  0.5062  0.1554
 4033TIP3    H112044   6.064   4.564   4.609 -3.8308  1.2203 -0.2854
 4033TIP3    H212045   6.095   4.711   4.628  2.6517 -0.0959  0.2864
 4034TIP3   OH212046   5.730   5.999   1.738 -0.1908 -0.0166  0.3760
 4034TIP3    H112047   5.782   5.930   1.696  1.2954  0.8386  0.7824
 4034TIP3    H212048   5.680   6.038   1.666  1.0564  0.3023 -0.3381
 4035TIP3   OH212049   5.838   6.026   1.256  0.4042  0.4793  0.1548
 4035TIP3    H112050   5.926   6.028   1.294  0.8817  0.3940 -0.9003
 4035TIP3    H212051   5.795   5.952   1.298  1.1842 -0.0965 -0.0488
 4036TIP3   OH212052   0.300   4.842   0.966  0.1320 -0.3552  0.2002
 4036TIP3    H112053   0.272   4.750   0.967  2.1143 -0.9820  1.2430
 4036TIP3    H212054   0.395   4.838   0.957  0.4138  1.5392  1.9685
 4037TIP3   OH212055   0.878   1.013   6.580  0.6182  0.5177 -0.6370
 4037TIP3    H112056   0.894   1.040   6.670 -1.3962 -1.1725  0.2588
 4037TIP3    H212057   0.845   0.923   6.587 -1.3026  1.0023 -2.9379
 4038TIP3   OH212058   0.439   2.831   2.624  0.0843  0.3742  0.1831
 4038TIP3    H112059   0.490   2.862   2.699 -3.3885  1.4260  2.2309
 4038TIP3    H212060   0.464   2.890   2.553  0.6488  1.8181  1.5403
 4039TIP3   OH212061   8.445   2.758   1.929 -0.2520 -0.3861 -0.3487
 4039TIP3    H112062   8.455   2.789   2.019  0.4006 -0.0610 -0.5292
 4039TIP3    H212063   8.522   2.792   1.883 -0.9617  0.0969 -1.2078
 4040TIP3   OH212064   6.962   4.272   1.776 -0.3774  0.2076  0.6542
 4040TIP3    H112065   6.907   4.244   1.849 -1.4505  1.7971  0.4845
 4040TIP3    H212066   6.971   4.193   1.722 -1.5645 -0.3707  1.2714
 4041TIP3   OH212067   7.225   5.976   1.412  0.2403  0.4094 -0.3239
 4041TIP3    H112068   7.179   6.011   1.487 -2.3076 -0.9937 -1.1712
 4041TIP3    H212069   7.204   6.037   1.340 -0.6358 -0.4272 -0.7928
 4042TIP3   OH212070   0.258   5.736   3.206  0.0780  0.0915  0.0623
 4042TIP3    H112071   0.204   5.812   3.226 -1.2419 -0.5064 -1.1846
 4042TIP3    H212072   0.301   5.758   3.123  1.4495  0.3865  0.8296
 4043TIP3   OH212073   7.492   2.042   0.107  0.6707  0.3662  0.1616
 4043TIP3    H112074   7.566   1.983   0.117 -0.5740 -1.3003 -0.2420
 4043TIP3    H212075   7.513   2.094   0.029  1.5218  0.0761  0.1940
 4044TIP3   OH212076   8.016   5.489   0.653 -1.1753 -0.0425  0.0516
 4044TIP3    H112077   8.012   5.457   0.563 -0.8562  1.0836 -0.3687
 4044TIP3    H212078   7.942   5.446   0.697 -0.2448 -2.0405 -0.2556
 4045TIP3   OH212079   0.591   1.841   2.256  0.2534  0.4201 -0.1490
 4045TIP3    H112080   0.665   1.854   2.314 -0.2123 -0.3266  0.6225
 4045TIP3    H212081   0.624   1.785   2.186  0.0259 -1.1936  1.0082
 4046TIP3   OH212082   7.570   3.420   3.038  0.0899  0.0323  0.0623
 4046TIP3    H112083   7.657   3.414   3.079  0.4024  1.3263 -0.3948
 4046TIP3    H212084   7.539   3.507   3.062 -1.3529 -0.6489  0.7231
 4047TIP3   OH212085   0.069   2.467   1.439  0.1050  0.6320  0.0771
 4047TIP3    H112086   0.018   2.405   1.492  0.6163  2.0184  2.2701
 4047TIP3    H212087   0.044   2.447   1.349  0.3106 -2.7987  0.7091
 4048TIP3   OH212088   0.847   4.413   1.773  0.3729 -0.1325  0.3934
 4048TIP3    H112089   0.865   4.497   1.815  0.3029 -0.3762  0.9172
 4048TIP3    H212090   0.801   4.436   1.692 -0.3874  0.2946  0.9383
 4049TIP3   OH212091   7.043   5.430   2.302 -0.5519  0.2348  0.3942
 4049TIP3    H112092   7.019   5.404   2.213  1.8031  1.7733 -0.7479
 4049TIP3    H212093   7.024   5.524   2.305  0.9898  0.5472  0.9303
 4050TIP3   OH212094   0.054   2.394   3.225 -0.1943 -0.3357  0.1210
 4050TIP3    H112095   0.071   2.475   3.177 -0.4347 -1.2418 -1.5284
 4050TIP3    H212096   0.059   2.325   3.159 -2.2151 -1.4497  1.0618
 4051TIP3   OH212097   7.268   4.797   1.766  0.3199  0.0257  0.0312
 4051TIP3    H112098   7.193   4.815   1.823 -0.6351  0.3740 -1.2879
 4051TIP3    H212099   7.268   4.702   1.756 -0.0681  0.0355 -0.0951
 4052TIP3   OH212100   1.775   3.365   1.113 -0.0464  0.8580  0.2033
 4052TIP3    H112101   1.683   3.373   1.087 -0.3310 -0.0045  0.9476
 4052TIP3    H212102   1.786   3.429   1.183 -0.1755  0.6771  0.3873
 4053TIP3   OH212103   7.885   5.233   1.614 -0.1751  0.0956 -0.1281
 4053TIP3    H112104   7.932   5.178   1.677  1.9327 -1.1167 -2.6272
 4053TIP3    H212105   7.949   5.298   1.586 -0.8335  0.1733 -1.5177
 4054TIP3   OH212106   7.212   4.904   4.144 -0.1792  0.8778  0.2429
 4054TIP3    H112107   7.257   4.855   4.212  0.3885 -0.0466 -0.7917
 4054TIP3    H212108   7.121   4.875   4.149  0.2538 -0.6913 -0.7146
 4055TIP3   OH212109   1.548   5.732   2.282  0.0284 -0.3508  0.1193
 4055TIP3    H112110   1.585   5.768   2.201  2.1794 -0.2289  1.1404
 4055TIP3    H212111   1.477   5.675   2.251  0.1762  0.4378 -1.7981
 4056TIP3   OH212112   0.923   3.388   2.967 -0.1702 -0.6549 -0.2118
 4056TIP3    H112113   0.964   3.472   2.942 -1.2804  0.0744  0.3794
 4056TIP3    H212114   0.853   3.413   3.026  1.0935 -2.1947  2.0113
 4057TIP3   OH212115   6.770   3.574   3.325  0.3904 -0.2647  0.6191
 4057TIP3    H112116   6.830   3.500   3.323  0.8229  0.0945  0.2347
 4057TIP3    H212117   6.683   3.534   3.328  0.6698 -0.7831  1.9465
 4058TIP3   OH212118   5.313   4.033   1.269 -0.1841 -0.3954 -0.7585
 4058TIP3    H112119   5.284   4.015   1.180 -0.1070 -1.3671 -0.5955
 4058TIP3    H212120   5.311   3.948   1.313 -2.9326  0.4935  0.9904
 4059TIP3   OH212121   0.563   6.798   2.013  0.1311  0.1812 -0.0327
 4059TIP3    H112122   0.569   6.868   1.948  0.1500 -0.7089 -1.0046
 4059TIP3    H212123   0.470   6.795   2.037 -0.0178 -0.0103 -0.6176
 4060TIP3   OH212124   7.906   4.128   1.706  0.2328 -0.2019  0.3243
 4060TIP3    H112125   7.857   4.176   1.639 -0.6462  0.4834  1.4451
 4060TIP3    H212126   7.865   4.041   1.707 -0.6313  0.2066  0.8967
 4061TIP3   OH212127   4.652   5.411   1.992 -0.2171  0.0862  0.0027
 4061TIP3    H112128   4.609   5.495   1.976 -0.0030  0.0524 -0.7949
 4061TIP3    H212129   4.609   5.350   1.931 -2.4413 -1.0866  2.6588
 4062TIP3   OH212130   8.105   4.041   2.567 -0.2848 -0.1478  0.0444
 4062TIP3    H112131   8.053   4.060   2.645 -0.0019  0.3460  0.1137
 4062TIP3    H212132   8.190   4.081   2.585 -0.6422  1.1503 -1.0915
 4063TIP3   OH212133   4.758   2.819   3.199  0.2779  0.6107  0.2766
 4063TIP3    H112134   4.715   2.836   3.283 -0.6632  0.3664 -0.1492
 4063TIP3    H212135   4.709   2.746   3.161  1.1290  0.2719 -0.1838
 4064TIP3   OH212136   0.038   4.844   6.238 -0.0948  0.5336  0.1643
 4064TIP3    H112137  -0.006   4.823   6.320  0.8089  1.1370  0.8227
 4064TIP3    H212138   0.115   4.787   6.237 -1.1479 -0.9114 -1.2402
 4065TIP3   OH212139   6.509   4.195   1.439 -0.1125 -0.9989 -0.0835
 4065TIP3    H112140   6.580   4.238   1.392  1.0168 -0.1560  2.3143
 4065TIP3    H212141   6.445   4.264   1.457 -0.3168 -1.2150  0.0324
 4066TIP3   OH212142   7.072   2.939   2.440 -0.0059  0.4100  0.1272
 4066TIP3    H112143   7.108   2.908   2.357 -0.8566  0.7490 -0.3780
 4066TIP3    H212144   7.071   3.035   2.432  1.2522  0.5130  1.0971
 4067TIP3   OH212145   0.700   3.698   4.146  0.1534  0.2338 -0.0840
 4067TIP3    H112146   0.783   3.723   4.106  1.0922  0.3371  1.8537
 4067TIP3    H212147   0.651   3.653   4.077  2.2465 -0.7747 -0.9297
 4068TIP3   OH212148   6.189   3.758   0.396  0.2606 -0.4822 -0.3852
 4068TIP3    H112149   6.280   3.768   0.424 -0.3464 -0.9379  1.9251
 4068TIP3    H212150   6.162   3.846   0.370  1.3973 -0.3663 -1.2059
 4069TIP3   OH212151   1.027   3.987   1.378  0.0654  0.2719  0.1560
 4069TIP3    H112152   0.976   3.983   1.459 -0.8230 -2.6713 -0.4654
 4069TIP3    H212153   0.961   3.984   1.308  0.8952  0.9499 -0.6638
 4070TIP3   OH212154   8.026   3.622   1.540 -0.1554  0.2898  0.2602
 4070TIP3    H112155   8.090   3.620   1.611  0.2612 -0.1634 -0.1188
 4070TIP3    H212156   8.012   3.530   1.519 -0.2859  0.4232 -0.2313
 4071TIP3   OH212157   6.776   5.402   1.660  0.0594  0.1290  0.2144
 4071TIP3    H112158   6.709   5.391   1.592  2.7417  3.8433 -3.3201
 4071TIP3    H212159   6.850   5.351   1.628  1.4721  2.2099  0.0991
 4072TIP3   OH212160   7.096   5.103   2.234 -0.2736 -0.0768 -0.5410
 4072TIP3    H112161   7.156   5.153   2.290 -0.0985 -1.4900  0.5855
 4072TIP3    H212162   7.052   5.168   2.180 -1.4261  1.4867  2.2028
 4073TIP3   OH212163   7.795   2.541   1.014 -0.0527 -0.6811  0.3249
 4073TIP3    H112164   7.854   2.476   0.976  1.0363 -0.9514  2.4231
 4073TIP3    H212165   7.707   2.508   0.994  0.4950 -2.3039  0.5339
 4074TIP3   OH212166   6.837   5.249   1.188  0.7200 -0.5100 -0.1888
 4074TIP3    H112167   6.874   5.322   1.237  2.1577 -1.0252 -0.4977
 4074TIP3    H212168   6.912   5.205   1.148 -0.2384 -1.4061 -1.0516
 4075TIP3   OH212169   2.399   7.188   6.910  0.5256  0.0277  0.0170
 4075TIP3    H112170   2.462   7.117   6.897  2.0574  0.9320  2.1606
 4075TIP3    H212171   2.328   7.148   6.960  0.8946 -0.2668  0.3152
 4076TIP3   OH212172   7.851   2.749   2.409  0.3816  0.1615  0.3746
 4076TIP3    H112173   7.794   2.734   2.334 -1.6880  0.0709  1.9107
 4076TIP3    H212174   7.881   2.661   2.434  3.2774  0.4028 -1.9295
 4077TIP3   OH212175   1.654   4.089   3.266 -0.2035  0.6412  0.1428
 4077TIP3    H112176   1.691   4.011   3.307  1.4978  2.2981  1.8808
 4077TIP3    H212177   1.656   4.156   3.334  1.3826  3.1024 -2.2024
 4078TIP3   OH212178   6.770   4.617   0.166 -0.3664  0.0790 -0.3573
 4078TIP3    H112179   6.843   4.562   0.134 -1.1963 -0.2482 -1.7230
 4078TIP3    H212180   6.776   4.696   0.114 -0.6488  0.2917 -0.0616
 4079TIP3   OH212181   1.134   3.418   3.288 -0.2961  0.0358  0.2303
 4079TIP3    H112182   1.055   3.467   3.314 -0.1633  0.1005  0.5155
 4079TIP3    H212183   1.115   3.387   3.199 -0.2324  0.9215 -0.0929
 4080TIP3   OH212184   8.454   2.787   3.491  0.4685 -0.3149  0.7148
 4080TIP3    H112185   8.419   2.702   3.518 -1.1584  1.2109  3.6814
 4080TIP3    H212186   8.387   2.822   3.432  1.1527 -1.0700 -0.5300
 4081TIP3   OH212187   8.213   2.454   2.467 -0.0925  0.6381  0.2410
 4081TIP3    H112188   8.138   2.411   2.426  0.2746 -0.5544  0.8169
 4081TIP3    H212189   8.271   2.475   2.394  1.3703 -3.0474  0.2690
 4082TIP3   OH212190   2.318   1.142   6.674  0.0561 -0.4685 -0.0141
 4082TIP3    H112191   2.385   1.075   6.685 -0.9627 -1.3403  0.9956
 4082TIP3    H212192   2.341   1.187   6.592  2.4073 -0.1171  0.8088
 4083TIP3   OH212193   7.732   4.572   0.237  0.0080  0.4949  0.0547
 4083TIP3    H112194   7.704   4.600   0.324 -2.2685  0.7694 -0.7400
 4083TIP3    H212195   7.751   4.479   0.247  0.2528  0.6312  0.9496
 4084TIP3   OH212196   7.574   5.931   1.750 -0.0293 -0.3897  0.2203
 4084TIP3    H112197   7.582   5.924   1.845  0.5759 -1.1281  0.1237
 4084TIP3    H212198   7.605   6.019   1.730  0.9595 -0.6436  0.5983
 4085TIP3   OH212199   1.191   3.783   2.682  0.4023  0.2633 -0.5607
 4085TIP3    H112200   1.236   3.865   2.701  1.5680 -0.0933 -1.7339
 4085TIP3    H212201   1.126   3.807   2.615 -0.5105  0.5822  0.4260
 4086TIP3   OH212202   6.266   3.422   3.518 -0.1089  0.2278  0.3119
 4086TIP3    H112203   6.336   3.414   3.583 -0.9261  0.2582  1.2065
 4086TIP3    H212204   6.187   3.438   3.570 -0.5176  1.8138 -0.7729
 4087TIP3   OH212205   7.398   3.168   1.352  0.0375  0.6037 -0.0770
 4087TIP3    H112206   7.314   3.132   1.324  0.8799 -1.4463 -0.0610
 4087TIP3    H212207   7.462   3.131   1.291  1.1080  1.0393  0.7559
 4088TIP3   OH212208   7.502   4.307   1.826 -0.0176 -0.1671  0.1167
 4088TIP3    H112209   7.531   4.226   1.786 -0.1992 -1.3303  2.2693
 4088TIP3    H212210   7.407   4.299   1.831 -0.2474  1.1248 -1.6099
 4089TIP3   OH212211   0.633   4.027   3.478  0.1276  0.1431  0.2805
 4089TIP3    H112212   0.572   3.954   3.472 -0.4792  0.5593  1.4408
 4089TIP3    H212213   0.686   4.020   3.397 -1.1067 -0.4917 -0.4846
 4090TIP3   OH212214   0.985   5.448   2.545 -0.8154 -0.1460 -0.0717
 4090TIP3    H112215   1.069   5.452   2.591 -1.6941 -1.6642  1.7689
 4090TIP3    H212216   1.005   5.401   2.464  0.0071 -1.1452  0.6786
 4091TIP3   OH212217   5.338   2.478   5.110 -0.3754 -0.5002 -0.3264
 4091TIP3    H112218   5.294   2.563   5.103  0.7832  0.1158 -0.2132
 4091TIP3    H212219   5.267   2.414   5.106 -1.3760  0.5105  0.8312
 4092TIP3   OH212220   1.067   4.625   0.442  0.2933  0.0226 -0.0897
 4092TIP3    H112221   1.077   4.616   0.537 -0.1119  3.3850  0.3529
 4092TIP3    H212222   1.135   4.568   0.405 -0.6316 -2.6115  2.1476
 4093TIP3   OH212223   7.626   6.206   1.731 -0.1868  0.7862 -0.5700
 4093TIP3    H112224   7.719   6.220   1.752 -0.2298  0.6844 -0.3099
 4093TIP3    H212225   7.579   6.241   1.807 -0.2594 -2.0099  0.7263
 4094TIP3   OH212226   7.611   2.900   3.387  0.4860 -0.0154 -0.3582
 4094TIP3    H112227   7.609   2.821   3.440  3.7633  0.0568 -0.0314
 4094TIP3    H212228   7.631   2.869   3.298  1.7677  0.4364 -0.2308
 4095TIP3   OH212229   7.054   6.216   2.948  0.1548 -0.8748  0.3912
 4095TIP3    H112230   7.085   6.135   2.908  0.1521 -0.5753 -0.2141
 4095TIP3    H212231   7.068   6.203   3.042  0.9771 -1.2260  0.2248
 4096TIP3   OH212232   0.416   3.459   3.484  0.3990  0.4824 -0.2784
 4096TIP3    H112233   0.327   3.431   3.467  0.1668  0.7546  0.4622
 4096TIP3    H212234   0.410   3.554   3.493  0.9991  0.6632 -1.6798
 4097TIP3   OH212235   7.758   4.971   1.188 -0.3852 -0.0823  0.0478
 4097TIP3    H112236   7.737   5.000   1.277 -1.9225  0.7478 -0.5734
 4097TIP3    H212237   7.689   4.909   1.166  0.3512 -0.7697 -0.3407
 4098TIP3   OH212238   0.331   2.079   1.527 -0.0204  0.6696 -0.0633
 4098TIP3    H112239   0.325   2.021   1.604 -0.2623 -1.1883 -1.4553
 4098TIP3    H212240   0.419   2.116   1.532  0.5434 -0.6859  0.2556
 4099TIP3   OH212241   7.269   3.405   2.721 -0.0450  0.7162  0.1935
 4099TIP3    H112242   7.203   3.340   2.742 -1.1382  2.0230  0.8539
 4099TIP3    H212243   7.352   3.365   2.749 -0.5387 -0.9487 -0.7121
 4100TIP3   OH212244   6.366   5.629   0.759 -0.4238 -0.3101 -0.7486
 4100TIP3    H112245   6.364   5.587   0.844  0.6945  0.1267 -0.4988
 4100TIP3    H212246   6.299   5.697   0.764  1.0441  1.0947  0.5243
 4101TIP3   OH212247   0.037   3.239   0.922 -0.0710  0.3471  0.0287
 4101TIP3    H112248  -0.035   3.256   0.862 -0.7177  0.6926  0.8884
 4101TIP3    H212249   0.036   3.144   0.934 -0.8520  0.4177  0.5959
 4102TIP3   OH212250   7.198   5.017   1.593  0.1436  0.1862 -0.0027
 4102TIP3    H112251   7.118   5.056   1.628 -0.3379  0.0770 -0.9848
 4102TIP3    H212252   7.236   4.971   1.668 -0.7873  0.1177  0.4349
 4103TIP3   OH212253   6.598   5.358   1.090 -0.5569 -0.1224  0.5079
 4103TIP3    H112254   6.629   5.366   1.000 -0.6399 -1.4585  0.3594
 4103TIP3    H212255   6.664   5.305   1.135 -0.7304  0.1791  1.1293
 4104TIP3   OH212256   6.882   6.181   2.196 -0.2918 -0.0306 -0.9707
 4104TIP3    H112257   6.976   6.165   2.186  0.3047  0.9743  2.4034
 4104TIP3    H212258   6.847   6.097   2.226 -0.3829 -0.2065 -1.5519
 4105TIP3   OH212259   0.778   5.615   1.789 -0.1197 -0.2362  0.1137
 4105TIP3    H112260   0.858   5.667   1.788  1.0913 -2.0758 -1.4713
 4105TIP3    H212261   0.747   5.621   1.879  0.0571  3.0704  0.0121
 4106TIP3   OH212262   6.887   2.458   2.149 -0.2522  0.4222 -0.4311
 4106TIP3    H112263   6.810   2.462   2.093  0.4470 -1.2803 -1.5687
 4106TIP3    H212264   6.951   2.407   2.099  1.3622  1.1827  0.7889
 4107TIP3   OH212265   0.924   4.286   3.992  0.0177  0.0169  0.1089
 4107TIP3    H112266   0.923   4.190   3.994  1.3504  0.0246  2.4235
 4107TIP3    H212267   0.861   4.309   3.924 -1.1647 -2.4806  0.3082
 4108TIP3   OH212268   5.888   4.580   1.928  0.1817  0.5497  0.1942
 4108TIP3    H112269   5.950   4.572   2.000 -1.3367 -0.4467  1.4357
 4108TIP3    H212270   5.839   4.660   1.948 -0.7495 -0.1323  0.7086
 4109TIP3   OH212271   1.121   7.634   6.899 -0.2697 -0.0808 -0.7926
 4109TIP3    H112272   1.092   7.672   6.816  1.9200  1.2602 -0.9721
 4109TIP3    H212273   1.054   7.661   6.962 -1.2936 -0.0593 -1.8723
 4110TIP3   OH212274   6.164   0.327   6.795  0.1418 -0.0434  0.0109
 4110TIP3    H112275   6.249   0.369   6.783  0.4095 -0.1937  1.3708
 4110TIP3    H212276   6.184   0.234   6.802  0.0061  0.0569  1.7782
 4111TIP3   OH212277   7.111   2.253   2.160  0.1137  0.1337  0.2363
 4111TIP3    H112278   7.161   2.256   2.079  0.1485  0.6691  0.2775
 4111TIP3    H212279   7.176   2.239   2.228  0.1987  0.7336  0.2796
 4112TIP3   OH212280   7.639   2.308   2.019  0.1586 -0.1475 -0.1409
 4112TIP3    H112281   7.633   2.335   1.927 -1.0158 -1.0036 -0.3214
 4112TIP3    H212282   7.589   2.375   2.067 -0.8308 -0.7394 -0.3381
 4113TIP3   OH212283   7.847   2.787   0.871 -0.2385 -0.4911 -0.0172
 4113TIP3    H112284   7.793   2.848   0.923  1.4289  1.6538 -0.7106
 4113TIP3    H212285   7.836   2.702   0.914  2.3363  1.4517  4.9667
 4114TIP3   OH212286   7.065   2.998   3.098 -0.7263 -0.1340  0.1552
 4114TIP3    H112287   7.006   3.073   3.106 -1.4386 -0.9357  2.7055
 4114TIP3    H212288   7.152   3.036   3.094 -1.2349  0.9400 -1.1620
 4115TIP3   OH212289   8.340   5.176   0.179 -0.5211 -0.3132 -0.0339
 4115TIP3    H112290   8.273   5.227   0.225  0.0690  1.8376 -1.5012
 4115TIP3    H212291   8.369   5.111   0.243 -1.5701  0.9593  1.7605
 4116TIP3   OH212292   6.453   1.770   2.058  0.0909 -0.7383  0.3560
 4116TIP3    H112293   6.527   1.715   2.083  1.1729 -0.0993 -1.2856
 4116TIP3    H212294   6.391   1.711   2.016  0.5361 -0.9658  0.0199
 4117TIP3   OH212295   8.221   1.933   2.010 -0.5700 -0.4698 -0.5549
 4117TIP3    H112296   8.187   1.985   1.937 -1.1082 -0.3501 -0.2245
 4117TIP3    H212297   8.185   1.976   2.088  0.5923 -0.1677 -0.1873
 4118TIP3   OH212298   8.210   3.841   1.742  0.7885 -0.1043  0.5661
 4118TIP3    H112299   8.289   3.867   1.789  1.4424  1.6919 -1.4445
 4118TIP3    H212300   8.196   3.911   1.678 -2.0883 -0.7075  0.4716
 4119TIP3   OH212301   6.615   1.674   0.026  0.3021  0.2210 -0.0788
 4119TIP3    H112302   6.527   1.638   0.010  0.5885 -0.2553 -0.6032
 4119TIP3    H212303   6.600   1.766   0.046 -0.1200  0.8414 -2.9340
 4120TIP3   OH212304   7.549   4.045   1.761  0.6192 -0.4086 -0.0430
 4120TIP3    H112305   7.569   3.968   1.814 -2.6360  0.4684  2.6345
 4120TIP3    H212306   7.481   4.016   1.701 -0.2377  0.2221  0.6126
 4121TIP3   OH212307   3.654   1.383   6.226  0.6036 -0.1969 -0.3783
 4121TIP3    H112308   3.672   1.346   6.140 -1.6277  1.8981 -1.7983
 4121TIP3    H212309   3.705   1.465   6.228 -0.7807  0.6810 -0.4611
 4122TIP3   OH212310   5.759   4.140   2.137 -0.4453 -0.1115 -0.1048
 4122TIP3    H112311   5.855   4.141   2.140 -0.4775  1.0457  0.6287
 4122TIP3    H212312   5.735   4.220   2.092 -1.0885 -0.1873  0.1016
 4123TIP3   OH212313   7.897   3.621   0.943  0.1095  0.1608 -0.0135
 4123TIP3    H112314   7.903   3.583   1.030  1.3250  0.8353  0.2015
 4123TIP3    H212315   7.913   3.714   0.955  0.1043  0.2921 -0.9248
 4124TIP3   OH212316   1.210   5.512   5.913 -0.0753  0.5188 -0.0465
 4124TIP3    H112317   1.155   5.532   5.837  1.7921  1.0074 -1.3244
 4124TIP3    H212318   1.220   5.417   5.912 -1.0282  0.4066  0.3122
 4125TIP3   OH212319   0.576   5.438   3.642 -0.0796  0.1889 -0.1933
 4125TIP3    H112320   0.504   5.477   3.692  0.5417 -0.5509  1.3013
 4125TIP3    H212321   0.616   5.512   3.595  0.0677  1.0848  1.3213
 4126TIP3   OH212322   8.295   4.906   2.601 -0.4372 -1.1684  0.4845
 4126TIP3    H112323   8.325   4.990   2.637 -1.6444 -0.7663  0.5568
 4126TIP3    H212324   8.347   4.840   2.648  0.6516 -0.4642  0.2975
 4127TIP3   OH212325   7.772   3.680   3.049  0.1275  0.0665 -0.2039
 4127TIP3    H112326   7.677   3.687   3.041  0.0955  0.9299  0.7678
 4127TIP3    H212327   7.788   3.588   3.065 -0.4568 -0.2738 -1.5073
 4128TIP3   OH212328   7.700   5.355   3.032 -0.1853 -0.0246 -0.4167
 4128TIP3    H112329   7.618   5.331   2.988 -0.1383 -1.6546  0.3508
 4128TIP3    H212330   7.693   5.315   3.119  1.5663 -0.4370 -0.4580
 4129TIP3   OH212331   6.952   2.774   4.119  0.7151  0.5272  0.1374
 4129TIP3    H112332   6.903   2.851   4.148  2.3885  0.7946  2.4534
 4129TIP3    H212333   6.890   2.702   4.122  0.3975  0.8851  2.8801
 4130TIP3   OH212334   3.336   1.711   5.993 -0.0826  0.4054 -0.6194
 4130TIP3    H112335   3.362   1.623   6.019  0.3822 -0.2230 -3.0386
 4130TIP3    H212336   3.261   1.698   5.935 -1.0403  1.7235  0.2867
 4131TIP3   OH212337   1.330   7.466   6.788 -0.2150  0.0823  0.2548
 4131TIP3    H112338   1.318   7.432   6.699 -0.3268  0.7214  0.0248
 4131TIP3    H212339   1.254   7.523   6.803  0.2686  0.6927  0.4216
 4132TIP3   OH212340   7.423   5.355   1.007  0.4598  0.6241  0.2266
 4132TIP3    H112341   7.445   5.279   1.062 -1.5848 -0.2891 -0.1878
 4132TIP3    H212342   7.376   5.414   1.066 -1.0558 -0.0111 -0.3452
 4133TIP3   OH212343   0.434   5.208   4.232 -0.7082  0.1490  0.4214
 4133TIP3    H112344   0.498   5.145   4.264  2.0800  1.9612 -1.2915
 4133TIP3    H212345   0.423   5.185   4.139 -2.6646 -0.2146  0.7284
 4134TIP3   OH212346   6.226   3.962   0.910  0.1612  0.4665  0.3045
 4134TIP3    H112347   6.142   4.007   0.923 -0.7106 -0.9092 -0.3999
 4134TIP3    H212348   6.218   3.881   0.960  0.5706 -0.2454 -0.7547
 4135TIP3   OH212349   0.417   3.863   1.249  0.3836  0.4846 -0.0729
 4135TIP3    H112350   0.349   3.812   1.293  0.2957  0.6709  0.0081
 4135TIP3    H212351   0.498   3.816   1.270  0.3040  0.3776  0.0013
 4136TIP3   OH212352   7.173   3.252   0.713 -0.1343  0.1704  0.0728
 4136TIP3    H112353   7.165   3.339   0.751 -0.8710 -0.1773  0.7087
 4136TIP3    H212354   7.268   3.237   0.706 -0.0007  0.4042  1.3634
 4137TIP3   OH212355   6.707   0.544   6.927 -0.1583 -0.3262  0.2536
 4137TIP3    H112356   6.755   0.589   6.997  1.9704 -0.8652 -0.7969
 4137TIP3    H212357   6.654   0.612   6.886  1.0885  0.7081  0.3096
 4138TIP3   OH212358   7.480   5.798   2.774 -0.4971  0.0929  0.1620
 4138TIP3    H112359   7.531   5.745   2.835 -0.0750  0.8688  0.4948
 4138TIP3    H212360   7.497   5.888   2.801  0.3901  0.4838 -1.6546
 4139TIP3   OH212361   0.159   4.068   1.280  1.0680  0.3678  0.1506
 4139TIP3    H112362   0.113   3.990   1.251  1.3145  0.8584 -1.5992
 4139TIP3    H212363   0.239   4.071   1.227  1.4311  1.3965  0.7306
 4140TIP3   OH212364   7.897   4.254   2.193  0.2489 -0.4003 -0.3903
 4140TIP3    H112365   7.891   4.339   2.148  1.5812 -1.1217 -2.0010
 4140TIP3    H212366   7.890   4.189   2.122 -2.5074 -1.7054  0.9948
 4141TIP3   OH212367   7.205   0.579   1.645 -0.2150  0.7584 -0.3392
 4141TIP3    H112368   7.186   0.487   1.629 -0.9073  1.1923 -2.2336
 4141TIP3    H212369   7.251   0.608   1.566 -1.1696  2.3543 -0.3424
 4142TIP3   OH212370   8.457   4.701   2.116  0.2165 -0.0608 -0.0111
 4142TIP3    H112371   8.381   4.692   2.058  0.2562  1.7878 -0.4008
 4142TIP3    H212372   8.419   4.729   2.199  0.3911 -0.0203  0.0547
 4143TIP3   OH212373   0.049   1.675   2.334 -0.6329  0.5154  0.2219
 4143TIP3    H112374  -0.011   1.600   2.336 -0.2400  0.1435 -1.4905
 4143TIP3    H212375   0.004   1.740   2.280  0.7167  0.0506 -1.4820
 4144TIP3   OH212376   7.458   3.242   0.694  1.1369  0.0048  0.1363
 4144TIP3    H112377   7.519   3.174   0.724  2.2757  0.9379 -0.0279
 4144TIP3    H212378   7.468   3.313   0.757  1.0999  0.6421 -0.5612
 4145TIP3   OH212379   8.308   3.597   1.961  0.3985  0.0704 -0.1918
 4145TIP3    H112380   8.401   3.585   1.944  0.2324  0.9599 -1.8782
 4145TIP3    H212381   8.304   3.669   2.023  0.8562 -0.5160  0.5320
 4146TIP3   OH212382   0.193   2.535   1.683 -0.4720 -0.3718 -0.5147
 4146TIP3    H112383   0.187   2.630   1.693 -1.6481 -0.4051 -0.8458
 4146TIP3    H212384   0.163   2.519   1.593  0.9783 -0.9362 -0.9146
 4147TIP3   OH212385   7.235   4.227   1.871  0.1707 -0.4594  0.2363
 4147TIP3    H112386   7.203   4.194   1.955 -0.7326 -1.5029 -0.4987
 4147TIP3    H212387   7.156   4.236   1.818  0.6685  0.7650 -0.3106
 4148TIP3   OH212388   8.282   2.362   2.714 -0.0126 -0.1199  0.4217
 4148TIP3    H112389   8.337   2.287   2.694  0.6214  0.4348  0.0660
 4148TIP3    H212390   8.271   2.408   2.631  2.3142  1.9695  1.1892
 4149TIP3   OH212391   8.276   3.288   1.963  0.0913  0.1315 -0.4351
 4149TIP3    H112392   8.240   3.353   1.904  1.7569 -0.2361 -1.8932
 4149TIP3    H212393   8.266   3.205   1.917  0.4016 -0.3133  0.2833
 4150TIP3   OH212394   1.504   1.811   0.667 -0.9739  0.3282 -0.3446
 4150TIP3    H112395   1.581   1.806   0.723 -2.2305  1.9707  1.6213
 4150TIP3    H212396   1.532   1.863   0.592 -0.4911  2.0107  0.9696
 4151TIP3   OH212397   0.667   1.621   2.033  0.3140  0.4563  0.1727
 4151TIP3    H112398   0.577   1.605   2.062  0.7042  1.5659  2.0390
 4151TIP3    H212399   0.693   1.540   1.990 -0.4137 -1.1096  2.6049
 4152TIP3   OH212400   7.938   4.570   0.563  0.4625  0.0662 -0.0572
 4152TIP3    H112401   7.851   4.607   0.550  0.1560 -0.4873  0.4664
 4152TIP3    H212402   7.958   4.527   0.480  0.8631  1.4834 -0.7125
 4153TIP3   OH212403   6.429   2.914   2.226  0.7739 -0.0085  0.2891
 4153TIP3    H112404   6.445   2.980   2.294  1.0904 -0.2104  0.4092
 4153TIP3    H212405   6.373   2.849   2.268 -0.3110  0.6639 -0.1120
 4154TIP3   OH212406   4.406   5.110   1.297  0.2785 -0.7645  0.1315
 4154TIP3    H112407   4.363   5.187   1.259  1.2033 -0.2641  0.0984
 4154TIP3    H212408   4.351   5.036   1.270  0.6140 -0.3593 -1.6762
 4155TIP3   OH212409   6.683   4.102   2.901 -0.3322  0.1535 -0.1353
 4155TIP3    H112410   6.702   4.196   2.896 -1.1361  0.3252  0.0323
 4155TIP3    H212411   6.594   4.097   2.936  0.0581 -0.6955  0.7570
 4156TIP3   OH212412   0.582   5.275   3.355  0.1667 -0.8015 -0.4940
 4156TIP3    H112413   0.601   5.186   3.386 -1.8717 -0.5011  1.7392
 4156TIP3    H212414   0.557   5.323   3.434 -0.2282  1.3756 -1.9037
 4157TIP3   OH212415   8.230   4.309   4.118 -0.2691 -0.0950  0.2287
 4157TIP3    H112416   8.254   4.398   4.144 -1.1192 -0.0260  0.7815
 4157TIP3    H212417   8.266   4.253   4.188 -0.5558 -0.1060  0.3675
 4158TIP3   OH212418   8.348   6.290   2.678 -0.3710 -0.0944 -0.4404
 4158TIP3    H112419   8.344   6.258   2.587 -0.3333 -0.0884 -0.4440
 4158TIP3    H212420   8.374   6.213   2.729 -0.2875 -0.0706 -0.4481
 4159TIP3   OH212421   0.961   4.346   1.222 -0.3728  0.2900 -0.2855
 4159TIP3    H112422   0.970   4.299   1.139 -0.4969 -1.2405  0.5645
 4159TIP3    H212423   0.869   4.374   1.224 -1.2713 -2.5453  0.8261
 4160TIP3   OH212424   0.466   4.969   1.302  0.1657  1.0999 -0.0843
 4160TIP3    H112425   0.381   4.925   1.296 -0.3233  2.0169  0.0590
 4160TIP3    H212426   0.493   4.983   1.211  0.1930  0.7716 -0.1289
 4161TIP3   OH212427   7.872   3.539   1.933 -0.1050 -0.5227  0.5889
 4161TIP3    H112428   7.923   3.505   2.007  0.4294  0.1125  0.5155
 4161TIP3    H212429   7.782   3.513   1.953  0.2263 -1.5743  0.7666
 4162TIP3   OH212430   6.162   5.157   1.923 -0.2903  0.2717 -0.2587
 4162TIP3    H112431   6.099   5.169   1.995 -0.2255  0.7006 -0.2708
 4162TIP3    H212432   6.232   5.219   1.942  1.6165 -2.2933  1.3602
 4163TIP3   OH212433   6.784   4.508   0.462 -0.4767 -0.6108 -0.4307
 4163TIP3    H112434   6.777   4.553   0.378  0.2306  0.2539 -0.0378
 4163TIP3    H212435   6.720   4.552   0.518  0.3724  0.0624  0.0187
 4164TIP3   OH212436   7.240   3.995   1.139 -0.0439  1.2697  0.1708
 4164TIP3    H112437   7.320   4.045   1.150 -0.2208  1.2270  1.7293
 4164TIP3    H212438   7.193   4.039   1.069  1.6994  0.8235 -1.3058
 4165TIP3   OH212439   8.176   3.021   1.647 -0.5683 -0.2114  0.3756
 4165TIP3    H112440   8.190   2.995   1.738  1.1050 -0.7797 -0.0183
 4165TIP3    H212441   8.122   2.951   1.610 -0.1932 -0.6253  0.6081
 4166TIP3   OH212442   7.478   0.407   2.421 -0.2206  0.7548  0.4214
 4166TIP3    H112443   7.515   0.445   2.501 -1.4598  1.2696  0.7609
 4166TIP3    H212444   7.552   0.403   2.360  1.2335 -1.4309  2.2120
 4167TIP3   OH212445   0.945   6.146   1.841 -0.3260 -0.2799  0.6917
 4167TIP3    H112446   0.900   6.229   1.855 -0.8182 -0.8082  2.3288
 4167TIP3    H212447   0.931   6.126   1.748  0.5984  1.9182  0.0505
 4168TIP3   OH212448   3.341   0.547   6.863  0.2221 -0.0059  0.1611
 4168TIP3    H112449   3.301   0.530   6.948  0.9021 -0.0207  0.4835
 4168TIP3    H212450   3.411   0.482   6.856  1.1667  0.9871  0.2678
 4169TIP3   OH212451   7.056   4.049   0.473 -0.1301 -0.2998  0.2567
 4169TIP3    H112452   6.974   4.091   0.448  0.8873  1.6821  0.1848
 4169TIP3    H212453   7.098   4.028   0.390  0.8114  1.4611  0.2637
 4170TIP3   OH212454   0.891   3.644   1.583 -0.8827  0.2305  0.3567
 4170TIP3    H112455   0.836   3.578   1.540 -1.2804  0.8475 -0.0921
 4170TIP3    H212456   0.915   3.605   1.667  0.8147 -1.4455 -0.8676
 4171TIP3   OH212457   4.194   5.480   1.591  0.8647  0.4343 -0.4020
 4171TIP3    H112458   4.169   5.537   1.519  0.1311 -1.9304 -2.1111
 4171TIP3    H212459   4.230   5.402   1.549  1.7598 -0.4170  1.8369
 4172TIP3   OH212460   6.755   7.511   2.543 -0.9823 -0.5145 -0.5037
 4172TIP3    H112461   6.740   7.580   2.477 -0.4281  0.7762  0.6832
 4172TIP3    H212462   6.707   7.436   2.510 -1.5722  0.4250 -1.8683
 4173TIP3   OH212463   7.986   4.686   0.937 -0.4183  0.2524 -0.0888
 4173TIP3    H112464   8.021   4.756   0.993 -1.7525 -0.0220  1.1095
 4173TIP3    H212465   8.038   4.609   0.961  0.0014  0.4707 -0.2911
 4174TIP3   OH212466   8.047   4.629   3.326  0.2407  0.5732  0.4968
 4174TIP3    H112467   7.961   4.598   3.355  0.3980 -0.2597  0.0841
 4174TIP3    H212468   8.077   4.686   3.397 -0.7690  1.1009  0.5168
 4175TIP3   OH212469   8.142   5.567   0.944  0.1879  0.0444 -0.3399
 4175TIP3    H112470   8.054   5.604   0.930  0.2240  0.9587  1.6090
 4175TIP3    H212471   8.201   5.640   0.928  0.3783  0.3424  1.6264
 4176TIP3   OH212472   7.907   6.258   4.301  0.1868 -0.0885 -0.0429
 4176TIP3    H112473   7.891   6.321   4.371  0.6548 -0.0288  0.0179
 4176TIP3    H212474   7.990   6.287   4.263 -0.3397  0.2029 -0.9737
 4177TIP3   OH212475   7.711   3.972   2.587  0.1492  0.1277  0.2209
 4177TIP3    H112476   7.771   3.981   2.661  0.1510  0.1178  0.2203
 4177TIP3    H212477   7.753   4.021   2.516 -1.8687  3.7163  1.4288
 4178TIP3   OH212478   1.412   7.162   6.286 -0.2904 -0.4808 -0.6073
 4178TIP3    H112479   1.386   7.132   6.199  1.1112 -0.2667 -1.1227
 4178TIP3    H212480   1.485   7.223   6.269 -1.2588  1.0418  0.5965
 4179TIP3   OH212481   6.035   1.489   2.495  0.1453  0.3825 -0.0612
 4179TIP3    H112482   6.100   1.418   2.496 -0.4735 -0.1878  1.1374
 4179TIP3    H212483   6.086   1.568   2.480  0.9826 -0.2021 -0.3162
 4180TIP3   OH212484   5.859   3.004   1.689  0.0324 -0.2869  0.0515
 4180TIP3    H112485   5.948   3.038   1.677 -0.0001 -0.0898  0.3573
 4180TIP3    H212486   5.833   3.036   1.775 -0.2836 -0.4623  0.0207
 4181TIP3   OH212487   6.714   4.699   1.099  0.0431 -0.5048 -0.0862
 4181TIP3    H112488   6.678   4.730   1.181  0.4643  0.7453 -0.3644
 4181TIP3    H212489   6.802   4.737   1.095  0.3636 -1.2871 -0.6900
 4182TIP3   OH212490   1.042   5.487   6.400  0.0296  0.6440 -0.2426
 4182TIP3    H112491   1.020   5.405   6.357  1.0834  0.3159 -0.1683
 4182TIP3    H212492   1.073   5.544   6.329  0.2703  0.6340 -0.1453
 4183TIP3   OH212493   6.543   5.252   1.800  0.2308  0.1184 -0.3972
 4183TIP3    H112494   6.610   5.219   1.860  0.2890 -2.4189 -1.7510
 4183TIP3    H212495   6.557   5.202   1.719 -3.8415 -1.2339 -0.4121
 4184TIP3   OH212496   3.838   5.171   1.127 -0.1151 -0.8050 -0.0581
 4184TIP3    H112497   3.819   5.079   1.108 -0.8328 -1.2661  2.6378
 4184TIP3    H212498   3.800   5.186   1.213  0.3856  1.9180 -0.2634
 4185TIP3   OH212499   8.379   1.697   2.077 -0.0067 -0.4468 -0.0237
 4185TIP3    H112500   8.319   1.762   2.042 -0.0657 -2.0753 -3.0851
 4185TIP3    H212501   8.323   1.629   2.114 -0.0230 -0.6056 -0.3342
 4186TIP3   OH212502   2.420   7.589   6.633  1.0039 -0.3112  0.4726
 4186TIP3    H112503   2.492   7.554   6.685 -0.1993 -1.1983  1.5662
 4186TIP3    H212504   2.358   7.624   6.697  0.7770  1.0815 -0.4869
 4187TIP3   OH212505   8.040   4.014   3.444 -0.0537 -0.4072 -0.0658
 4187TIP3    H112506   8.007   3.926   3.426 -0.8503  0.1381 -1.4068
 4187TIP3    H212507   7.969   4.072   3.415  0.8711  0.6996 -0.1339
 4188TIP3   OH212508   5.298   3.956   0.794 -0.4358 -0.5222 -0.1457
 4188TIP3    H112509   5.384   3.963   0.753  0.8399 -1.6222  2.2433
 4188TIP3    H212510   5.288   3.863   0.816 -1.4610 -0.1213  1.2009
 4189TIP3   OH212511   7.349   5.148   2.712  0.4728 -0.1704 -0.6058
 4189TIP3    H112512   7.444   5.153   2.719  0.5577 -0.1127 -1.7210
 4189TIP3    H212513   7.320   5.121   2.799  1.6280 -1.6491 -0.6470
 4190TIP3   OH212514   6.266   5.980   3.384  0.3527 -0.0389 -0.3283
 4190TIP3    H112515   6.181   5.984   3.339 -0.0358 -1.2125  0.2832
 4190TIP3    H212516   6.254   6.036   3.461 -0.1615 -0.9221  0.2349
 4191TIP3   OH212517   0.842   5.680   4.749 -0.3221 -0.0178 -0.3139
 4191TIP3    H112518   0.891   5.688   4.667 -1.2231 -1.8735 -1.0615
 4191TIP3    H212519   0.828   5.771   4.777  0.0264  0.6491 -2.1961
 4192TIP3   OH212520   8.034   6.642   2.598  0.8098  0.5961  0.6029
 4192TIP3    H112521   8.022   6.563   2.546 -0.3943  1.3601 -0.3050
 4192TIP3    H212522   8.126   6.640   2.623  1.9686  1.2337 -3.2936
 4193TIP3   OH212523   7.462   5.738   3.248 -0.2237  0.7290 -0.5345
 4193TIP3    H112524   7.389   5.744   3.311 -0.0258 -0.8525 -0.1533
 4193TIP3    H212525   7.460   5.822   3.202 -1.1814  1.4030  0.6990
 4194TIP3   OH212526   8.398   6.998   3.360 -0.3369 -0.5614 -0.1846
 4194TIP3    H112527   8.484   6.970   3.327 -0.5817  0.2454 -1.5519
 4194TIP3    H212528   8.398   6.972   3.452  1.8547  0.4854  0.1412
 4195TIP3   OH212529   8.055   6.533   2.030  0.3296 -0.1426 -0.2753
 4195TIP3    H112530   7.967   6.542   1.993 -0.6380  0.3387  2.0652
 4195TIP3    H212531   8.064   6.608   2.089  1.9796 -0.6516  0.1367
 4196TIP3   OH212532   3.557   4.130   5.923 -0.2473  0.2919 -0.6382
 4196TIP3    H112533   3.555   4.222   5.948  0.8950  0.7503 -2.1538
 4196TIP3    H212534   3.641   4.119   5.877  0.1926 -1.7953  0.6101
 4197TIP3   OH212535   8.036   5.071   3.027  0.1644 -0.4299  0.1763
 4197TIP3    H112536   7.960   5.016   3.007 -1.9484  2.6032 -0.4561
 4197TIP3    H212537   8.019   5.104   3.115  1.5945 -1.0383  0.6921
 4198TIP3   OH212538   1.545   5.585   3.818 -0.1522  0.5598 -0.8267
 4198TIP3    H112539   1.518   5.495   3.801 -2.2896  0.8973  0.5432
 4198TIP3    H212540   1.495   5.637   3.755 -1.3534  1.0371  0.4946
 4199TIP3   OH212541   1.654   5.749   2.900  0.0314  0.8085  0.1497
 4199TIP3    H112542   1.745   5.773   2.915  0.2539 -0.2321  0.5046
 4199TIP3    H212543   1.650   5.656   2.921 -0.9864  0.7160 -0.4241
 4200TIP3   OH212544   7.729   5.038   3.885 -0.3495 -0.0570 -0.7270
 4200TIP3    H112545   7.727   5.035   3.789  0.4474 -2.8004 -0.6905
 4200TIP3    H212546   7.822   5.028   3.908 -0.7557 -1.6059  0.3489
 4201TIP3   OH212547   1.718   5.033   4.685  0.0558 -0.3866 -0.2918
 4201TIP3    H112548   1.789   5.096   4.690  0.0020 -0.2353 -1.3043
 4201TIP3    H212549   1.643   5.084   4.653 -0.6852 -0.3969  1.3976
 4202TIP3   OH212550   0.824   7.425   3.821  0.0590 -0.0687 -0.0928
 4202TIP3    H112551   0.844   7.508   3.779 -1.8566 -0.9801 -2.9222
 4202TIP3    H212552   0.755   7.445   3.884  3.1674  1.3555  3.0729
 4203TIP3   OH212553   2.076   4.851   4.123  0.0855  0.4724 -0.1404
 4203TIP3    H112554   2.024   4.776   4.095 -0.6971  0.4881  1.2500
 4203TIP3    H212555   2.108   4.889   4.041 -0.7124 -0.5209 -0.9254
 4204TIP3   OH212556   2.566   4.462   3.929 -0.1478 -0.0424  0.5416
 4204TIP3    H112557   2.551   4.415   3.847  3.5401 -0.8121  0.2000
 4204TIP3    H212558   2.619   4.538   3.904 -2.9444  2.3300  1.6097
 4205TIP3   OH212559   0.048   6.489   4.176  0.0240 -0.3275  0.1102
 4205TIP3    H112560   0.079   6.477   4.086 -1.3735 -1.3417 -0.2470
 4205TIP3    H212561   0.057   6.403   4.216  3.4775  0.7557  1.8912
 4206TIP3   OH212562   2.820   0.507   1.777 -0.5780 -0.7062 -0.5288
 4206TIP3    H112563   2.801   0.500   1.683  1.0947 -1.4490 -0.8264
 4206TIP3    H212564   2.772   0.435   1.817 -0.1070 -1.2954 -1.0101
 4207TIP3   OH212565   8.325   6.411   5.166 -0.1735  0.6068 -0.3317
 4207TIP3    H112566   8.363   6.419   5.253  0.0570  1.4165 -0.5018
 4207TIP3    H212567   8.271   6.333   5.170 -0.6518  0.9925  0.7116
 4208TIP3   OH212568   0.403   5.643   0.364  0.2511  0.1934  0.3763
 4208TIP3    H112569   0.344   5.689   0.304  0.6642  1.4245  0.8940
 4208TIP3    H212570   0.420   5.706   0.434  2.1035 -0.1788  0.2899
 4209TIP3   OH212571   0.025   4.321   3.101 -0.0722 -0.4654  0.7269
 4209TIP3    H112572   0.020   4.261   3.026 -0.2800 -0.9922  1.1624
 4209TIP3    H212573  -0.006   4.269   3.175  2.3030 -0.6659  1.6183
 4210TIP3   OH212574   0.570   5.498   1.289  0.2517  0.1770 -0.4951
 4210TIP3    H112575   0.563   5.561   1.360  1.1090 -1.0363  0.6825
 4210TIP3    H212576   0.646   5.529   1.238  0.9129 -0.1059  0.3018
 4211TIP3   OH212577   1.212   6.104   1.961  0.7019 -0.0590 -0.1845
 4211TIP3    H112578   1.187   6.085   1.871  0.2803 -1.2180  0.1700
 4211TIP3    H212579   1.209   6.199   1.967 -0.9815 -0.0592 -0.9015
 4212TIP3   OH212580   1.656   5.915   1.066  0.2412  0.5215  0.1403
 4212TIP3    H112581   1.648   5.899   0.972 -0.8566  1.6704  0.0197
 4212TIP3    H212582   1.578   5.873   1.104  1.6385 -1.5958  0.7841
 4213TIP3   OH212583   1.192   6.020   3.583 -0.0729  0.1447  0.0577
 4213TIP3    H112584   1.237   6.103   3.567 -1.2231  0.4701 -1.6551
 4213TIP3    H212585   1.222   5.963   3.513  0.3174 -0.7451  0.9370
 4214TIP3   OH212586   1.531   6.998   0.747 -0.1081  0.1635  0.7959
 4214TIP3    H112587   1.571   6.947   0.817 -1.6206 -0.1182  1.4787
 4214TIP3    H212588   1.554   7.089   0.766  0.3275 -0.0049  1.0795
 4215TIP3   OH212589   7.526   6.327   2.244 -0.3983 -0.6010 -0.0394
 4215TIP3    H112590   7.518   6.271   2.321 -0.3490  1.4676  1.5035
 4215TIP3    H212591   7.615   6.361   2.248 -1.0532  1.1286  0.1222
 4216TIP3   OH212592   1.476   0.723   3.541 -0.1327 -0.3392  0.5445
 4216TIP3    H112593   1.493   0.766   3.457 -1.1874  0.0108  0.5030
 4216TIP3    H212594   1.560   0.725   3.586  0.5009 -0.7666 -0.6078
 4217TIP3   OH212595   1.711   3.448   3.708 -0.5429 -0.2462  0.3699
 4217TIP3    H112596   1.673   3.500   3.638 -1.2418 -1.4212 -0.1420
 4217TIP3    H212597   1.654   3.463   3.784  0.6135  1.5779  0.9181
 4218TIP3   OH212598   0.206   4.936   1.291 -0.3908  0.7790 -0.0854
 4218TIP3    H112599   0.176   4.974   1.373 -0.8344  0.4614 -0.1030
 4218TIP3    H212600   0.141   4.963   1.226  0.7300  2.2762 -0.6279
 4219TIP3   OH212601   0.828   0.097   5.608 -0.1650  0.4014 -0.6490
 4219TIP3    H112602   0.755   0.039   5.629  1.7194 -1.9382 -0.4302
 4219TIP3    H212603   0.902   0.062   5.656  1.6027  1.5511 -2.4378
 4220TIP3   OH212604   7.270   4.719   3.796  0.7890  0.5499  0.1640
 4220TIP3    H112605   7.206   4.745   3.730 -0.2606 -2.2262 -0.0084
 4220TIP3    H212606   7.327   4.657   3.751  2.5835  1.7154  0.7859
 4221TIP3   OH212607   0.304   3.986   3.642  0.0339  0.3355  0.6345
 4221TIP3    H112608   0.362   3.918   3.606 -0.7344  1.1152 -2.1608
 4221TIP3    H212609   0.217   3.946   3.641 -0.3811  1.2490 -0.7778
 4222TIP3   OH212610   1.320   6.467   3.728  0.0979 -0.3912 -0.0394
 4222TIP3    H112611   1.329   6.469   3.633 -2.1537 -0.1891 -0.2854
 4222TIP3    H212612   1.248   6.528   3.747  0.6522 -0.2696  1.8079
 4223TIP3   OH212613   8.377   5.749   2.096 -0.0671 -0.7130 -0.9239
 4223TIP3    H112614   8.306   5.686   2.083 -2.1980  1.3436  0.3278
 4223TIP3    H212615   8.373   5.807   2.020  0.4404 -0.7309 -0.9681
 4224TIP3   OH212616   1.500   3.859   1.619  0.0960 -0.5468 -0.7958
 4224TIP3    H112617   1.546   3.875   1.536 -1.5628 -0.8811 -1.7946
 4224TIP3    H212618   1.486   3.947   1.656 -1.0003 -0.2603 -1.8799
 4225TIP3   OH212619   8.334   4.915   3.028 -0.4182  0.1825  0.2469
 4225TIP3    H112620   8.293   4.828   3.036 -0.8472  0.2881 -0.7725
 4225TIP3    H212621   8.261   4.974   3.011  0.1620  0.3667 -1.6621
 4226TIP3   OH212622   0.705   5.708   3.522  0.1748 -1.0118  0.4005
 4226TIP3    H112623   0.726   5.782   3.464 -0.8591 -0.5131  0.6508
 4226TIP3    H212624   0.772   5.712   3.591  2.6275 -2.7724 -1.7647
 4227TIP3   OH212625   7.901   5.007   1.835 -0.0543 -0.2718 -0.3548
 4227TIP3    H112626   7.866   4.954   1.907  1.2823 -0.6738 -0.0020
 4227TIP3    H212627   7.886   4.954   1.757  1.4605 -1.2696  0.0185
 4228TIP3   OH212628   8.510   3.401   2.462  0.2098  0.2964 -0.4221
 4228TIP3    H112629   8.441   3.335   2.458  0.2971  0.1102  0.7370
 4228TIP3    H212630   8.520   3.419   2.556  0.0025  2.1618 -0.7386
 4229TIP3   OH212631   8.096   5.184   2.431 -0.4394 -0.2252  0.3677
 4229TIP3    H112632   8.090   5.253   2.497 -0.5654  1.0143 -0.8990
 4229TIP3    H212633   8.062   5.106   2.474 -0.2265  0.4942  1.8532
 4230TIP3   OH212634   0.960   4.750   3.073 -0.1568 -0.0579 -0.7878
 4230TIP3    H112635   0.933   4.667   3.035 -1.8185  0.4386 -0.7343
 4230TIP3    H212636   0.929   4.747   3.163 -1.7062  1.2719 -1.2464
 4231TIP3   OH212637   0.290   5.101   2.860  0.1386  0.3031 -0.1897
 4231TIP3    H112638   0.204   5.064   2.881  0.0949  1.2357  1.3589
 4231TIP3    H212639   0.340   5.093   2.942  1.1609  0.7710 -0.7583
 4232TIP3   OH212640   7.485   4.373   2.800 -0.1088 -0.2381 -0.5470
 4232TIP3    H112641   7.465   4.281   2.818  0.0972 -0.4852 -1.5147
 4232TIP3    H212642   7.534   4.403   2.876 -0.1959 -0.9269 -0.2159
 4233TIP3   OH212643   0.027   4.803   4.485 -0.0016 -0.0018  0.0016
 4233TIP3    H112644   0.002   4.800   4.393 -0.0088  2.1539 -0.1092
 4233TIP3    H212645   0.096   4.738   4.495 -0.1321 -0.3671 -1.4801
 4234TIP3   OH212646   7.381   4.770   5.300  0.4944  0.8999  0.0903
 4234TIP3    H112647   7.289   4.766   5.275 -0.0008 -1.1343  2.1117
 4234TIP3    H212648   7.387   4.845   5.358 -0.2456  0.1038  1.2233
 4235TIP3   OH212649   7.398   5.450   3.798  0.6387 -0.4262  0.1413
 4235TIP3    H112650   7.437   5.536   3.813 -1.0333  0.5682 -1.0329
 4235TIP3    H212651   7.417   5.430   3.707  0.9933 -1.2941  0.4024
 4236TIP3   OH212652   6.990   6.612   5.478 -0.3266  0.0376  0.0858
 4236TIP3    H112653   6.971   6.563   5.398  1.8707  1.3821 -1.2915
 4236TIP3    H212654   7.077   6.583   5.504  0.7786  2.6990 -0.4285
 4237TIP3   OH212655   1.545   4.349   3.461  0.6860  0.2363  0.3213
 4237TIP3    H112656   1.476   4.283   3.473  0.3451  0.9580  2.6179
 4237TIP3    H212657   1.501   4.421   3.416  0.9656 -0.9249 -1.8575
 4238TIP3   OH212658   8.131   6.440   1.564 -0.0897 -0.0349 -0.2521
 4238TIP3    H112659   8.173   6.526   1.559 -1.5355  0.7216  0.0526
 4238TIP3    H212660   8.043   6.455   1.527 -0.5946 -1.2210  0.4425
 4239TIP3   OH212661   5.021   7.308   4.085  0.1527 -0.3875  0.1008
 4239TIP3    H112662   4.927   7.288   4.082  0.2423 -1.1314  1.7024
 4239TIP3    H212663   5.024   7.404   4.079 -0.7450 -0.3260  0.4370
 4240TIP3   OH212664   8.124   6.618   3.626  0.0910 -0.5792 -0.0840
 4240TIP3    H112665   8.051   6.629   3.688 -0.1207  2.0032 -0.7151
 4240TIP3    H212666   8.088   6.646   3.542  0.9617 -2.1670 -1.0151
 4241TIP3   OH212667   1.648   0.137   3.236 -0.2684  0.1843 -0.0878
 4241TIP3    H112668   1.719   0.162   3.295  1.5532  0.6644 -2.4018
 4241TIP3    H212669   1.571   0.132   3.292  1.5779 -0.3339  2.4903
 4242TIP3   OH212670   7.099   6.241   1.392 -0.5693  0.6659  0.4596
 4242TIP3    H112671   7.023   6.241   1.334 -0.0263  0.4598 -0.2548
 4242TIP3    H212672   7.062   6.251   1.480 -1.3030  2.2654 -0.0261
 4243TIP3   OH212673   1.392   6.785   1.372  0.3017  0.0695 -0.6022
 4243TIP3    H112674   1.342   6.729   1.312  0.1835 -1.7623  1.1814
 4243TIP3    H212675   1.482   6.754   1.365  0.3664  0.1604 -0.1742
 4244TIP3   OH212676   0.247   5.477   2.798 -0.6461 -0.2203 -0.2290
 4244TIP3    H112677   0.312   5.408   2.803 -1.7710 -1.4385 -1.6696
 4244TIP3    H212678   0.295   5.558   2.816  0.8642 -1.2862  0.5625
 4245TIP3   OH212679   7.945   4.557   2.482 -0.1849 -0.0400  0.6174
 4245TIP3    H112680   8.008   4.484   2.485  0.7409  0.7153 -0.0324
 4245TIP3    H212681   7.900   4.552   2.566  0.8244 -0.5369  1.1463
 4246TIP3   OH212682   0.173   5.906   3.645 -0.5742 -0.3972  0.3770
 4246TIP3    H112683   0.241   5.939   3.586 -1.3535 -1.1048 -0.9385
 4246TIP3    H212684   0.209   5.921   3.733 -0.5479  3.1716 -0.1632
 4247TIP3   OH212685   6.881   5.018   2.542  0.1012 -0.2782  0.1940
 4247TIP3    H112686   6.849   5.056   2.460 -1.2122 -0.3833  0.6439
 4247TIP3    H212687   6.976   5.011   2.530  0.0926  1.1046 -0.7282
 4248TIP3   OH212688   0.605   5.849   1.470  0.1330  0.3065  0.3016
 4248TIP3    H112689   0.685   5.902   1.476  1.0828 -1.0433 -0.2171
 4248TIP3    H212690   0.636   5.759   1.469 -1.4495 -0.2531  0.7011
 4249TIP3   OH212691   0.010   5.899   3.418 -0.8565  0.4391  0.1992
 4249TIP3    H112692   0.058   5.942   3.348 -2.6385  0.5914 -0.9603
 4249TIP3    H212693   0.050   5.932   3.499  2.0984 -0.7233 -0.7050
 4250TIP3   OH212694   0.843   5.166   1.906 -0.6874 -0.1928 -0.1282
 4250TIP3    H112695   0.775   5.192   1.969 -0.2120  0.6441  0.0381
 4250TIP3    H212696   0.823   5.216   1.827 -0.0895  0.2898  0.0209
 4251TIP3   OH212697   0.012   3.655   2.305  0.1448  0.0896 -0.6763
 4251TIP3    H112698   0.055   3.571   2.288 -0.4303 -0.5602  1.0524
 4251TIP3    H212699   0.013   3.699   2.220  2.3381 -0.7874 -1.1257
 4252TIP3   OH212700   5.692   3.566   2.376 -0.5448 -0.8304 -0.2743
 4252TIP3    H112701   5.752   3.537   2.444 -1.3777 -0.6598  0.5466
 4252TIP3    H212702   5.749   3.590   2.303  0.3007 -1.9255  0.0054
 4253TIP3   OH212703   0.817   4.706   2.241  0.0658 -0.6129  0.1537
 4253TIP3    H112704   0.735   4.712   2.192  0.7242  1.0404 -0.7844
 4253TIP3    H212705   0.870   4.643   2.191 -0.0859 -0.5904 -0.0391
 4254TIP3   OH212706   0.456   5.623   2.962  1.0028  0.0469 -0.1718
 4254TIP3    H112707   0.534   5.615   2.906  0.3188 -1.7878 -0.9080
 4254TIP3    H212708   0.458   5.544   3.017 -0.0199  0.2848  0.2130
 4255TIP3   OH212709   8.415   4.713   2.765 -0.2474  0.2256  0.2897
 4255TIP3    H112710   8.480   4.654   2.726 -0.5845  1.1379 -1.7393
 4255TIP3    H212711   8.428   4.705   2.859  0.8549 -1.7926 -0.0109
 4256TIP3   OH212712   0.877   5.914   2.936  0.2851  0.7695 -0.2134
 4256TIP3    H112713   0.794   5.902   2.983  0.3422  0.2139 -0.2586
 4256TIP3    H212714   0.928   5.973   2.993  0.9287 -1.0558  1.1460
 4257TIP3   OH212715   7.628   6.339   5.298 -0.2445  0.4299  0.4091
 4257TIP3    H112716   7.663   6.375   5.216  1.7526 -1.7092  0.2756
 4257TIP3    H212717   7.578   6.411   5.336 -1.3847  1.4289 -2.7649
 4258TIP3   OH212718   0.560   6.574   0.430  0.6406  0.3402 -0.0072
 4258TIP3    H112719   0.468   6.584   0.454  0.9389  0.2601  1.2239
 4258TIP3    H212720   0.560   6.564   0.335 -0.8279 -1.8327  0.1755
 4259TIP3   OH212721   7.588   6.680   1.334  0.1596 -0.4169  0.0067
 4259TIP3    H112722   7.542   6.668   1.417 -0.8740 -1.1056 -0.6591
 4259TIP3    H212723   7.539   6.750   1.289 -1.1292 -2.1211 -1.3127
 4260TIP3   OH212724   7.177   4.900   2.625 -0.2702  0.4580 -0.0984
 4260TIP3    H112725   7.168   4.909   2.720 -1.4653  0.8480 -0.2324
 4260TIP3    H212726   7.259   4.944   2.604  0.0429  0.2842  0.7738
 4261TIP3   OH212727   8.252   6.403   4.111 -0.9139 -0.2902 -0.4026
 4261TIP3    H112728   8.322   6.337   4.113 -0.4465  0.2187  0.2699
 4261TIP3    H212729   8.218   6.404   4.200  0.4897  1.8558  0.1511
 4262TIP3   OH212730   0.521   7.276   3.358 -0.0844  0.3150 -0.1914
 4262TIP3    H112731   0.598   7.326   3.386 -0.6113  1.6038 -1.0241
 4262TIP3    H212732   0.553   7.186   3.349  1.7555  1.1382 -2.2407
 4263TIP3   OH212733   0.272   5.140   3.472  0.0054 -0.0332 -0.5155
 4263TIP3    H112734   0.280   5.234   3.490 -1.4178 -0.1957  0.9947
 4263TIP3    H212735   0.363   5.109   3.468  0.4704  1.2848 -0.3722
 4264TIP3   OH212736   0.335   5.104   2.195  0.1531 -0.2166 -0.3005
 4264TIP3    H112737   0.313   5.088   2.103  0.4750  1.0009 -0.6003
 4264TIP3    H212738   0.272   5.171   2.223  0.7789  0.2331  0.0361
 4265TIP3   OH212739   1.276   6.808   3.194  0.4020 -0.2779 -0.2765
 4265TIP3    H112740   1.357   6.839   3.153  0.6917  0.1268  0.5897
 4265TIP3    H212741   1.292   6.816   3.288  0.1665 -2.2745 -0.0425
 4266TIP3   OH212742   8.009   6.845   1.898 -0.5763  0.0826  0.5689
 4266TIP3    H112743   7.986   6.805   1.814 -0.1272  0.4519  0.2692
 4266TIP3    H212744   7.949   6.804   1.961 -0.3424 -0.8283  0.2176
 4267TIP3   OH212745   0.048   4.795   3.795  0.2200 -0.0896 -0.0115
 4267TIP3    H112746   0.142   4.780   3.785  0.3080  1.1676 -1.2183
 4267TIP3    H212747   0.017   4.814   3.706 -1.0751  0.0535  0.4604
 4268TIP3   OH212748   0.910   7.063   1.890 -0.2504 -0.1179 -0.2590
 4268TIP3    H112749   0.883   7.013   1.967 -0.7219  0.0496 -0.3138
 4268TIP3    H212750   0.938   6.996   1.827  0.8458 -0.2100  0.3281
 4269TIP3   OH212751   1.159   5.342   3.102  0.3655  0.3079  0.5381
 4269TIP3    H112752   1.072   5.331   3.140 -0.0590  2.6989  0.3410
 4269TIP3    H212753   1.143   5.353   3.008  0.8371  1.1535  0.5510
 4270TIP3   OH212754   8.429   4.167   6.106  0.4807 -0.0428 -0.0996
 4270TIP3    H112755   8.506   4.109   6.109  0.8854  0.5642  1.4192
 4270TIP3    H212756   8.357   4.109   6.081  1.1864 -0.8724 -0.2526
 4271TIP3   OH212757   0.931   6.357   3.643  0.6213  0.1230  0.6133
 4271TIP3    H112758   0.849   6.406   3.656  0.5007  0.0929  0.0012
 4271TIP3    H212759   0.989   6.418   3.600 -0.4244 -1.0424 -2.6305
 4272TIP3   OH212760   8.027   3.777   3.717  0.1626  0.2897  0.1809
 4272TIP3    H112761   7.961   3.751   3.652  0.5841 -0.6957  0.1310
 4272TIP3    H212762   7.999   3.863   3.748 -2.1500 -0.8823  1.4712
 4273TIP3   OH212763   7.222   6.725   2.340  0.1196  0.0243  0.1601
 4273TIP3    H112764   7.193   6.815   2.321  0.1030 -0.3608 -1.7309
 4273TIP3    H212765   7.308   6.719   2.297  0.1980 -0.8050  0.4387
 4274TIP3   OH212766   8.184   5.395   2.597 -0.3145 -0.0093  0.3870
 4274TIP3    H112767   8.164   5.373   2.688 -0.7528  1.7075  0.7325
 4274TIP3    H212768   8.274   5.428   2.600  0.0232 -0.8917  0.0282
 4275TIP3   OH212769   7.736   6.715   2.975  0.0574  0.0874  0.5299
 4275TIP3    H112770   7.759   6.804   2.949  1.3384  0.4236  2.6983
 4275TIP3    H212771   7.772   6.659   2.905  1.8588  1.0780  0.6345
 4276TIP3   OH212772   0.119   6.359   1.571  0.5370 -0.2896 -0.1368
 4276TIP3    H112773   0.038   6.318   1.599  1.2355 -0.2433  2.0500
 4276TIP3    H212774   0.091   6.438   1.524 -0.6880 -0.6210  0.0222
 4277TIP3   OH212775   7.345   3.243   2.399  0.1674 -0.1062 -0.1664
 4277TIP3    H112776   7.257   3.206   2.399 -0.8957  2.2678  1.3273
 4277TIP3    H212777   7.334   3.331   2.435  3.4729 -0.5591  2.2022
 4278TIP3   OH212778   1.667   5.477   4.512  0.4049  0.3290 -0.1182
 4278TIP3    H112779   1.676   5.452   4.420 -0.4230 -0.1879 -0.0615
 4278TIP3    H212780   1.662   5.572   4.511  1.9057  0.4234 -0.4809
 4279TIP3   OH212781   8.286   5.371   3.191  0.0061  0.2967 -0.7955
 4279TIP3    H112782   8.380   5.358   3.183  0.4604  1.1077  2.4368
 4279TIP3    H212783   8.247   5.297   3.146  2.2552 -1.7157  0.4696
 4280TIP3   OH212784   1.075   5.376   2.311  0.1214  0.0580  0.2544
 4280TIP3    H112785   1.061   5.397   2.218  1.4582  1.3387  0.3208
 4280TIP3    H212786   1.170   5.385   2.323 -0.0531 -0.0631  1.7630
 4281TIP3   OH212787   7.909   5.639   3.172 -0.2962 -0.0260  0.5943
 4281TIP3    H112788   7.934   5.644   3.264 -0.8914 -2.0079  0.8861
 4281TIP3    H212789   7.877   5.549   3.161 -1.1288  0.4913 -1.3122
 4282TIP3   OH212790   7.557   3.906   4.501  0.0237  0.0847 -0.6936
 4282TIP3    H112791   7.628   3.851   4.535 -0.5504 -1.4980 -1.9797
 4282TIP3    H212792   7.527   3.956   4.577  1.3523 -0.5253  0.2497
 4283TIP3   OH212793   7.106   5.925   3.397 -0.1162 -0.5260 -0.0726
 4283TIP3    H112794   7.032   5.867   3.412 -1.1210  1.2224  2.0605
 4283TIP3    H212795   7.178   5.886   3.445 -0.4185 -0.7186  0.2214
 4284TIP3   OH212796   7.547   6.177   4.983  0.8237 -0.0631  0.2422
 4284TIP3    H112797   7.637   6.198   4.957  0.5299 -1.1234 -1.7260
 4284TIP3    H212798   7.495   6.253   4.957  1.0209  0.2249  0.6809
 4285TIP3   OH212799   6.659   5.144   4.932 -0.3667 -0.7893 -0.5675
 4285TIP3    H112800   6.632   5.181   4.848  3.1600 -0.2506 -1.5273
 4285TIP3    H212801   6.678   5.221   4.987  1.2736 -1.1386 -0.6310
 4286TIP3   OH212802   8.450   6.778   2.365  0.2421 -0.3492  0.0259
 4286TIP3    H112803   8.407   6.845   2.417 -0.5603 -0.3934 -0.5847
 4286TIP3    H212804   8.413   6.696   2.397 -1.1743 -0.3055 -1.4598
 4287TIP3   OH212805   2.050   5.854   2.735  0.2493  0.3615 -0.2352
 4287TIP3    H112806   1.960   5.887   2.731  0.1654  0.1363 -0.2192
 4287TIP3    H212807   2.100   5.913   2.679 -0.2441 -0.5718 -1.7007
 4288TIP3   OH212808   8.044   4.937   2.561 -0.0329 -0.1662  0.0257
 4288TIP3    H112809   8.139   4.939   2.566 -0.0241  1.5031 -0.5614
 4288TIP3    H212810   8.022   4.844   2.562  1.4884 -0.5257  2.0136
 4289TIP3   OH212811   2.084   7.568   3.653 -0.3892 -0.8944 -0.2253
 4289TIP3    H112812   2.167   7.568   3.700  0.0763  0.0823 -1.0225
 4289TIP3    H212813   2.018   7.552   3.720  0.3429 -0.4884  0.5968
 4290TIP3   OH212814   6.556   2.305   2.150 -0.5058  0.3953  1.0642
 4290TIP3    H112815   6.528   2.217   2.124  0.6280 -0.8987  4.0084
 4290TIP3    H212816   6.598   2.340   2.071 -1.3597 -1.5183 -0.3073
 4291TIP3   OH212817   7.535   6.628   4.836  0.1201 -0.3679  0.1133
 4291TIP3    H112818   7.460   6.687   4.843  0.3275  0.0205 -0.8237
 4291TIP3    H212819   7.500   6.541   4.855 -0.1072  0.0985  1.8865
 4292TIP3   OH212820   1.835   4.211   1.376  1.1088  0.0860 -0.3255
 4292TIP3    H112821   1.829   4.184   1.467  2.0968 -0.8800 -0.5395
 4292TIP3    H212822   1.864   4.302   1.380  0.7450  0.1794  0.3259
 4293TIP3   OH212823   0.945   5.460   2.079  0.3418  0.0262  0.4847
 4293TIP3    H112824   0.918   5.541   2.122  0.0739  0.4158 -0.3999
 4293TIP3    H212825   0.865   5.410   2.068  0.4550 -0.2074  0.6997
 4294TIP3   OH212826   6.507   6.139   4.745 -0.4093 -0.6246 -0.5027
 4294TIP3    H112827   6.558   6.101   4.673 -0.0054  0.0444 -0.5758
 4294TIP3    H212828   6.569   6.197   4.790 -0.4225 -1.6765  0.9017
 4295TIP3   OH212829   7.713   5.001   3.123 -0.4706 -0.2128  0.3434
 4295TIP3    H112830   7.740   4.910   3.123 -0.9740 -0.3863 -1.2546
 4295TIP3    H212831   7.770   5.044   3.187  0.6276 -1.3922  0.1643
 4296TIP3   OH212832   7.205   7.563   2.298 -0.1769 -0.1854 -0.0974
 4296TIP3    H112833   7.203   7.526   2.210  0.8394 -1.5255  0.4396
 4296TIP3    H212834   7.194   7.658   2.284  3.0254 -0.0245 -1.8911
 4297TIP3   OH212835   7.131   5.505   3.585 -0.0874  0.2387  0.1082
 4297TIP3    H112836   7.087   5.589   3.600 -2.1506 -0.7944  0.0376
 4297TIP3    H212837   7.118   5.456   3.666  1.4637  0.1172  0.2975
 4298TIP3   OH212838   0.023   5.283   3.936 -0.3699 -0.4112  0.2510
 4298TIP3    H112839  -0.041   5.329   3.881 -0.6522 -2.2957 -1.0363
 4298TIP3    H212840   0.107   5.299   3.893 -0.6505 -2.3022 -1.0739
 4299TIP3   OH212841   2.100   4.806   3.102 -0.3508 -0.2977  0.3659
 4299TIP3    H112842   2.117   4.725   3.053  0.0969 -0.9913  1.6377
 4299TIP3    H212843   2.133   4.876   3.046 -2.2171 -0.8627 -1.4624
 4300TIP3   OH212844   0.658   3.239   4.336 -0.3522 -0.8146  0.4158
 4300TIP3    H112845   0.681   3.227   4.244 -0.5383  1.7635 -0.0179
 4300TIP3    H212846   0.645   3.334   4.346 -2.2170 -1.2232  2.6465
 4301TIP3   OH212847   7.555   6.412   1.501 -0.6265  0.2538  0.0621
 4301TIP3    H112848   7.523   6.484   1.555  1.8601  0.5497  1.1661
 4301TIP3    H212849   7.574   6.342   1.562  0.2176 -0.1508 -0.6573
 4302TIP3   OH212850   1.515   6.268   3.708 -0.1617  0.3149 -0.0194
 4302TIP3    H112851   1.585   6.259   3.773  0.6659  1.3302 -0.7460
 4302TIP3    H212852   1.459   6.337   3.743 -0.0081  0.4933 -0.1222
 4303TIP3   OH212853   8.374   4.079   2.584 -0.0110  0.8201  0.4852
 4303TIP3    H112854   8.371   3.984   2.586 -3.5162  0.8676 -0.2406
 4303TIP3    H212855   8.447   4.099   2.524  2.1658 -1.3114  2.2953
 4304TIP3   OH212856   0.649   5.225   3.795  0.9436  0.3119 -1.4971
 4304TIP3    H112857   0.666   5.287   3.866  1.8599  0.2382 -1.6566
 4304TIP3    H212858   0.620   5.280   3.722  1.6492  0.5385 -1.6031
 4305TIP3   OH212859   0.158   5.600   1.737 -0.1072 -0.0972 -0.1010
 4305TIP3    H112860   0.165   5.531   1.672 -1.1802 -0.1228 -0.1977
 4305TIP3    H212861   0.066   5.626   1.735  0.1736  0.9472  0.3287
 4306TIP3   OH212862   2.243   0.280   2.397 -0.1479 -0.2195 -0.3571
 4306TIP3    H112863   2.316   0.319   2.349  0.1737 -0.4382 -0.0480
 4306TIP3    H212864   2.169   0.338   2.379  0.1629  0.1520 -0.4528
 4307TIP3   OH212865   7.270   5.432   2.087 -0.3251 -0.0408 -0.0983
 4307TIP3    H112866   7.352   5.384   2.075 -0.8441 -0.8109 -0.6771
 4307TIP3    H212867   7.267   5.452   2.181  1.3323  1.5030 -0.3509
 4308TIP3   OH212868   1.237   5.004   3.799  0.0677 -0.1953  0.5880
 4308TIP3    H112869   1.196   5.079   3.842 -2.0325 -0.2775 -1.1291
 4308TIP3    H212870   1.166   4.939   3.792  1.4266 -1.7077  0.6266
 4309TIP3   OH212871   2.336   5.039   3.292 -0.2632 -0.0943  0.3175
 4309TIP3    H112872   2.290   5.123   3.288  0.9276  0.5502 -0.5772
 4309TIP3    H212873   2.336   5.015   3.384 -1.0785  0.6340  0.5106
 4310TIP3   OH212874   3.006   4.796   1.822 -0.9328 -0.1088  0.1326
 4310TIP3    H112875   2.961   4.862   1.875 -1.2101  0.4291 -0.7747
 4310TIP3    H212876   3.088   4.839   1.796 -0.9589 -0.2497 -0.1736
 4311TIP3   OH212877   0.167   7.202   3.191 -0.3123 -0.3689  0.2636
 4311TIP3    H112878   0.112   7.227   3.117  0.6871 -0.2038 -0.4287
 4311TIP3    H212879   0.193   7.285   3.231  1.9804 -0.2731 -1.2887
 4312TIP3   OH212880   1.367   2.531   3.601 -0.4282 -0.0731 -0.1707
 4312TIP3    H112881   1.273   2.519   3.591 -0.1724 -1.7316 -0.8070
 4312TIP3    H212882   1.396   2.453   3.649  0.7591 -0.0996 -0.9135
 4313TIP3   OH212883   2.299   6.841   2.778  0.0505  0.0416 -0.0133
 4313TIP3    H112884   2.304   6.892   2.698 -0.0539 -0.8026 -0.5601
 4313TIP3    H212885   2.378   6.788   2.779 -0.6856 -1.0886 -0.3467
 4314TIP3   OH212886   1.409   6.047   3.172 -0.3382  0.8672 -0.1976
 4314TIP3    H112887   1.490   6.045   3.121  0.2986 -0.7685  0.8446
 4314TIP3    H212888   1.384   5.955   3.182 -0.9508  1.2073  1.6430
 4315TIP3   OH212889   2.689   0.732   3.057 -0.0790 -0.2899 -0.2443
 4315TIP3    H112890   2.736   0.784   2.992  0.1298  0.5339  0.5696
 4315TIP3    H212891   2.640   0.668   3.005  1.0472 -0.4222 -1.1537
 4316TIP3   OH212892   1.286   4.429   3.093  0.3130  0.3294  0.1318
 4316TIP3    H112893   1.326   4.382   3.020 -1.8927 -0.4537 -0.6311
 4316TIP3    H212894   1.260   4.513   3.056 -0.6718 -0.0109  0.0262
 4317TIP3   OH212895   3.137   3.256   2.914  0.0186 -0.1139 -0.5914
 4317TIP3    H112896   3.209   3.233   2.973 -0.6722  0.5766  0.5188
 4317TIP3    H212897   3.115   3.173   2.872 -0.2145 -0.8437  0.9307
 4318TIP3   OH212898   2.296   2.901   3.381  0.4685  0.0089 -0.0704
 4318TIP3    H112899   2.238   2.826   3.366 -1.8204  1.4576  1.2318
 4318TIP3    H212900   2.345   2.911   3.299 -0.3697 -1.8887 -0.8267
 4319TIP3   OH212901   2.008   5.412   1.806 -0.1228 -0.1981  0.1969
 4319TIP3    H112902   2.025   5.375   1.720 -0.1229 -0.0003  0.1112
 4319TIP3    H212903   2.033   5.504   1.798  0.3693 -0.2970  0.5562
 4320TIP3   OH212904   8.274   4.980   2.028 -0.1310  0.2142  0.0677
 4320TIP3    H112905   8.189   4.981   2.073  0.4192  1.7551  1.1360
 4320TIP3    H212906   8.264   4.914   1.959 -1.8576 -0.3419  0.8135
 4321TIP3   OH212907   0.897   3.150   3.486  0.6220 -0.1013 -0.1585
 4321TIP3    H112908   0.805   3.174   3.480  0.8042  0.2346 -1.9068
 4321TIP3    H212909   0.934   3.212   3.548 -0.1917  0.1886  0.0375
 4322TIP3   OH212910   2.000   1.978   4.492 -0.2445 -0.2029 -0.6906
 4322TIP3    H112911   2.087   1.954   4.522 -1.1337 -3.1453 -0.2678
 4322TIP3    H212912   1.944   1.967   4.569 -1.0667  1.2301 -1.0642
 4323TIP3   OH212913   1.489   6.666   3.868  0.0958 -0.5120 -0.2526
 4323TIP3    H112914   1.428   6.619   3.811 -0.6763 -0.5408  0.5731
 4323TIP3    H212915   1.535   6.598   3.916  0.4444 -0.4752 -0.5303
 4324TIP3   OH212916   0.343   6.932   1.003 -0.1991 -0.1781  0.2568
 4324TIP3    H112917   0.254   6.949   1.035 -0.7553  0.0099 -1.3656
 4324TIP3    H212918   0.360   7.001   0.939  0.2069 -1.5971 -1.1897
 4325TIP3   OH212919   1.966   6.432   0.946  0.4865 -0.0389 -0.0352
 4325TIP3    H112920   1.985   6.345   0.913  1.0647 -0.6523  1.8629
 4325TIP3    H212921   1.870   6.434   0.953  0.2822  0.4147 -2.4977
 4326TIP3   OH212922   1.177   3.979   1.909 -0.6607 -0.1880  0.1706
 4326TIP3    H112923   1.205   3.910   1.849 -2.7207 -1.9599  1.1575
 4326TIP3    H212924   1.242   4.048   1.899  1.4064 -2.2393 -0.9148
 4327TIP3   OH212925   0.194   7.778   1.636  0.2167  0.2721 -0.2224
 4327TIP3    H112926   0.284   7.805   1.619  0.2433  0.0233 -0.4787
 4327TIP3    H212927   0.176   7.711   1.570 -0.3420  0.7081 -0.5150
 4328TIP3   OH212928   8.225   6.254   2.408 -0.4103 -0.1979 -0.1350
 4328TIP3    H112929   8.187   6.182   2.460  0.6411  0.3322  1.4146
 4328TIP3    H212930   8.239   6.216   2.322 -0.5876 -1.6376  0.4434
 4329TIP3   OH212931   1.231   5.851   3.321 -0.1981  0.9743 -0.5233
 4329TIP3    H112932   1.234   5.769   3.270 -1.3384  1.2347 -1.0100
 4329TIP3    H212933   1.322   5.865   3.347  0.4273  0.8448 -2.5264
 4330TIP3   OH212934   2.204   4.934   0.647  0.0614 -0.1623 -0.1391
 4330TIP3    H112935   2.169   4.953   0.560 -0.0068  0.3132 -0.0084
 4330TIP3    H212936   2.293   4.904   0.631 -0.6329 -2.0636 -0.5292
 4331TIP3   OH212937   0.075   4.184   3.402 -0.0950 -0.0337 -0.1354
 4331TIP3    H112938  -0.005   4.160   3.449  1.0883  1.1974  2.5854
 4331TIP3    H212939   0.133   4.109   3.414 -0.3979 -0.4277 -1.0978
 4332TIP3   OH212940   1.393   5.733   2.813  0.0122 -0.2851 -0.4398
 4332TIP3    H112941   1.401   5.775   2.727  1.0006 -1.0410 -0.7211
 4332TIP3    H212942   1.466   5.768   2.863 -2.7777  3.2410  1.4482
 4333TIP3   OH212943   3.509   6.176   1.772  0.0236 -0.1133  0.2449
 4333TIP3    H112944   3.492   6.088   1.805 -1.5753  0.3679  0.7818
 4333TIP3    H212945   3.595   6.199   1.807 -0.2450 -0.8589  1.4347
 4334TIP3   OH212946   2.949   6.445   2.478  0.0626  0.3144  0.0975
 4334TIP3    H112947   2.872   6.417   2.527  0.1876 -0.2868 -0.0389
 4334TIP3    H212948   3.021   6.436   2.541 -0.2822  3.0360  0.9344
 4335TIP3   OH212949   3.538   7.306   3.760 -0.1717 -0.6740 -0.0676
 4335TIP3    H112950   3.488   7.229   3.731  2.0809 -1.6667 -1.4916
 4335TIP3    H212951   3.613   7.270   3.807  0.4048  0.7006  0.0896
 4336TIP3   OH212952   1.710   5.677   1.700 -0.0784 -0.1836  0.0010
 4336TIP3    H112953   1.701   5.729   1.779 -0.6261  0.2754 -0.3583
 4336TIP3    H212954   1.711   5.586   1.731  0.4381  0.0234  0.5871
 4337TIP3   OH212955   3.356   2.139   2.920  0.3715  0.1482  0.2922
 4337TIP3    H112956   3.300   2.217   2.913  0.1077  0.1514  2.1825
 4337TIP3    H212957   3.432   2.159   2.865 -0.2337  1.2610 -0.1582
 4338TIP3   OH212958   1.062   6.364   3.276  0.4160  0.1945 -0.3784
 4338TIP3    H112959   1.070   6.430   3.345 -0.3330 -0.0435 -0.0601
 4338TIP3    H212960   0.999   6.301   3.311  1.3159 -0.8247 -0.5639
 4339TIP3   OH212961   0.701   6.499   4.452 -0.1276  0.0915  0.0902
 4339TIP3    H112962   0.792   6.519   4.434 -0.2242 -1.2944 -2.1017
 4339TIP3    H212963   0.704   6.415   4.499 -0.3752 -1.2232 -2.1936
 4340TIP3   OH212964   8.155   4.083   1.571 -0.0180  0.3226 -0.1774
 4340TIP3    H112965   8.072   4.106   1.614 -0.2678  1.9240 -1.4330
 4340TIP3    H212966   8.152   4.131   1.488  0.6338 -2.3260 -1.7915
 4341TIP3   OH212967   1.474   5.918   1.430 -0.8367 -0.0789  0.4245
 4341TIP3    H112968   1.399   5.921   1.371 -0.0738  1.9229 -0.4916
 4341TIP3    H212969   1.440   5.945   1.515 -1.2551  0.3676  0.1134
 4342TIP3   OH212970   3.252   5.214   2.866  0.7923  0.7089 -0.2292
 4342TIP3    H112971   3.339   5.215   2.825  0.7466 -0.3631 -0.3619
 4342TIP3    H212972   3.267   5.249   2.954  1.6625 -0.9758  0.3162
 4343TIP3   OH212973   0.872   6.311   0.961 -0.3403  0.0657  0.3506
 4343TIP3    H112974   0.839   6.358   1.038 -2.2025  0.1757 -0.4729
 4343TIP3    H212975   0.950   6.360   0.935 -0.0572  0.3981  1.7984
 4344TIP3   OH212976   0.725   5.261   1.412 -0.1661 -0.2243 -0.2888
 4344TIP3    H112977   0.682   5.257   1.497  1.6826  1.8248  0.7922
 4344TIP3    H212978   0.675   5.327   1.363 -0.2591 -0.2483 -0.2271
 4345TIP3   OH212979   2.406   4.959   3.732  0.0083  0.1101  0.1123
 4345TIP3    H112980   2.324   4.912   3.716 -0.1733 -0.5376  2.6743
 4345TIP3    H212981   2.419   5.013   3.654 -2.0349 -0.9618 -1.0050
 4346TIP3   OH212982   2.232   2.622   3.622 -0.0749 -0.0055 -0.5265
 4346TIP3    H112983   2.310   2.567   3.607 -0.8901 -1.1363 -0.6605
 4346TIP3    H212984   2.159   2.568   3.591 -1.0758  0.4314  1.0424
 4347TIP3   OH212985   7.943   5.378   1.183  0.5935  0.0740 -0.1890
 4347TIP3    H112986   7.976   5.288   1.177  1.6993  0.4901 -0.4300
 4347TIP3    H212987   7.980   5.422   1.107  0.4909  0.8839  0.2280
 4348TIP3   OH212988   1.143   5.530   4.693  0.1778 -0.3468 -0.2402
 4348TIP3    H112989   1.145   5.489   4.779  0.0417 -0.2715 -0.2010
 4348TIP3    H212990   1.058   5.507   4.657  0.0892 -0.0748 -0.2054
 4349TIP3   OH212991   2.529   5.004   1.977  0.2018  0.3387  0.0075
 4349TIP3    H112992   2.482   4.944   1.918 -1.2376  1.6586 -0.2084
 4349TIP3    H212993   2.606   5.031   1.927 -0.3811  0.5093 -0.8155
 4350TIP3   OH212994   7.813   5.388   2.628  0.2730  0.3316  0.0133
 4350TIP3    H112995   7.783   5.297   2.623 -0.4473  0.6057 -0.7763
 4350TIP3    H212996   7.732   5.439   2.625  0.6017  0.9615  1.6299
 4351TIP3   OH212997   0.089   6.321   2.382 -0.2155  0.4594  0.3335
 4351TIP3    H112998   0.178   6.292   2.399 -0.6068  0.1553  1.9712
 4351TIP3    H212999   0.080   6.318   2.287  1.4175  0.2225  0.1710
 4352TIP3   OH213000   0.481   6.552   4.226 -0.4967 -0.5737 -0.1623
 4352TIP3    H113001   0.573   6.566   4.247 -0.6687 -0.5909  0.6225
 4352TIP3    H213002   0.434   6.581   4.305 -1.2221  0.4381 -0.9448
 4353TIP3   OH213003   1.798   6.672   1.264 -0.0764  0.0428  0.1088
 4353TIP3    H113004   1.889   6.686   1.238 -0.3043 -0.1066 -0.7985
 4353TIP3    H213005   1.787   6.577   1.265  0.5788 -0.0340  3.0996
 4354TIP3   OH213006   3.807   7.948   2.500 -0.0436 -0.5307  0.3068
 4354TIP3    H113007   3.737   7.994   2.455 -0.3184  0.1276  1.3868
 4354TIP3    H213008   3.765   7.906   2.574  0.7778  0.3004  1.2613
 4355TIP3   OH213009   0.340   7.071   2.998 -0.8764  0.0471  0.3325
 4355TIP3    H113010   0.299   7.127   3.063 -0.1733  0.6104  0.2959
 4355TIP3    H213011   0.390   7.131   2.942 -0.6096 -0.5474 -0.0773
 4356TIP3   OH213012   7.652   7.605   1.139 -0.2572 -0.0173 -0.0970
 4356TIP3    H113013   7.587   7.581   1.205 -0.8089  0.6519 -0.3889
 4356TIP3    H213014   7.625   7.692   1.110 -1.3800 -1.2371 -2.8765
 4357TIP3   OH213015   2.357   6.767   2.502 -0.1046 -0.4231 -0.2607
 4357TIP3    H113016   2.415   6.692   2.485 -1.4303 -1.3314 -0.8124
 4357TIP3    H213017   2.379   6.830   2.433 -0.7708 -1.3634 -1.3553
 4358TIP3   OH213018   0.093   6.225   1.157  0.0336  0.0534  0.2114
 4358TIP3    H113019   0.154   6.277   1.105 -1.9673 -0.0387 -2.2986
 4358TIP3    H213020   0.071   6.150   1.102 -1.4342 -0.5326  1.5305
 4359TIP3   OH213021   0.776   6.592   3.778  0.2664 -0.0352 -0.4692
 4359TIP3    H113022   0.825   6.656   3.727 -0.2143  0.3977 -0.3952
 4359TIP3    H213023   0.723   6.645   3.838 -1.8662 -0.4195 -1.9655
 4360TIP3   OH213024   4.543   2.601   4.186  1.1606 -0.1330 -0.6423
 4360TIP3    H113025   4.500   2.592   4.100  0.8421 -1.8567 -0.3178
 4360TIP3    H213026   4.471   2.603   4.248  1.4529 -0.9207 -0.2657
 4361TIP3   OH213027   1.075   6.157   6.010  0.4725  0.2148  0.1989
 4361TIP3    H113028   1.087   6.243   5.970 -0.4445  0.1151 -0.3094
 4361TIP3    H213029   1.127   6.161   6.090  1.9238  0.5881 -0.7393
 4362TIP3   OH213030   0.121   5.899   5.456  0.4681  0.2353  0.2500
 4362TIP3    H113031   0.148   5.831   5.395 -2.0859  0.7876 -1.5741
 4362TIP3    H213032   0.034   5.872   5.486 -0.1104  2.1047  0.3445
 4363TIP3   OH213033   4.845   4.192   1.245  0.2186  0.1629 -0.2775
 4363TIP3    H113034   4.770   4.183   1.304  1.4863  0.3770  1.4056
 4363TIP3    H213035   4.814   4.252   1.177 -1.7312 -1.2166 -0.6567
 4364TIP3   OH213036   2.714   4.532   2.760  0.4212 -0.2974  0.2873
 4364TIP3    H113037   2.799   4.518   2.717  0.9750  0.0957  1.2156
 4364TIP3    H213038   2.698   4.626   2.751  0.2623 -0.3107  0.4311
 4365TIP3   OH213039   2.133   5.416   2.556  0.1097 -0.2700  0.7884
 4365TIP3    H113040   2.077   5.349   2.597 -0.4826  0.2618  0.8606
 4365TIP3    H213041   2.083   5.444   2.479 -0.2237  0.9686  1.4378
 4366TIP3   OH213042   1.960   5.492   2.348 -0.0848 -0.1699  0.2387
 4366TIP3    H113043   1.885   5.455   2.394 -0.0469 -1.9198 -1.0858
 4366TIP3    H213044   1.938   5.585   2.338 -1.7486 -0.5267  0.4983
 4367TIP3   OH213045   2.102   6.395   0.293  0.2012 -0.5425 -0.0352
 4367TIP3    H113046   2.116   6.321   0.234  0.5048 -0.8982  0.4812
 4367TIP3    H213047   2.043   6.361   0.360  1.7327 -0.8560  1.1850
 4368TIP3   OH213048   3.577   3.652   3.779  0.5318  0.4888 -0.3959
 4368TIP3    H113049   3.491   3.670   3.743  0.3862  1.1201  0.2502
 4368TIP3    H213050   3.622   3.736   3.777  0.5795  0.4968  0.7238
 4369TIP3   OH213051   1.000   7.432   0.739 -0.2302 -0.5264 -0.2760
 4369TIP3    H113052   0.924   7.376   0.725 -0.1935 -0.2942 -1.5328
 4369TIP3    H213053   1.000   7.450   0.832 -1.3093 -1.1055 -0.1524
 4370TIP3   OH213054   2.332   5.968   1.682  0.5264  0.2198  0.5792
 4370TIP3    H113055   2.334   5.899   1.616 -0.5373  1.6242 -0.9750
 4370TIP3    H213056   2.416   5.960   1.728  2.1909  0.4365 -2.2655
 4371TIP3   OH213057   0.575   4.931   4.158  0.4760  0.1952 -0.1257
 4371TIP3    H113058   0.666   4.920   4.131  0.0345  0.7668 -1.9470
 4371TIP3    H213059   0.540   4.997   4.098 -0.6196  1.3845  1.7935
 4372TIP3   OH213060   3.028   3.922   2.726 -0.1407  0.1025  0.4054
 4372TIP3    H113061   2.942   3.928   2.685 -0.3271 -0.7572  0.6474
 4372TIP3    H213062   3.016   3.858   2.797  1.2146 -1.6463 -0.8971
 4373TIP3   OH213063   8.389   7.447   2.843  0.0196  0.4087 -0.2355
 4373TIP3    H113064   8.438   7.391   2.903  2.0330  1.4711 -0.8356
 4373TIP3    H213065   8.319   7.391   2.809  0.6715 -1.0782  0.8033
 4374TIP3   OH213066   6.079   1.233   6.810  0.1141 -0.4964 -0.6796
 4374TIP3    H113067   6.070   1.300   6.877 -1.8920 -1.0176 -0.3936
 4374TIP3    H213068   6.159   1.256   6.763  1.2014  0.2196  1.4907
 4375TIP3   OH213069   2.664   6.214   3.930  0.1686  0.3180 -0.1596
 4375TIP3    H113070   2.747   6.166   3.939  0.1528  0.1612 -0.8423
 4375TIP3    H213071   2.598   6.145   3.920 -0.1841  0.4102  1.4663
 4376TIP3   OH213072   2.569   7.255   3.391  0.4356  0.0034  0.0189
 4376TIP3    H113073   2.499   7.190   3.397  1.6568 -1.1679  2.6604
 4376TIP3    H213074   2.600   7.249   3.301 -1.3320 -1.0921 -0.5428
 4377TIP3   OH213075   0.647   3.229   2.877 -0.4205  0.2970  0.1233
 4377TIP3    H113076   0.680   3.310   2.838  0.4716 -0.5408 -0.8750
 4377TIP3    H213077   0.666   3.239   2.971 -1.0120  1.5672  0.1123
 4378TIP3   OH213078   0.801   6.154   3.201  0.1958 -0.5289 -0.1271
 4378TIP3    H113079   0.831   6.139   3.290  0.8082  0.9311 -0.0652
 4378TIP3    H213080   0.820   6.247   3.185  0.3617 -0.8469 -1.8710
 4379TIP3   OH213081   2.180   4.917   4.558  0.4867  0.1081  0.3064
 4379TIP3    H113082   2.133   5.000   4.557  1.4173  0.6487 -1.6600
 4379TIP3    H213083   2.176   4.887   4.467  1.3513 -1.3231  0.7265
 4380TIP3   OH213084   0.028   6.801   2.096  0.1848 -0.2168 -0.2687
 4380TIP3    H113085   0.008   6.773   2.186  0.8851  0.7876  0.2068
 4380TIP3    H213086  -0.027   6.879   2.083 -0.0759 -0.4827 -0.7942
 4381TIP3   OH213087   1.086   5.622   3.423  0.0627 -0.4083 -0.4430
 4381TIP3    H113088   1.080   5.716   3.440 -2.8107 -0.1888 -2.3853
 4381TIP3    H213089   1.157   5.614   3.359  0.6243  0.3485  0.0641
 4382TIP3   OH213090   0.666   5.614   2.067  0.5188  0.1871  0.2872
 4382TIP3    H113091   0.593   5.553   2.064 -0.6771  1.5418  0.8336
 4382TIP3    H213092   0.672   5.640   2.159  3.1154 -1.5470  0.6721
 4383TIP3   OH213093   7.741   7.340   1.956  0.7253  0.3900 -0.6236
 4383TIP3    H113094   7.730   7.392   1.876  1.5224  0.4226 -0.7138
 4383TIP3    H213095   7.807   7.275   1.933 -0.6415 -0.9943 -0.6648
 4384TIP3   OH213096   0.807   3.234   2.228  0.5953  0.2225  0.3708
 4384TIP3    H113097   0.772   3.293   2.295  1.0949  0.8378  0.0945
 4384TIP3    H213098   0.898   3.220   2.253  0.8888  0.7512 -0.3838
 4385TIP3   OH213099   0.581   5.268   1.637 -0.2360  0.2295 -0.2670
 4385TIP3    H113100   0.567   5.208   1.711  0.8329  0.0892 -0.1665
 4385TIP3    H213101   0.552   5.353   1.670  1.1921  0.3631  0.6761
 4386TIP3   OH213102   1.385   5.722   3.653 -0.1082  0.4318 -0.0004
 4386TIP3    H113103   1.333   5.653   3.612 -1.5341  0.2317  2.0836
 4386TIP3    H213104   1.395   5.789   3.585 -1.5548 -0.3494 -0.9926
 4387TIP3   OH213105   1.716   3.632   1.922 -0.2029 -0.0391  0.4461
 4387TIP3    H113106   1.626   3.657   1.900 -0.4798 -0.2706  1.3149
 4387TIP3    H213107   1.770   3.698   1.878 -0.8129  0.3302  0.2409
 4388TIP3   OH213108   1.809   5.378   1.206 -0.1759  0.3729  0.5290
 4388TIP3    H113109   1.756   5.456   1.190  0.5519  0.6018 -0.7982
 4388TIP3    H213110   1.894   5.398   1.167 -0.3413 -1.5471 -0.8714
 4389TIP3   OH213111   1.833   6.753   2.520  0.4964  0.7566 -0.6698
 4389TIP3    H113112   1.769   6.825   2.511  0.1589  0.4402 -0.8014
 4389TIP3    H213113   1.783   6.674   2.499  0.9260  0.5035 -0.7344
 4390TIP3   OH213114   4.819   4.534   3.280  0.5265 -0.2564  0.1733
 4390TIP3    H113115   4.763   4.456   3.277  0.4339 -0.2648  1.7354
 4390TIP3    H213116   4.812   4.566   3.370  1.4746  0.8976 -0.1387
 4391TIP3   OH213117   1.377   5.575   2.163  0.1407 -0.5479 -0.4379
 4391TIP3    H113118   1.402   5.502   2.106 -1.8928 -0.1814 -1.8373
 4391TIP3    H213119   1.295   5.608   2.125 -0.1802  0.9798  1.5387
 4392TIP3   OH213120   8.376   2.570   5.645  0.0498  0.3127  0.5982
 4392TIP3    H113121   8.352   2.487   5.603  1.1584  0.1922  0.1745
 4392TIP3    H213122   8.298   2.624   5.638 -0.4031 -0.3955  0.1057
 4393TIP3   OH213123   0.027   5.331   2.840 -0.4853  0.1353 -0.0276
 4393TIP3    H113124   0.102   5.388   2.823  0.4022 -0.6038  1.3530
 4393TIP3    H213125   0.026   5.319   2.935 -1.8940 -0.4891 -0.1062
 4394TIP3   OH213126   2.628   6.101   2.165  0.7927  0.4285  0.3777
 4394TIP3    H113127   2.687   6.130   2.234  2.4758  0.6803 -1.1423
 4394TIP3    H213128   2.621   6.006   2.178  0.4485  0.5814  1.3740
 4395TIP3   OH213129   0.742   6.611   3.471 -0.0539  0.0919  0.1771
 4395TIP3    H113130   0.683   6.665   3.420  0.9166  1.6144  0.6393
 4395TIP3    H213131   0.808   6.672   3.504  0.0971 -1.0733  2.1109
 4396TIP3   OH213132   5.644   0.416   2.589  0.2128 -0.3436 -1.0105
 4396TIP3    H113133   5.597   0.368   2.521  2.1739 -0.0566 -2.6483
 4396TIP3    H213134   5.658   0.352   2.659 -2.5024 -0.4313 -0.4871
 4397TIP3   OH213135   2.732   7.269   3.806 -0.1308  0.0038  0.4557
 4397TIP3    H113136   2.789   7.347   3.803  0.0534 -0.1459 -0.0002
 4397TIP3    H213137   2.793   7.195   3.808 -0.3020 -0.2124 -1.5915
 4398TIP3   OH213138   0.739   7.242   3.656  0.3250 -0.4236  0.7424
 4398TIP3    H113139   0.785   7.298   3.718 -0.3454  0.2015  0.6783
 4398TIP3    H213140   0.726   7.297   3.579  2.5280 -1.6693 -0.5745
 4399TIP3   OH213141   1.697   4.620   3.497 -0.1994 -0.4186 -0.7244
 4399TIP3    H113142   1.616   4.580   3.468 -0.7384  0.5301 -0.5328
 4399TIP3    H213143   1.706   4.700   3.445 -0.3791  0.4740  0.5887
 4400TIP3   OH213144   7.906   4.744   2.294 -0.5421 -0.6667 -0.0431
 4400TIP3    H113145   7.939   4.688   2.365 -1.3292  1.3090  1.9574
 4400TIP3    H213146   7.820   4.708   2.273 -0.5316 -0.9426  0.3836
 4401TIP3   OH213147   3.431   6.506   3.041 -0.1463 -0.1712 -0.0267
 4401TIP3    H113148   3.345   6.537   3.015  0.2331  1.0317  0.1062
 4401TIP3    H213149   3.481   6.503   2.959 -0.0010  0.1661  0.0498
 4402TIP3   OH213150   1.115   6.343   3.927  0.3386 -0.7709  0.0832
 4402TIP3    H113151   1.140   6.275   3.864 -0.4891  0.5310 -1.7203
 4402TIP3    H213152   1.023   6.324   3.948  1.0377 -2.0816  2.1116
 4403TIP3   OH213153   0.513   6.283   3.461 -0.0679 -0.2311 -0.0245
 4403TIP3    H113154   0.545   6.330   3.537  0.6322 -1.5529  0.5206
 4403TIP3    H213155   0.444   6.226   3.495 -1.9549  1.4817 -0.9302
 4404TIP3   OH213156   8.334   6.439   1.755  0.0224  0.4796 -0.1920
 4404TIP3    H113157   8.384   6.359   1.741  0.5112  1.1897 -2.6716
 4404TIP3    H213158   8.259   6.431   1.695 -0.2041  1.6299 -0.0703
 4405TIP3   OH213159   8.268   7.143   4.564  0.1281  0.7201 -0.4160
 4405TIP3    H113160   8.353   7.186   4.555 -0.6869  1.9810 -2.4112
 4405TIP3    H213161   8.205   7.215   4.568 -0.9881 -0.2320 -0.6236
 4406TIP3   OH213162   1.399   5.540   4.544 -0.3405 -0.4090  0.6910
 4406TIP3    H113163   1.342   5.481   4.594 -0.9372  1.6805  2.5377
 4406TIP3    H213164   1.482   5.493   4.536 -0.9694 -1.7096  1.6595
 4407TIP3   OH213165   1.509   6.086   2.638 -0.2142 -0.3213 -0.3514
 4407TIP3    H113166   1.418   6.113   2.649 -0.0925 -0.3641  0.7864
 4407TIP3    H213167   1.504   6.000   2.596 -0.6180  0.9822 -3.0772
 4408TIP3   OH213168   3.445   5.404   1.067 -0.3255  0.1465  0.0654
 4408TIP3    H113169   3.431   5.497   1.085 -1.0064  0.2104 -0.7709
 4408TIP3    H213170   3.475   5.401   0.977  1.3400 -0.3196  0.6286
 4409TIP3   OH213171   2.646   4.311   3.342 -0.1949  0.4766  0.0394
 4409TIP3    H113172   2.737   4.302   3.315  0.5348  1.5844  2.0108
 4409TIP3    H213173   2.616   4.221   3.356  0.4684  0.0894 -0.9669
 4410TIP3   OH213174   8.040   6.727   2.266  0.3410  0.1747 -0.0859
 4410TIP3    H113175   8.067   6.739   2.358 -0.6395  1.1320  0.0855
 4410TIP3    H213176   8.106   6.775   2.216 -0.2491  1.3806  0.2557
 4411TIP3   OH213177   8.282   7.775   3.280  0.2551 -0.3613  0.2281
 4411TIP3    H113178   8.294   7.696   3.228  1.2013  0.3445 -0.6479
 4411TIP3    H213179   8.333   7.842   3.234 -0.5487  0.7624  0.9404
 4412TIP3   OH213180   1.689   5.244   0.946  0.2460  0.1445  0.3171
 4412TIP3    H113181   1.752   5.183   0.909  0.3173 -0.6373  1.7134
 4412TIP3    H213182   1.737   5.291   1.014 -0.7084 -0.6428  1.5816
 4413TIP3   OH213183   1.348   6.495  -0.026  0.2121  0.5566  0.0358
 4413TIP3    H113184   1.365   6.411   0.015  0.0376  0.5697  0.1340
 4413TIP3    H213185   1.308   6.548   0.043 -1.7381  0.0084 -0.6170
 4414TIP3   OH213186   3.712   6.555   4.685  0.3470  0.5857 -0.4894
 4414TIP3    H113187   3.724   6.461   4.697  1.0285  0.8027  0.6414
 4414TIP3    H213188   3.703   6.566   4.590  1.7410 -0.4514 -0.7690
 4415TIP3   OH213189   2.321   5.196   1.215 -0.3326 -0.0736 -0.0392
 4415TIP3    H113190   2.260   5.212   1.287 -1.8919 -2.1154 -0.8692
 4415TIP3    H213191   2.352   5.107   1.229  1.7984  0.6196 -0.1489
 4416TIP3   OH213192   0.678   6.813   0.527 -0.1276  0.4386 -0.0137
 4416TIP3    H113193   0.668   6.896   0.481 -0.0699  0.1722 -0.5069
 4416TIP3    H213194   0.664   6.746   0.460 -1.5439  0.0337  0.6638
 4417TIP3   OH213195   1.740   5.231   1.489  0.2108 -0.1486  0.3735
 4417TIP3    H113196   1.836   5.226   1.487  0.1293 -1.5222 -0.6239
 4417TIP3    H213197   1.717   5.276   1.408 -0.1475 -3.4461 -1.4797
 4418TIP3   OH213198   0.872   4.940   4.063 -0.0281 -0.5768  0.4071
 4418TIP3    H113199   0.824   4.874   4.013 -1.2602 -0.1714  1.0105
 4418TIP3    H213200   0.907   4.999   3.997 -0.6121 -0.7246 -0.0462
 4419TIP3   OH213201   4.460   3.515   2.994  0.1895 -0.0340 -0.3483
 4419TIP3    H113202   4.409   3.572   2.937 -0.3443 -1.9463 -1.8564
 4419TIP3    H213203   4.405   3.437   3.005  0.7366 -0.1353  1.9460
 4420TIP3   OH213204   0.588   6.360   3.018  0.0070 -0.7718 -0.4028
 4420TIP3    H113205   0.577   6.455   3.019  1.1148 -0.6319  0.2984
 4420TIP3    H213206   0.621   6.340   3.106 -2.2439 -2.0680  0.1702
 4421TIP3   OH213207   0.538   5.110   1.841  0.2448  0.4708  0.1108
 4421TIP3    H113208   0.455   5.134   1.883  0.0764  0.4703 -0.2240
 4421TIP3    H213209   0.573   5.040   1.897  0.1296  0.6225  0.3761
 4422TIP3   OH213210   1.016   2.533   4.013  0.4115 -0.0687  0.2893
 4422TIP3    H113211   1.038   2.579   3.932 -3.1249 -1.0995 -1.3504
 4422TIP3    H213212   0.950   2.589   4.055 -0.0804 -1.0660  0.8693
 4423TIP3   OH213213   1.910   6.289   2.902 -0.3940  0.1190  0.1167
 4423TIP3    H113214   1.935   6.231   2.974 -1.5787 -0.7748 -0.1770
 4423TIP3    H213215   1.843   6.347   2.941 -0.7907 -0.1447 -0.1665
 4424TIP3   OH213216   0.095   7.146   2.468 -0.0401 -0.5847  0.2109
 4424TIP3    H113217   0.146   7.078   2.425  0.5858  0.3954 -0.6029
 4424TIP3    H213218   0.115   7.226   2.420 -1.8057 -0.0595  0.3179
 4425TIP3   OH213219   1.977   5.808   4.019 -0.1941 -0.4205 -0.7430
 4425TIP3    H113220   1.986   5.881   3.957  0.3536  0.0835 -0.0866
 4425TIP3    H213221   1.892   5.823   4.060 -0.7516 -0.9983 -1.6695
 4426TIP3   OH213222   1.625   6.006   3.021 -0.8242 -0.1996  0.0440
 4426TIP3    H113223   1.714   6.030   3.046  0.0635 -2.6790 -0.5609
 4426TIP3    H213224   1.635   5.921   2.978 -3.2979  0.2096 -1.4218
 4427TIP3   OH213225   0.085   5.730   2.806 -0.3104  0.1849  0.3487
 4427TIP3    H113226   0.098   5.637   2.787  0.6879  0.5325 -0.7856
 4427TIP3    H213227   0.016   5.756   2.745 -0.5878  0.1812  0.6650
 4428TIP3   OH213228   3.082   5.200   5.398  0.5496 -0.9497  0.8867
 4428TIP3    H113229   3.109   5.284   5.360  1.8558 -1.6424  0.2780
 4428TIP3    H213230   2.993   5.217   5.431 -0.3387 -0.1268 -1.7716
 4429TIP3   OH213231   2.557   6.265   3.200  0.0356  0.2668 -0.3981
 4429TIP3    H113232   2.537   6.320   3.276  1.8580 -1.4604  1.4022
 4429TIP3    H213233   2.479   6.209   3.191 -1.5057  2.5668 -1.7876
 4430TIP3   OH213234   0.473   5.715   0.854 -0.4019 -0.1089  0.4196
 4430TIP3    H113235   0.491   5.787   0.793  0.9349 -0.8136 -0.0425
 4430TIP3    H213236   0.495   5.750   0.940 -1.3844  0.5803  0.4040
 4431TIP3   OH213237   2.061   4.461   2.564  0.0141  0.5719  0.0560
 4431TIP3    H113238   2.065   4.556   2.569  1.2901  0.5791 -0.8053
 4431TIP3    H213239   2.055   4.432   2.655  2.8338  1.3746  0.5494
 4432TIP3   OH213240   0.436   5.958   1.256 -0.2931 -0.0482  0.0254
 4432TIP3    H113241   0.489   5.938   1.334  0.3666 -0.5873 -0.5587
 4432TIP3    H213242   0.358   6.001   1.291 -0.4240 -1.1013  1.0626
 4433TIP3   OH213243   8.123   6.192   1.453  0.1597  0.1841 -0.4417
 4433TIP3    H113244   8.161   6.184   1.365 -1.3531  1.7826 -1.2711
 4433TIP3    H213245   8.146   6.280   1.481 -1.9957  0.7968 -0.5329
 4434TIP3   OH213246   0.561   3.493   2.349  0.4270  0.4054  0.2453
 4434TIP3    H113247   0.640   3.488   2.403  0.0808 -0.9961  0.6466
 4434TIP3    H213248   0.584   3.554   2.279  1.8650  0.0332  0.3706
 4435TIP3   OH213249   0.912   3.979   4.703  0.4729  0.5086 -0.2056
 4435TIP3    H113250   0.915   4.061   4.751  0.8358 -1.2374  2.9123
 4435TIP3    H213251   0.845   3.993   4.635 -1.6249  2.4088  2.1519
 4436TIP3   OH213252   4.278   1.143   1.451  0.0496  0.3945  0.2500
 4436TIP3    H113253   4.265   1.093   1.371 -0.4346 -1.6542  1.5776
 4436TIP3    H213254   4.208   1.209   1.449 -1.9318 -1.6218  0.4639
 4437TIP3   OH213255   3.238   5.634   2.055  0.1402  0.8594 -0.1176
 4437TIP3    H113256   3.278   5.548   2.068 -1.4423 -0.1104 -1.5911
 4437TIP3    H213257   3.160   5.617   2.003 -2.3332  2.6905  2.8101
 4438TIP3   OH213258   1.029   4.844   3.818  0.2799  0.7028 -0.7588
 4438TIP3    H113259   1.028   4.749   3.807  0.9291  0.6354 -0.2904
 4438TIP3    H213260   0.941   4.872   3.794 -0.0884 -0.0795 -0.3454
 4439TIP3   OH213261   1.606   5.621   3.225 -0.3395 -0.6085 -0.1593
 4439TIP3    H113262   1.547   5.548   3.245 -1.2008 -0.5830 -2.4673
 4439TIP3    H213263   1.685   5.579   3.191 -0.6111 -0.5051 -0.9309
 4440TIP3   OH213264   1.485   5.327   3.689 -1.0906 -0.8988 -0.7541
 4440TIP3    H113265   1.444   5.289   3.766 -0.0367 -0.2000  0.1627
 4440TIP3    H213266   1.412   5.365   3.639 -1.6538 -0.4455  0.4109
 4441TIP3   OH213267   7.851   5.559   1.475  0.5360 -0.2382 -0.0612
 4441TIP3    H113268   7.936   5.518   1.490 -0.1728 -1.1605  1.5145
 4441TIP3    H213269   7.821   5.584   1.562 -1.3601 -1.0092 -0.4902
 4442TIP3   OH213270   1.791   6.156   2.377  0.2124  0.5913  0.1414
 4442TIP3    H113271   1.869   6.155   2.322 -0.7818 -1.8919 -1.3016
 4442TIP3    H213272   1.821   6.190   2.462  3.2754 -2.0699  0.1978
 4443TIP3   OH213273   1.879   5.555   3.102 -0.4747  0.4274  0.4770
 4443TIP3    H113274   1.822   5.512   3.038 -1.2081  1.9788  0.0758
 4443TIP3    H213275   1.902   5.638   3.062 -0.9929  1.4556  2.2457
 4444TIP3   OH213276   0.636   5.985   2.633  0.0115  0.6330 -0.5271
 4444TIP3    H113277   0.637   6.026   2.719  2.0400  1.1629 -0.7669
 4444TIP3    H213278   0.626   6.058   2.572  0.0230  0.4125 -0.7942
 4445TIP3   OH213279   3.510   4.459   4.873  0.0461 -0.6731  0.5175
 4445TIP3    H113280   3.425   4.480   4.836  0.0235 -0.7078  0.5485
 4445TIP3    H213281   3.569   4.528   4.841 -0.0190 -0.5850  0.5883
 4446TIP3   OH213282   3.371   4.586   3.172  0.2018 -0.1960  0.2484
 4446TIP3    H113283   3.461   4.602   3.200  1.4566 -2.3977 -2.2825
 4446TIP3    H213284   3.334   4.673   3.158  2.4798  0.7161 -0.3357
 4447TIP3   OH213285   2.648   3.818   2.816  0.5350 -0.1515 -0.0160
 4447TIP3    H113286   2.694   3.775   2.889 -0.7171 -0.3078  0.6918
 4447TIP3    H213287   2.557   3.821   2.844  0.0722 -0.0323 -1.5061
 4448TIP3   OH213288   2.295   7.286   3.101 -0.0523 -0.1181 -0.1356
 4448TIP3    H113289   2.299   7.374   3.138 -2.5865  0.1797 -0.5186
 4448TIP3    H213290   2.297   7.299   3.006  1.6044 -0.6207 -0.1978
 4449TIP3   OH213291   3.220   4.806   2.446  0.3607  0.0624 -0.2422
 4449TIP3    H113292   3.234   4.891   2.488  0.9496 -0.3270  0.3410
 4449TIP3    H213293   3.302   4.758   2.460 -0.2911 -0.9307  0.1908
 4450TIP3   OH213294   1.907   5.638   5.355 -0.1445 -0.1453  0.2546
 4450TIP3    H113295   1.990   5.658   5.399 -0.2665 -1.3511  1.0758
 4450TIP3    H213296   1.850   5.607   5.425 -1.3705  0.8792 -0.2775
 4451TIP3   OH213297   5.339   2.790   3.539  0.3039 -0.1595  0.0981
 4451TIP3    H113298   5.300   2.711   3.501  0.8341 -0.0880 -0.5915
 4451TIP3    H213299   5.293   2.801   3.623  1.3842 -2.1240  0.9676
 4452TIP3   OH213300   4.294   5.296   3.207  0.1445  0.8079  0.1464
 4452TIP3    H113301   4.330   5.230   3.147  1.8628  2.2499 -0.4638
 4452TIP3    H213302   4.245   5.356   3.150  0.2084  1.1352  0.4322
 4453TIP3   OH213303   2.155   5.953   2.338 -0.2664 -0.2974  0.3105
 4453TIP3    H113304   2.151   6.010   2.415  0.1068  0.6505 -0.3580
 4453TIP3    H213305   2.235   5.901   2.352 -0.0564  0.0555  0.4379
 4454TIP3   OH213306   1.501   4.580   4.286 -0.2054 -0.9734  0.3314
 4454TIP3    H113307   1.559   4.519   4.240  0.6690  0.0660  0.0493
 4454TIP3    H213308   1.551   4.607   4.363 -0.9273 -1.2483  0.9071
 4455TIP3   OH213309   4.012   2.744   3.812 -0.2086 -0.3327 -0.3277
 4455TIP3    H113310   4.080   2.676   3.808  0.5284  0.1659  2.9148
 4455TIP3    H213311   4.059   2.824   3.834 -1.5390  0.5508 -0.6503
 4456TIP3   OH213312   0.826   3.822   3.713 -0.5340 -0.2417 -0.0224
 4456TIP3    H113313   0.761   3.883   3.748 -0.5990 -0.0085 -0.5399
 4456TIP3    H213314   0.796   3.804   3.624 -1.9910 -3.1478  1.0001
 4457TIP3   OH213315   1.677   6.285   1.000 -0.1765  0.1320 -0.0869
 4457TIP3    H113316   1.738   6.316   1.068 -1.2919 -0.8090  1.3829
 4457TIP3    H213317   1.599   6.257   1.049 -1.4389  0.4464 -1.8528
 4458TIP3   OH213318   8.394   6.983   1.959 -0.1887 -0.5324 -0.2047
 4458TIP3    H113319   8.488   6.996   1.942 -0.2813  1.6153  0.7682
 4458TIP3    H213320   8.351   7.019   1.881 -0.2287 -1.0939 -0.4449
 4459TIP3   OH213321   8.175   5.454   4.564 -0.8410 -0.5685  0.4245
 4459TIP3    H113322   8.245   5.406   4.521 -0.0092  0.2108  0.8992
 4459TIP3    H213323   8.095   5.428   4.518  0.2517  1.9103 -3.0194
 4460TIP3   OH213324   8.213   6.167   1.160 -0.3840 -0.3055 -0.2644
 4460TIP3    H113325   8.191   6.252   1.198  0.8971 -0.4634  0.8619
 4460TIP3    H213326   8.242   6.186   1.071  1.0302  0.5646  0.3733
 4461TIP3   OH213327   2.580   7.470   2.809 -0.1527 -0.7076 -0.2091
 4461TIP3    H113328   2.601   7.445   2.899 -1.6231 -2.3583 -0.2844
 4461TIP3    H213329   2.634   7.412   2.755 -0.9903 -1.3436 -0.3774
 4462TIP3   OH213330   1.182   6.000   1.214  0.0498 -0.0857  0.5794
 4462TIP3    H113331   1.137   6.084   1.213 -1.1442 -0.7276 -0.2054
 4462TIP3    H213332   1.177   5.971   1.306 -1.2035 -0.1757  0.4930
 4463TIP3   OH213333   1.489   5.073   3.376 -0.2083  0.1145 -0.3198
 4463TIP3    H113334   1.571   5.119   3.361 -0.1248  0.5002  1.1843
 4463TIP3    H213335   1.500   5.033   3.463 -0.5181 -2.2062 -1.2968
 4464TIP3   OH213336   2.244   5.170   2.471 -0.3632  0.2051  0.5504
 4464TIP3    H113337   2.339   5.172   2.463 -0.2605  0.4192  1.8194
 4464TIP3    H213338   2.216   5.259   2.450 -0.2602  0.2505  0.6105
 4465TIP3   OH213339   1.277   5.696   2.404 -0.3654  0.5451  0.1000
 4465TIP3    H113340   1.266   5.651   2.488  1.3891 -0.2429 -0.0721
 4465TIP3    H213341   1.296   5.626   2.342 -2.4282  1.0423 -1.1409
 4466TIP3   OH213342   4.343   6.605   0.855  0.2894 -0.0773  0.0849
 4466TIP3    H113343   4.308   6.646   0.776 -0.9794 -2.1295 -0.4608
 4466TIP3    H213344   4.325   6.667   0.925  0.6375  1.3758 -1.0946
 4467TIP3   OH213345   1.850   4.408   0.725 -0.0570 -0.0454  0.0378
 4467TIP3    H113346   1.892   4.326   0.752 -0.1997 -0.1941 -0.1838
 4467TIP3    H213347   1.802   4.385   0.646 -1.4488 -0.1496  0.8846
 4468TIP3   OH213348   3.059   5.999   0.620 -0.1941  0.2903  0.4729
 4468TIP3    H113349   3.088   6.088   0.602 -1.4868  0.8996  1.3244
 4468TIP3    H213350   2.965   6.001   0.604 -0.5988 -0.3337  2.7181
 4469TIP3   OH213351   2.487   5.239   1.709  0.2656 -0.4366 -0.2911
 4469TIP3    H113352   2.435   5.228   1.789 -2.5855  0.7874 -1.9166
 4469TIP3    H213353   2.575   5.259   1.741 -0.7075 -0.4529  2.5487
 4470TIP3   OH213354   3.236   7.644   1.459  0.0162 -0.1443 -0.4117
 4470TIP3    H113355   3.143   7.663   1.475  0.2856  1.3649 -0.5149
 4470TIP3    H213356   3.236   7.558   1.418 -1.4425  0.3584 -1.5132
 4471TIP3   OH213357   8.160   6.039   1.691  0.1654  0.0864 -0.5932
 4471TIP3    H113358   8.112   6.101   1.637  1.0959 -0.1846 -1.7420
 4471TIP3    H213359   8.187   5.970   1.631  3.3346  0.9865 -0.3160
 4472TIP3   OH213360   3.377   7.805   3.163  0.3855 -0.2080 -0.5187
 4472TIP3    H113361   3.359   7.895   3.190  0.7437 -0.1064 -0.6192
 4472TIP3    H213362   3.373   7.755   3.244 -0.4269 -0.1986 -0.5509
 4473TIP3   OH213363   2.522   5.980   3.898 -0.0557  0.2340 -0.2191
 4473TIP3    H113364   2.489   5.932   3.821 -2.5167  2.8365 -0.8881
 4473TIP3    H213365   2.523   5.915   3.968  0.6179 -1.7814 -2.0439
 4474TIP3   OH213366   5.377   3.637   4.367  0.6140 -0.6132  0.5757
 4474TIP3    H113367   5.466   3.613   4.394  1.6181  1.2136 -0.9749
 4474TIP3    H213368   5.385   3.653   4.272 -1.5531 -1.2672  0.2682
 4475TIP3   OH213369   0.692   3.429   3.155  0.7666  0.5016  0.6740
 4475TIP3    H113370   0.730   3.345   3.181  1.0652  0.4568  0.1165
 4475TIP3    H213371   0.599   3.420   3.175  0.8912  0.2568  1.1658
 4476TIP3   OH213372   3.241   6.137   2.978 -0.3941 -0.2703  0.2979
 4476TIP3    H113373   3.154   6.098   2.974 -0.1951 -0.7766  0.8614
 4476TIP3    H213374   3.253   6.161   3.070 -0.5043  1.1029 -0.0330
 4477TIP3   OH213375   2.151   6.125   2.557  0.0280  0.0196 -0.3579
 4477TIP3    H113376   2.246   6.128   2.551  0.2799  1.2616  3.0682
 4477TIP3    H213377   2.126   6.212   2.591 -2.1384 -0.8914  0.4949
 4478TIP3   OH213378   0.753   6.607   4.154  0.2131  0.1438  0.3040
 4478TIP3    H113379   0.836   6.653   4.169  0.0855 -0.1020  1.8708
 4478TIP3    H213380   0.707   6.660   4.089  1.3381  0.6181 -0.1176
 4479TIP3   OH213381   2.858   2.464   4.427 -0.7572 -0.0391 -0.1185
 4479TIP3    H113382   2.807   2.476   4.346 -0.9022 -1.4966 -0.2502
 4479TIP3    H213383   2.947   2.490   4.403 -0.7466 -0.7044 -0.8251
 4480TIP3   OH213384   3.834   6.635   2.278  0.0946  0.5736 -0.0949
 4480TIP3    H113385   3.817   6.630   2.185 -2.8884 -1.6020  0.5075
 4480TIP3    H213386   3.818   6.726   2.301  0.6485  1.0741 -1.6449
 4481TIP3   OH213387   1.638   3.268   4.079  0.3976  0.4502  0.3243
 4481TIP3    H113388   1.611   3.182   4.048  1.7195  0.0192  0.3571
 4481TIP3    H213389   1.625   3.326   4.004  0.8403 -0.0368 -0.1242
 4482TIP3   OH213390   1.951   6.040   3.137  0.2246  0.2819  0.1893
 4482TIP3    H113391   2.005   6.119   3.131  0.5467  0.1829  1.5705
 4482TIP3    H213392   1.912   6.045   3.225  0.7917 -1.4391  0.5585
 4483TIP3   OH213393   2.732   4.636   3.740 -0.4961  0.3263 -0.1076
 4483TIP3    H113394   2.716   4.726   3.771 -0.4343  0.6337 -0.9424
 4483TIP3    H213395   2.690   4.633   3.654 -2.0455 -0.9963  0.6645
 4484TIP3   OH213396   3.982   4.161   2.122 -0.3336  0.1642  0.8602
 4484TIP3    H113397   4.071   4.128   2.113 -0.7219 -0.0059 -3.6752
 4484TIP3    H213398   3.927   4.083   2.121 -0.6753  0.4022  0.9425
 4485TIP3   OH213399   0.200   5.483   3.272  0.0178  0.0572 -0.1815
 4485TIP3    H113400   0.278   5.443   3.234  0.7163  0.1835  1.0949
 4485TIP3    H213401   0.219   5.577   3.273 -0.4590  0.1592 -0.5597
 4486TIP3   OH213402   3.432   0.228   3.032  0.3221  0.2395  0.3012
 4486TIP3    H113403   3.493   0.294   2.999 -0.6494  0.7479 -0.5305
 4486TIP3    H213404   3.350   0.246   2.985 -0.4722 -0.4161  1.4123
 4487TIP3   OH213405   2.702   5.741   5.883  0.3294  0.7240  0.4512
 4487TIP3    H113406   2.657   5.703   5.807  0.9326  2.4535 -0.7787
 4487TIP3    H213407   2.637   5.738   5.953 -0.2663 -0.7841 -0.1516
 4488TIP3   OH213408   0.901   7.651   3.660 -0.0977  0.3227  0.0866
 4488TIP3    H113409   0.975   7.688   3.611 -1.6221  2.0806 -1.0024
 4488TIP3    H213410   0.872   7.723   3.716 -1.1848 -0.2421  0.2544
 4489TIP3   OH213411   0.647   6.466   2.409  0.1383  0.6028  0.1388
 4489TIP3    H113412   0.627   6.372   2.409  0.3412  0.5190 -2.6078
 4489TIP3    H213413   0.571   6.507   2.451  0.0162 -0.7637  1.2780
 4490TIP3   OH213414   3.148   6.836   2.525  0.6072 -0.0788  0.1160
 4490TIP3    H113415   3.178   6.771   2.462 -0.9102  0.6555 -1.4081
 4490TIP3    H213416   3.163   6.920   2.482  0.1390  0.4705  0.9997
 4491TIP3   OH213417   1.758   4.766   4.737 -0.0073  0.5547 -0.0914
 4491TIP3    H113418   1.742   4.859   4.720  0.6327  0.8134  0.6949
 4491TIP3    H213419   1.852   4.756   4.725 -0.1273 -0.0604 -0.4921
 4492TIP3   OH213420   3.823   4.291   1.803  0.3977  0.4273 -0.1411
 4492TIP3    H113421   3.805   4.211   1.853  1.3853  0.2773 -0.0244
 4492TIP3    H213422   3.812   4.361   1.867 -0.3073  0.3777 -0.2028
 4493TIP3   OH213423   1.892   7.364   2.741  0.3035  0.0692  0.3044
 4493TIP3    H113424   1.899   7.360   2.837  1.1916  0.8822  0.2868
 4493TIP3    H213425   1.932   7.283   2.710  1.3077  0.4564  0.5729
 4494TIP3   OH213426   1.252   7.444   0.700 -0.4686  0.0375 -0.3785
 4494TIP3    H113427   1.158   7.427   0.696 -0.9530  2.2585  0.5539
 4494TIP3    H213428   1.280   7.406   0.784 -0.5049 -0.7503 -0.7233
 4495TIP3   OH213429   2.478   5.449   1.191 -0.4732  0.3140  0.2728
 4495TIP3    H113430   2.559   5.440   1.242 -0.2132 -1.3410 -0.3959
 4495TIP3    H213431   2.441   5.360   1.189 -0.9746  0.5527 -1.5827
 4496TIP3   OH213432   3.359   4.523   2.233 -0.0283 -0.6663 -0.4185
 4496TIP3    H113433   3.297   4.559   2.296 -0.1497  0.2775 -1.0694
 4496TIP3    H213434   3.427   4.483   2.287  0.2738  0.8261  0.3347
 4497TIP3   OH213435   1.415   7.930   2.073  0.1850  0.8258  0.4324
 4497TIP3    H113436   1.450   8.010   2.113  0.9844 -0.3427  2.1248
 4497TIP3    H213437   1.322   7.949   2.058  0.3596  2.0531  0.8277
 4498TIP3   OH213438   8.300   5.745   2.710 -0.4882  0.0197  0.4634
 4498TIP3    H113439   8.207   5.724   2.721 -0.7752  0.0016 -1.7753
 4498TIP3    H213440   8.334   5.675   2.655  0.7730  0.2116  0.9984
 4499TIP3   OH213441   8.179   6.903   2.098  0.4908  0.3562  0.4214
 4499TIP3    H113442   8.270   6.928   2.080  0.3359  1.1517  0.7420
 4499TIP3    H213443   8.139   6.895   2.011  0.9615 -0.3855  0.2604
 4500TIP3   OH213444   7.905   7.799   1.959  0.6404 -0.0568  0.1272
 4500TIP3    H113445   7.891   7.766   2.048 -0.6380 -0.1493 -0.1024
 4500TIP3    H213446   7.941   7.724   1.911  0.5239 -0.2528  0.3458
 4501TIP3   OH213447   3.983   3.553   2.956  0.0921 -0.9038  0.2771
 4501TIP3    H113448   4.024   3.580   2.875 -1.4620  1.4686  0.2410
 4501TIP3    H213449   3.920   3.486   2.930 -0.1971 -0.3592 -0.4302
 4502TIP3   OH213450   2.248   2.050   2.812 -0.7097  0.1983 -0.5490
 4502TIP3    H113451   2.239   2.145   2.821 -3.7785  0.0224 -1.2528
 4502TIP3    H213452   2.167   2.015   2.849  0.4003 -2.1822 -0.2677
 4503TIP3   OH213453   3.091   6.114   4.505  0.1740  0.3560  0.2829
 4503TIP3    H113454   3.155   6.058   4.462 -1.3762  0.5920 -2.4333
 4503TIP3    H213455   3.065   6.177   4.438 -1.3481  1.5809  1.9689
 4504TIP3   OH213456   1.475   5.827   2.548 -0.2202  0.3265  0.2346
 4504TIP3    H113457   1.413   5.793   2.484  1.4339  1.1914 -1.9219
 4504TIP3    H213458   1.551   5.769   2.541  0.1564  0.7080  1.0725
 4505TIP3   OH213459   1.666   4.256   3.043  0.5173  0.0687  0.1943
 4505TIP3    H113460   1.689   4.189   3.107  0.6750 -0.5291 -0.4768
 4505TIP3    H213461   1.697   4.338   3.081  3.7466 -0.6826 -0.6273
 4506TIP3   OH213462   2.199   4.417   3.089  0.0023  0.3906  0.5709
 4506TIP3    H113463   2.154   4.399   3.172 -0.9852 -2.4037 -0.5220
 4506TIP3    H213464   2.279   4.365   3.094  0.5369  1.1742  0.2598
 4507TIP3   OH213465   1.789   5.245   1.914  0.0442  0.0859  0.0166
 4507TIP3    H113466   1.818   5.157   1.939 -0.2775 -0.0939 -0.2401
 4507TIP3    H213467   1.867   5.286   1.877 -0.7959 -1.5558 -3.7659
 4508TIP3   OH213468   2.442   3.670   2.219 -0.1079 -0.7160 -0.0489
 4508TIP3    H113469   2.436   3.623   2.136  1.6299 -1.8666  0.4699
 4508TIP3    H213470   2.525   3.718   2.215 -1.4980  1.8025 -0.2703
 4509TIP3   OH213471   0.881   5.582   2.921 -0.5513 -0.0282 -0.3500
 4509TIP3    H113472   0.900   5.566   3.014  0.0460 -0.8190 -0.6056
 4509TIP3    H213473   0.791   5.551   2.910 -0.0637 -1.4698 -0.3979
 4510TIP3   OH213474   1.002   3.562   3.531  0.0033  0.9876 -0.2271
 4510TIP3    H113475   0.920   3.582   3.485  1.6091  1.7890 -2.8612
 4510TIP3    H213476   1.064   3.627   3.499  1.4171  1.1485  2.6204
 4511TIP3   OH213477   2.759   5.517   4.087 -0.3951  0.2240 -0.3241
 4511TIP3    H113478   2.788   5.538   4.175  0.4156 -1.3229 -0.1958
 4511TIP3    H213479   2.763   5.421   4.083 -2.9668  0.1192 -1.1808
 4512TIP3   OH213480   0.297   7.021   1.464 -0.0012 -0.0827 -0.4309
 4512TIP3    H113481   0.347   6.978   1.394  0.0599 -0.7239  0.0058
 4512TIP3    H213482   0.320   6.973   1.543 -0.2333  0.5119  0.0034
 4513TIP3   OH213483   2.246   6.275   1.166 -0.3047 -0.1083  0.1841
 4513TIP3    H113484   2.270   6.263   1.258  0.0458  1.2357  0.2839
 4513TIP3    H213485   2.159   6.235   1.159  0.6908 -2.4263  0.4936
 4514TIP3   OH213486   3.511   3.727   2.847 -0.1824  0.0155 -0.0119
 4514TIP3    H113487   3.419   3.724   2.821  0.0712  0.3463 -0.9493
 4514TIP3    H213488   3.525   3.644   2.893 -0.7811 -0.3245 -0.4376
 4515TIP3   OH213489   2.871   5.626   4.621  0.2379 -0.2414 -0.0959
 4515TIP3    H113490   2.810   5.652   4.690 -0.2055  1.1795 -0.9977
 4515TIP3    H213491   2.957   5.654   4.653  0.6846 -3.7081  1.9029
 4516TIP3   OH213492   1.134   5.773   2.933 -0.0689 -0.6544 -0.1147
 4516TIP3    H113493   1.129   5.773   3.029  0.8754  0.5731 -0.0591
 4516TIP3    H213494   1.225   5.752   2.914  0.2312  1.0740 -0.6948
 4517TIP3   OH213495   1.801   2.454   3.745 -0.3451 -0.5538  0.2536
 4517TIP3    H113496   1.881   2.434   3.794  1.2893  1.8347 -1.3600
 4517TIP3    H213497   1.740   2.488   3.811  0.5039 -0.9255  1.2396
 4518TIP3   OH213498   0.844   4.522   2.477  0.2349  0.3510 -0.5217
 4518TIP3    H113499   0.814   4.559   2.394 -0.6115 -0.4754 -0.5966
 4518TIP3    H213500   0.935   4.498   2.461  0.0110  0.0048 -1.2839
 4519TIP3   OH213501   2.550   7.759   2.827 -0.4846  0.3016 -0.2023
 4519TIP3    H113502   2.607   7.765   2.903 -0.2123  0.4925 -0.4233
 4519TIP3    H213503   2.538   7.665   2.813  1.0104  0.2292 -1.0857
 4520TIP3   OH213504   4.163   5.916   2.151 -0.3507 -0.0542 -0.0513
 4520TIP3    H113505   4.217   5.847   2.113  0.3238  0.5596 -0.2038
 4520TIP3    H213506   4.089   5.924   2.091  0.9682  1.2644 -1.5324
 4521TIP3   OH213507   4.561   6.875   3.299  0.4917  0.5489  0.0157
 4521TIP3    H113508   4.635   6.827   3.337 -0.2296 -0.8651 -0.3040
 4521TIP3    H213509   4.596   6.912   3.218  0.1595 -2.5186 -1.6329
 4522TIP3   OH213510   3.862   7.071   2.710  0.4692 -0.0561  0.1657
 4522TIP3    H113511   3.917   7.055   2.633 -1.7988  1.0179 -1.7746
 4522TIP3    H213512   3.875   7.163   2.730  0.9902 -0.3159  1.0102
 4523TIP3   OH213513   4.566   4.662   3.178 -0.2018 -0.5889 -0.1805
 4523TIP3    H113514   4.564   4.650   3.083 -0.7150 -1.8986 -0.0183
 4523TIP3    H213515   4.658   4.653   3.202 -0.2524 -1.7746 -0.3894
 4524TIP3   OH213516   8.275   5.130   3.401  0.0261 -0.3114 -0.4197
 4524TIP3    H113517   8.351   5.115   3.458 -0.6607  0.1510  0.6419
 4524TIP3    H213518   8.302   5.202   3.344  0.2615  0.0756  0.1797
 4525TIP3   OH213519   3.469   3.209   4.498  0.3015 -0.1479 -0.1574
 4525TIP3    H113520   3.496   3.296   4.526 -1.1032  0.8278 -1.6780
 4525TIP3    H213521   3.546   3.173   4.454  1.9884 -1.0744  3.4502
 4526TIP3   OH213522   8.395   1.811   6.754  0.2580  0.2367  0.1968
 4526TIP3    H113523   8.422   1.902   6.743  1.3097 -0.2262 -1.3031
 4526TIP3    H213524   8.476   1.765   6.777  0.1557 -0.6654 -1.2186
 4527TIP3   OH213525   4.040   6.343   5.879  0.1214 -0.0976 -0.8219
 4527TIP3    H113526   3.977   6.386   5.821  0.3045  2.5306  0.8405
 4527TIP3    H213527   4.051   6.404   5.952  2.3472 -1.8621  0.3867
 4528TIP3   OH213528   4.480   6.144   1.035 -0.4421 -0.1322  0.5146
 4528TIP3    H113529   4.498   6.076   0.970 -1.2427 -1.0940  1.2829
 4528TIP3    H213530   4.479   6.226   0.985  0.4536 -0.6898 -0.4310
 4529TIP3   OH213531   1.903   5.777   2.371 -0.2016 -0.1423  0.4808
 4529TIP3    H113532   1.835   5.833   2.332 -0.1769 -1.4612 -1.5264
 4529TIP3    H213533   1.984   5.803   2.325 -0.1317 -1.5708 -0.2182
 4530TIP3   OH213534   4.376   5.377   2.805 -0.1972 -0.3808 -0.1263
 4530TIP3    H113535   4.388   5.336   2.890  1.3345 -2.2182 -1.1852
 4530TIP3    H213536   4.282   5.374   2.789 -0.4519 -0.3176  1.3522
 4531TIP3   OH213537   1.752   6.154   4.280  0.0081  0.4373 -0.1840
 4531TIP3    H113538   1.839   6.169   4.317 -0.3152  1.0717  0.3205
 4531TIP3    H213539   1.693   6.203   4.337 -0.9647 -1.9425  0.9178
 4532TIP3   OH213540   3.725   4.212   3.229  0.1747  0.2727  0.3032
 4532TIP3    H113541   3.632   4.232   3.235  0.0204 -0.2372 -0.3593
 4532TIP3    H213542   3.768   4.295   3.249 -0.4174  0.5237  0.5594
 4533TIP3   OH213543   2.619   5.811   2.177  0.0818  0.3554  0.4682
 4533TIP3    H113544   2.595   5.763   2.098 -0.9688  0.1229  0.9194
 4533TIP3    H213545   2.714   5.798   2.185 -0.1147 -1.2179  0.3221
 4534TIP3   OH213546   5.529   5.504   1.371  0.2576 -0.4062  0.1172
 4534TIP3    H113547   5.616   5.474   1.343  0.1793 -0.7090  0.2069
 4534TIP3    H213548   5.489   5.537   1.290  1.2280  1.6425  0.4114
 4535TIP3   OH213549   2.281   6.521   3.182  0.3996 -0.1510  0.6625
 4535TIP3    H113550   2.311   6.528   3.092  0.3266  0.7015  0.7014
 4535TIP3    H213551   2.357   6.488   3.230  0.2806 -1.1088  0.2047
 4536TIP3   OH213552   1.824   3.325   4.265  0.5840  0.4573  0.7178
 4536TIP3    H113553   1.756   3.299   4.203 -1.2844  0.9638  2.5083
 4536TIP3    H213554   1.839   3.418   4.247  1.5854  0.1044 -0.3687
 4537TIP3   OH213555   5.482   6.073   1.538 -0.6986 -0.1323 -0.3361
 4537TIP3    H113556   5.512   6.159   1.569 -0.1898 -0.5926  0.4616
 4537TIP3    H213557   5.488   6.078   1.443  0.4753  0.3007 -0.2457
 4538TIP3   OH213558   4.079   6.903   1.271 -0.1656 -0.3195  0.2768
 4538TIP3    H113559   4.029   6.821   1.279  0.2283 -0.6068 -0.2028
 4538TIP3    H213560   4.024   6.959   1.216 -0.2124 -0.4381  0.2010
 4539TIP3   OH213561   3.583   4.412   3.519  0.0739 -0.2895  0.3545
 4539TIP3    H113562   3.559   4.488   3.572  1.8288  1.2680 -1.0513
 4539TIP3    H213563   3.646   4.364   3.573  0.1536  0.0724  0.5809
 4540TIP3   OH213564   3.776   6.076   2.352  0.0677 -0.4434  0.0971
 4540TIP3    H113565   3.801   6.010   2.416  1.7574 -0.5860 -0.6732
 4540TIP3    H213566   3.741   6.026   2.278  0.2221 -0.4132  0.0027
 4541TIP3   OH213567   1.041   5.060   2.050 -0.6688 -0.0298  0.3727
 4541TIP3    H113568   0.953   5.087   2.025 -1.4404 -2.2311  0.5827
 4541TIP3    H213569   1.050   5.086   2.141 -0.9267  0.6274  0.2124
 4542TIP3   OH213570   2.281   6.912   0.741  0.3077 -0.1571  0.6576
 4542TIP3    H113571   2.283   6.916   0.837 -0.5881 -1.1739  0.7125
 4542TIP3    H213572   2.335   6.836   0.719  0.2508 -0.1137  0.3680
 4543TIP3   OH213573   4.332   6.712   3.326 -0.3515  0.2209  0.0936
 4543TIP3    H113574   4.397   6.781   3.311 -0.9799  0.5992 -0.9294
 4543TIP3    H213575   4.254   6.758   3.355 -1.0011  0.0157 -1.2917
 4544TIP3   OH213576   1.455   5.560   1.589  0.1993 -0.0514  0.1577
 4544TIP3    H113577   1.529   5.527   1.641  0.0925 -1.5494 -0.6104
 4544TIP3    H213578   1.459   5.509   1.507 -1.7830 -0.2827  0.1779
 4545TIP3   OH213579   4.107   6.963   4.438  0.3588  0.0211 -0.2701
 4545TIP3    H113580   4.151   6.991   4.357  2.0485 -1.1784  0.2102
 4545TIP3    H213581   4.167   6.901   4.478 -2.2016 -2.3742 -0.0190
 4546TIP3   OH213582   4.834   6.690   2.893 -0.5740 -0.8277 -0.5800
 4546TIP3    H113583   4.833   6.614   2.951 -0.8579 -0.9688 -0.7716
 4546TIP3    H213584   4.745   6.695   2.858 -0.0056 -1.6214 -2.1590
 4547TIP3   OH213585   4.055   7.181   1.141  0.1516  0.1219 -0.2429
 4547TIP3    H113586   4.030   7.273   1.150  1.0614  0.4943 -1.4224
 4547TIP3    H213587   4.009   7.151   1.062  0.1956 -0.3114 -0.1051
 4548TIP3   OH213588   2.689   6.119   2.585  0.0256  0.4245 -0.0718
 4548TIP3    H113589   2.701   6.025   2.570  0.6213  0.3345  0.9412
 4548TIP3    H213590   2.722   6.160   2.506 -0.2449 -0.2170 -0.5237
 4549TIP3   OH213591   3.100   5.337   2.360  0.4805 -0.0959  0.5846
 4549TIP3    H113592   3.079   5.355   2.268 -0.6776 -0.1385  0.8389
 4549TIP3    H213593   3.058   5.253   2.378  0.7308 -0.1024  1.1458
 4550TIP3   OH213594   2.876   5.535   1.646  0.1857  0.0522 -0.2138
 4550TIP3    H113595   2.841   5.456   1.688  1.7063  0.1868  1.3469
 4550TIP3    H213596   2.945   5.503   1.589 -1.5679 -0.0801 -2.3368
 4551TIP3   OH213597   3.045   4.945   1.391 -0.7347 -0.2137  0.3718
 4551TIP3    H113598   3.013   4.952   1.301 -0.2480 -0.7758  0.1559
 4551TIP3    H213599   3.071   4.853   1.401  2.6840  0.6201 -0.1009
 4552TIP3   OH213600   7.112   0.860   0.961  0.0659  0.1781 -0.0449
 4552TIP3    H113601   7.088   0.790   1.021 -1.0991  0.2866 -0.3604
 4552TIP3    H213602   7.167   0.819   0.895 -3.0837 -1.1466 -1.9700
 4553TIP3   OH213603   6.811   0.566   0.485  0.1781  0.3202  0.3922
 4553TIP3    H113604   6.883   0.612   0.530  0.9453 -0.5098  0.0284
 4553TIP3    H213605   6.836   0.474   0.488 -1.3678 -0.0898  1.1403
 4554TIP3   OH213606   4.063   5.256   1.300 -0.5564 -0.3421 -0.2187
 4554TIP3    H113607   4.123   5.270   1.227 -0.2410  1.9164  0.4313
 4554TIP3    H213608   3.986   5.217   1.260 -0.0020 -0.0509 -1.6203
 4555TIP3   OH213609   5.036   5.998   1.544 -0.6810  0.1196 -0.0235
 4555TIP3    H113610   5.070   5.975   1.630 -2.5234  0.2904  0.7624
 4555TIP3    H213611   5.052   6.092   1.536  0.2026 -0.0399 -0.2117
 4556TIP3   OH213612   3.854   5.615   3.097 -0.1344  0.2742  0.6578
 4556TIP3    H113613   3.834   5.695   3.146 -0.5484 -0.4343  1.6589
 4556TIP3    H213614   3.847   5.545   3.162 -1.5707 -0.7776 -0.6047
 4557TIP3   OH213615   2.439   5.497   1.644  0.3084 -0.1753 -0.0405
 4557TIP3    H113616   2.435   5.545   1.727 -0.8559  1.0046 -0.7584
 4557TIP3    H213617   2.435   5.405   1.669  1.4457  0.1089  1.2962
 4558TIP3   OH213618   2.635   3.572   3.389  0.0525  0.6227 -0.2832
 4558TIP3    H113619   2.673   3.590   3.475  0.9684  0.2683 -0.6087
 4558TIP3    H213620   2.700   3.517   3.345 -1.1527 -0.6180 -0.5712
 4559TIP3   OH213621   5.710   3.892   1.341 -0.2396 -0.0684 -0.5913
 4559TIP3    H113622   5.690   3.959   1.276 -1.5181 -0.4055 -0.5631
 4559TIP3    H213623   5.746   3.940   1.415  0.5669  0.3900 -1.2739
 4560TIP3   OH213624   5.055   4.557   1.557 -0.3705  0.0952  0.0014
 4560TIP3    H113625   5.021   4.643   1.532 -0.8473 -0.5417 -1.6246
 4560TIP3    H213626   5.050   4.505   1.477  1.3921 -0.9931  0.5567
 4561TIP3   OH213627   3.361   5.600   1.767 -0.0202 -0.4812  0.6647
 4561TIP3    H113628   3.309   5.679   1.783  0.7673 -0.1991  1.9078
 4561TIP3    H213629   3.387   5.607   1.675 -1.9735 -0.5186  0.0851
 4562TIP3   OH213630   3.924   6.244   2.202 -0.0347  0.3389  0.0489
 4562TIP3    H113631   3.889   6.168   2.248 -0.8508  0.9309  0.4277
 4562TIP3    H213632   3.856   6.267   2.138  0.1369  0.8545  0.0502
 4563TIP3   OH213633   2.158   5.291   0.296  0.0481  0.3040 -0.1928
 4563TIP3    H113634   2.211   5.314   0.220  1.9218  0.8216  1.2259
 4563TIP3    H213635   2.168   5.365   0.356 -0.9690 -0.3119  0.7737
 4564TIP3   OH213636   6.406   3.896   0.681 -0.5342 -0.3208 -0.4847
 4564TIP3    H113637   6.347   3.891   0.756 -0.6330  0.0352 -0.5387
 4564TIP3    H213638   6.469   3.964   0.705 -2.5271  2.2236 -2.1036
 4565TIP3   OH213639   2.822   6.098   2.337  0.4804 -0.3041  0.2424
 4565TIP3    H113640   2.911   6.133   2.330  0.1416  0.2719 -1.1976
 4565TIP3    H213641   2.835   6.004   2.354  1.3638 -0.0773  0.8426
 4566TIP3   OH213642   1.105   6.554   2.535 -0.0785 -0.0217  0.0715
 4566TIP3    H113643   1.014   6.563   2.505  0.3900 -1.3239 -1.8123
 4566TIP3    H213644   1.127   6.463   2.518  2.2143  0.7517 -1.2828
 4567TIP3   OH213645   3.469   7.293   4.479  0.1959  0.5456  0.3459
 4567TIP3    H113646   3.562   7.280   4.464 -0.0538 -1.1492  0.2342
 4567TIP3    H213647   3.447   7.369   4.425  1.0936 -0.2675 -1.1998
 4568TIP3   OH213648   2.669   5.605   5.656  0.2973 -0.1556  0.0672
 4568TIP3    H113649   2.735   5.539   5.637  0.6514  0.4873 -0.9815
 4568TIP3    H213650   2.585   5.559   5.649  0.6113 -0.8470  0.8666
 4569TIP3   OH213651   2.704   6.344   0.514 -0.0578  0.0131 -0.0017
 4569TIP3    H113652   2.643   6.321   0.444 -1.5301  0.5901  1.0605
 4569TIP3    H213653   2.648   6.359   0.590  1.3622  1.2149  0.8256
 4570TIP3   OH213654   1.300   6.849   3.492  0.2944  0.7590 -0.3215
 4570TIP3    H113655   1.365   6.914   3.521 -0.3125  1.6083 -0.8509
 4570TIP3    H213656   1.344   6.765   3.504  0.8557  1.2197  0.9895
 4571TIP3   OH213657   3.230   6.811   0.854  0.2981  0.1924  0.1456
 4571TIP3    H113658   3.140   6.797   0.885  0.2334 -0.1702 -0.2052
 4571TIP3    H213659   3.237   6.758   0.775  0.2817  1.5403 -0.7819
 4572TIP3   OH213660   3.606   4.890   0.894 -0.0941  0.3144 -0.1163
 4572TIP3    H113661   3.620   4.915   0.985  0.2729  0.9613 -0.3507
 4572TIP3    H213662   3.676   4.933   0.846 -0.4434  0.1934 -0.7434
 4573TIP3   OH213663   4.887   5.570   2.439  0.0716  0.4325  0.1275
 4573TIP3    H113664   4.942   5.535   2.510  1.3271  2.5649  0.2162
 4573TIP3    H213665   4.804   5.591   2.482 -0.8381 -2.6829  0.0142
 4574TIP3   OH213666   2.025   5.474   3.314  0.0833 -0.0851 -0.3191
 4574TIP3    H113667   1.980   5.501   3.233  1.1478  1.9159 -0.2785
 4574TIP3    H213668   2.015   5.548   3.373 -0.3431 -1.3844  1.2773
 4575TIP3   OH213669   4.427   4.779   3.537  0.3079  0.3785  0.1375
 4575TIP3    H113670   4.363   4.737   3.593 -0.6207 -0.5617 -1.5903
 4575TIP3    H213671   4.422   4.731   3.454  2.1000  1.3151 -0.5467
 4576TIP3   OH213672   3.525   2.791   3.648  0.0735  0.6572  0.4173
 4576TIP3    H113673   3.502   2.760   3.735  0.3943  0.7730  0.5457
 4576TIP3    H213674   3.608   2.748   3.628 -1.5630 -1.8586 -1.1628
 4577TIP3   OH213675   5.352   4.788   1.519  0.2676 -0.0154 -0.1746
 4577TIP3    H113676   5.341   4.872   1.564 -1.9614 -0.3109 -0.1171
 4577TIP3    H213677   5.312   4.803   1.433 -1.8433 -1.5811  0.5187
 4578TIP3   OH213678   3.590   7.959   2.982  0.3256  0.0945 -0.4881
 4578TIP3    H113679   3.538   7.888   3.020  1.9212 -1.7993 -1.7326
 4578TIP3    H213680   3.625   8.007   3.057  0.5326 -1.4274  0.4072
 4579TIP3   OH213681   5.870   4.180   1.652 -0.0300 -0.0370 -0.1356
 4579TIP3    H113682   5.940   4.232   1.693 -0.0746  0.1510 -0.2992
 4579TIP3    H213683   5.916   4.125   1.589 -0.0127 -0.0228 -0.1351
 4580TIP3   OH213684   2.791   5.985   5.147  0.2470  0.2684  0.6670
 4580TIP3    H113685   2.832   5.983   5.061 -1.2703 -0.8216 -0.0676
 4580TIP3    H213686   2.808   5.898   5.183 -2.1717 -0.5521 -0.0596
 4581TIP3   OH213687   4.150   7.860   1.769  0.0150  0.1837 -0.0833
 4581TIP3    H113688   4.208   7.796   1.811  0.4214 -1.2970 -2.8240
 4581TIP3    H213689   4.208   7.912   1.714 -0.7393  1.0850 -0.0311
 4582TIP3   OH213690   3.410   7.293   2.898 -0.2578 -0.3917  0.1420
 4582TIP3    H113691   3.317   7.302   2.920  0.3671 -1.6500  3.4588
 4582TIP3    H213692   3.412   7.229   2.827 -1.8709 -0.5854  0.2569
 4583TIP3   OH213693   2.758   6.196   3.582  0.1027 -0.6616  0.5136
 4583TIP3    H113694   2.698   6.162   3.517 -0.1042 -0.6928  0.7205
 4583TIP3    H213695   2.753   6.134   3.655  0.5954 -0.8148  0.4180
 4584TIP3   OH213696   5.523   5.004   3.239  0.3659  0.2784 -0.1150
 4584TIP3    H113697   5.469   5.050   3.174  0.5799 -0.4898 -0.8449
 4584TIP3    H213698   5.515   4.912   3.215 -1.6741 -0.2974  2.5261
 4585TIP3   OH213699   3.245   7.010   1.769 -0.0293 -0.1451  0.2820
 4585TIP3    H113700   3.222   7.048   1.684 -0.7972 -1.6725 -0.2023
 4585TIP3    H213701   3.198   7.063   1.833 -0.3750  0.2778 -0.3204
 4586TIP3   OH213702   2.203   4.751   1.649  0.2450 -0.3268 -0.0509
 4586TIP3    H113703   2.138   4.690   1.684 -1.2664  1.2711  0.0133
 4586TIP3    H213704   2.224   4.715   1.563 -0.2437 -1.2256  0.1907
 4587TIP3   OH213705   3.337   5.925   2.140 -0.1343  0.1630  0.3014
 4587TIP3    H113706   3.288   5.852   2.102 -1.2644  0.5321  1.0219
 4587TIP3    H213707   3.345   5.903   2.232 -2.1573  1.8337  0.9194
 4588TIP3   OH213708   1.501   5.165   2.363  0.3177 -0.1016 -0.4800
 4588TIP3    H113709   1.546   5.213   2.293  0.6750 -1.5162 -1.2579
 4588TIP3    H213710   1.572   5.123   2.412 -0.0491 -0.7956 -0.5413
 4589TIP3   OH213711   3.799   4.742   2.064 -0.0061 -0.7052 -0.5624
 4589TIP3    H113712   3.847   4.825   2.054  1.6937 -1.1824  3.0033
 4589TIP3    H213713   3.714   4.767   2.099  0.1842 -0.3792 -0.3278
 4590TIP3   OH213714   4.979   4.940   2.756  0.4240 -0.3747 -0.4897
 4590TIP3    H113715   4.895   4.904   2.726  1.5452 -1.1968 -2.7461
 4590TIP3    H213716   5.005   5.000   2.686  1.7961 -0.2337  0.1282
 4591TIP3   OH213717   3.423   4.236   3.351 -0.1172 -1.1024 -0.3839
 4591TIP3    H113718   3.461   4.292   3.419  0.2852 -1.2646 -0.4732
 4591TIP3    H213719   3.338   4.210   3.387 -0.4898 -0.1145 -0.5111
 4592TIP3   OH213720   3.961   5.710   2.603  0.5141  0.1327 -0.3248
 4592TIP3    H113721   4.023   5.720   2.675  0.9595 -2.2040 -0.3404
 4592TIP3    H213722   4.006   5.747   2.527  1.0967  0.2160  0.0611
 4593TIP3   OH213723   4.061   3.683   2.137  0.0301  0.1730  0.2070
 4593TIP3    H113724   3.972   3.656   2.161  0.5202 -1.1736  0.5528
 4593TIP3    H213725   4.087   3.621   2.070  0.6011  0.7771 -0.1346
 4594TIP3   OH213726   4.132   3.025   3.845  0.3912  0.0971 -0.0062
 4594TIP3    H113727   4.184   3.106   3.850 -0.3469  0.7172 -1.9476
 4594TIP3    H213728   4.041   3.055   3.843  0.0395 -0.8734  0.9384
 4595TIP3   OH213729   3.102   6.070   3.632  0.0624  0.0141 -0.1944
 4595TIP3    H113730   3.094   5.975   3.641  0.1313 -0.1120 -1.4043
 4595TIP3    H213731   3.046   6.092   3.558  1.6339  0.6368 -1.2227
 4596TIP3   OH213732   2.812   3.202   3.796 -0.2813 -0.1770 -0.5972
 4596TIP3    H113733   2.721   3.211   3.767 -0.3392 -0.7478 -0.6044
 4596TIP3    H213734   2.856   3.156   3.724  0.0928  0.4072 -0.7451
 4597TIP3   OH213735   2.933   4.638   3.429  0.2046 -0.1289  0.3579
 4597TIP3    H113736   2.842   4.635   3.398  0.8465  1.7077 -1.8302
 4597TIP3    H213737   2.940   4.722   3.474  0.9312 -0.1210  0.2306
 4598TIP3   OH213738   2.834   5.964   3.236 -0.2869 -0.1614  0.1437
 4598TIP3    H113739   2.839   6.047   3.189  0.4025  0.5646  1.4960
 4598TIP3    H213740   2.836   5.898   3.166 -0.0633  0.9183 -0.8943
 4599TIP3   OH213741   2.624   4.491   3.082 -0.0299 -0.0069  0.2902
 4599TIP3    H113742   2.688   4.447   3.138  0.9180  0.7444 -0.1911
 4599TIP3    H213743   2.642   4.585   3.094  0.9749  0.1517 -2.1450
 4600TIP3   OH213744   3.504   6.982   3.136 -0.1634 -0.2547  0.0991
 4600TIP3    H113745   3.420   6.960   3.097  0.4931  1.7019 -2.6372
 4600TIP3    H213746   3.564   6.987   3.061  2.0880 -0.2680  1.8353
 4601TIP3   OH213747   5.322   3.151   2.817  0.2244 -0.0139 -0.7133
 4601TIP3    H113748   5.250   3.189   2.868 -0.1171  0.3881 -1.4678
 4601TIP3    H213749   5.291   3.156   2.726  0.1730 -2.1270 -0.8305
 4602TIP3   OH213750   3.630   3.821   3.288  0.4257  0.3874  0.0885
 4602TIP3    H113751   3.673   3.759   3.347  2.0549  1.7474  0.3796
 4602TIP3    H213752   3.597   3.890   3.346  1.7066  1.5457 -0.5321
 4603TIP3   OH213753   4.487   5.605   1.839 -0.0751 -0.0156 -0.3074
 4603TIP3    H113754   4.560   5.589   1.779  0.8599 -0.0015  0.8311
 4603TIP3    H213755   4.527   5.645   1.916 -1.4823  1.4960 -0.3208
 4604TIP3   OH213756   4.057   6.281   0.886  0.2583  0.4433 -0.2232
 4604TIP3    H113757   3.962   6.284   0.893  0.1923 -2.5296  0.9158
 4604TIP3    H213758   4.088   6.324   0.966 -0.2200 -1.2188  0.9143
 4605TIP3   OH213759   3.676   6.428   3.210 -0.2721 -0.7721 -0.0560
 4605TIP3    H113760   3.634   6.373   3.276  0.5184 -0.2141  0.9241
 4605TIP3    H213761   3.603   6.473   3.167 -0.9763 -3.1711 -1.4148
 4606TIP3   OH213762   3.594   7.145   2.191  0.0134  0.2046 -0.1600
 4606TIP3    H113763   3.521   7.185   2.238  1.4291  2.0600  0.4806
 4606TIP3    H213764   3.561   7.058   2.166 -2.5344  1.1449 -0.2128
 4607TIP3   OH213765   2.994   5.314   2.811  0.5785 -0.9099  0.3728
 4607TIP3    H113766   3.060   5.384   2.811  1.0976 -1.3919  2.2616
 4607TIP3    H213767   3.044   5.235   2.789  0.0459 -0.7663 -1.4395
 4608TIP3   OH213768   1.077   3.758   3.787 -0.1248 -0.3717 -0.3928
 4608TIP3    H113769   0.993   3.803   3.780 -0.4084 -0.9418 -0.6687
 4608TIP3    H213770   1.087   3.712   3.704  0.0702 -0.9841 -0.0281
 4609TIP3   OH213771   5.336   6.959   2.739  0.8786  0.8598 -0.7179
 4609TIP3    H113772   5.385   7.010   2.674 -0.2302  2.6524 -0.1926
 4609TIP3    H213773   5.355   7.002   2.823  1.1565 -0.5528 -0.0325
 4610TIP3   OH213774   3.649   4.414   0.335 -0.5478  0.5963  0.0845
 4610TIP3    H113775   3.634   4.508   0.321  0.4296  0.8710  0.8631
 4610TIP3    H213776   3.700   4.409   0.415  2.9871 -0.3594 -2.1252
 4611TIP3   OH213777   3.368   7.345   2.251  0.5105  0.1649  0.2935
 4611TIP3    H113778   3.423   7.410   2.294  0.6581 -0.3305  0.8670
 4611TIP3    H213779   3.280   7.383   2.252  0.4533  0.0098  1.3525
 4612TIP3   OH213780   2.860   5.751   2.870  0.4924 -1.2997 -0.5461
 4612TIP3    H113781   2.815   5.688   2.813 -0.0094 -0.7003 -0.8113
 4612TIP3    H213782   2.953   5.736   2.853  0.3767 -1.9255 -0.6547
 4613TIP3   OH213783   4.707   5.515   1.413  0.0874 -0.4619 -0.7695
 4613TIP3    H113784   4.749   5.499   1.329  0.1242 -0.2126 -0.7975
 4613TIP3    H213785   4.780   5.531   1.474  0.0928 -1.2049 -0.5692
 4614TIP3   OH213786   3.578   4.928   2.146  0.4258  0.2453 -0.4788
 4614TIP3    H113787   3.495   4.881   2.137  1.4398 -1.4441 -1.2084
 4614TIP3    H213788   3.600   4.955   2.056  0.8711  0.3291 -0.3471
 4615TIP3   OH213789   1.797   6.346   1.249  0.2570  0.0858 -0.4847
 4615TIP3    H113790   1.889   6.372   1.251 -0.0217  1.1677 -1.3723
 4615TIP3    H213791   1.799   6.251   1.265  1.5371  0.0659 -0.6816
 4616TIP3   OH213792   2.606   7.467   0.638  0.3384  0.4150 -0.1124
 4616TIP3    H113793   2.603   7.482   0.543 -0.3639 -0.0440 -0.1644
 4616TIP3    H213794   2.517   7.483   0.668  0.1910 -0.9531  0.2307
 4617TIP3   OH213795   7.714   2.764   6.251 -0.5071 -0.8721  0.1955
 4617TIP3    H113796   7.790   2.791   6.199  0.6081 -3.3386  0.4875
 4617TIP3    H213797   7.664   2.845   6.264  2.2218  0.8663  0.2642
 4618TIP3   OH213798   2.181   6.409   2.350 -0.1860 -0.3359 -0.3333
 4618TIP3    H113799   2.137   6.429   2.433  0.9176 -0.5263  0.3077
 4618TIP3    H213800   2.150   6.321   2.327  0.0647 -0.5819  0.2522
 4619TIP3   OH213801   7.884   4.335   6.853 -0.0308 -0.4683 -0.6094
 4619TIP3    H113802   7.854   4.362   6.940 -0.2886 -1.5454 -0.3529
 4619TIP3    H213803   7.889   4.240   6.858 -0.5531 -0.5740 -1.9448
 4620TIP3   OH213804   5.798   0.222   3.940  0.0027 -0.2815 -0.3364
 4620TIP3    H113805   5.801   0.290   3.873 -0.7374  0.0032 -0.0839
 4620TIP3    H213806   5.709   0.225   3.974  0.7556  0.5590  1.6691
 4621TIP3   OH213807   3.451   6.373   2.742 -0.2265 -0.0050 -0.3097
 4621TIP3    H113808   3.527   6.422   2.709 -0.3427  1.4466  1.5073
 4621TIP3    H213809   3.486   6.286   2.763  0.0661 -0.6488 -3.2107
 4622TIP3   OH213810   1.167   4.752   2.400 -0.6755  0.0124  0.0084
 4622TIP3    H113811   1.202   4.842   2.394 -0.8204  0.0231 -0.7054
 4622TIP3    H213812   1.072   4.763   2.397 -0.6760 -0.2283 -1.0395
 4623TIP3   OH213813   3.028   6.619   0.986 -0.3024  0.0926 -0.1720
 4623TIP3    H113814   3.091   6.554   1.019  0.8717  1.2612 -0.0408
 4623TIP3    H213815   2.948   6.570   0.971  0.9999 -1.6907 -1.5028
 4624TIP3   OH213816   2.151   5.387   2.190  0.1596 -0.1957 -0.2528
 4624TIP3    H113817   2.084   5.425   2.247  0.3865  0.2192 -0.2550
 4624TIP3    H213818   2.232   5.430   2.217  0.2153  0.2485 -1.1001
 4625TIP3   OH213819   2.733   6.444   1.452 -0.4930 -0.5618 -0.1621
 4625TIP3    H113820   2.677   6.418   1.378 -2.1070 -0.1316  0.8909
 4625TIP3    H213821   2.692   6.403   1.528  1.1657 -1.0025  0.5100
 4626TIP3   OH213822   3.142   6.265   0.450  0.2179 -0.3273  0.0696
 4626TIP3    H113823   3.234   6.265   0.478  0.1022  0.3883  0.4850
 4626TIP3    H213824   3.138   6.329   0.379  0.0062 -0.2190  0.1772
 4627TIP3   OH213825   3.410   6.703   2.470  0.1461  0.3399 -0.2409
 4627TIP3    H113826   3.487   6.757   2.454  0.5104  0.6067  2.2320
 4627TIP3    H213827   3.347   6.762   2.511 -0.3820 -0.5042  0.1835
 4628TIP3   OH213828   4.425   2.514   4.968  0.0410  0.0579  0.3479
 4628TIP3    H113829   4.482   2.554   5.034 -0.5579  0.5764  0.5548
 4628TIP3    H213830   4.394   2.588   4.915  1.8273 -0.5140 -1.5580
 4629TIP3   OH213831   4.996   5.311   3.106 -0.8700  0.0474  0.0301
 4629TIP3    H113832   4.937   5.361   3.049 -0.0687 -0.4986 -1.3124
 4629TIP3    H213833   4.941   5.283   3.178 -2.4231 -0.9651 -1.5113
 4630TIP3   OH213834   3.555   5.934   3.061 -0.2016 -0.4719 -0.2590
 4630TIP3    H113835   3.638   5.889   3.043 -0.0119 -0.2768  0.1251
 4630TIP3    H213836   3.488   5.869   3.040  0.0514 -0.6799 -0.4352
 4631TIP3   OH213837   3.639   4.905   1.866  0.1580  0.3571  0.6576
 4631TIP3    H113838   3.594   4.830   1.827 -1.3027  0.4909  1.9990
 4631TIP3    H213839   3.724   4.909   1.823  0.1945 -1.9910  0.4896
 4632TIP3   OH213840   5.220   5.451   3.860 -0.0775  0.0951 -0.2695
 4632TIP3    H113841   5.256   5.383   3.917  0.0033  1.0679  0.8611
 4632TIP3    H213842   5.152   5.406   3.810  0.9396 -1.1513 -0.5861
 4633TIP3   OH213843   3.783   7.294   1.756  0.4183  0.2830 -0.6467
 4633TIP3    H113844   3.850   7.227   1.772 -0.3137  0.0784  1.8536
 4633TIP3    H213845   3.738   7.302   1.840 -0.3107  3.0427 -1.2583
 4634TIP3   OH213846   3.429   5.354   2.641 -0.2161 -0.0379  0.0240
 4634TIP3    H113847   3.384   5.422   2.590 -0.0564 -0.3846 -0.5733
 4634TIP3    H213848   3.488   5.312   2.579 -0.4591 -0.8620  0.3544
 4635TIP3   OH213849   3.383   6.022   2.561 -0.2612 -0.2004  0.2471
 4635TIP3    H113850   3.441   6.097   2.569  0.8514 -1.1955  1.9131
 4635TIP3    H213851   3.427   5.963   2.500 -0.1355 -0.3866  0.5150
 4636TIP3   OH213852   5.087   5.184   4.069 -0.3759  0.3721  0.1123
 4636TIP3    H113853   5.078   5.093   4.098 -0.6089 -0.0619 -1.2709
 4636TIP3    H213854   5.005   5.203   4.024 -0.6353  1.5314  1.0600
 4637TIP3   OH213855   1.908   1.948   6.741 -0.1273 -0.2363 -0.2531
 4637TIP3    H113856   1.813   1.938   6.751  0.0098 -1.3881 -0.0191
 4637TIP3    H213857   1.942   1.859   6.746  0.9442  0.1426 -0.6527
 4638TIP3   OH213858   0.317   2.684   5.677 -0.0339  0.0600  0.1871
 4638TIP3    H113859   0.274   2.717   5.755  0.4085 -1.2303  1.0015
 4638TIP3    H213860   0.292   2.744   5.607 -1.8574  0.2119  0.9630
 4639TIP3   OH213861   2.777   5.613   0.982 -0.2753 -0.5318 -0.0213
 4639TIP3    H113862   2.791   5.586   0.891 -1.9923 -3.0457  0.4301
 4639TIP3    H213863   2.773   5.531   1.032  1.0164  0.8142  2.4105
 4640TIP3   OH213864   3.788   6.998   1.237  0.0649  0.4924  0.5797
 4640TIP3    H113865   3.742   6.948   1.169  0.2867  0.2262  0.6242
 4640TIP3    H213866   3.789   7.088   1.204  0.3493  0.3295  0.1362
 4641TIP3   OH213867   4.152   6.569   2.088 -0.3422  0.1459 -0.0194
 4641TIP3    H113868   4.225   6.623   2.058 -0.3487 -0.0795 -0.4490
 4641TIP3    H213869   4.171   6.551   2.180  0.4149 -0.3520 -0.2635
 4642TIP3   OH213870   1.796   5.951   2.692 -0.3561 -0.3742 -0.6288
 4642TIP3    H113871   1.786   6.030   2.639 -2.2295 -0.0374  0.1754
 4642TIP3    H213872   1.728   5.958   2.759  1.0489 -1.4684  0.9817
 4643TIP3   OH213873   4.060   3.874   3.087  0.4075  0.2435  0.1798
 4643TIP3    H113874   4.100   3.807   3.142  0.6273 -1.1381 -1.6247
 4643TIP3    H213875   3.968   3.877   3.115  0.6623  0.0175  1.0487
 4644TIP3   OH213876   3.469   6.016   5.690 -0.2401 -0.1439 -0.2867
 4644TIP3    H113877   3.431   5.982   5.609  0.3462 -1.5612  0.0282
 4644TIP3    H213878   3.425   6.100   5.703 -2.6700 -1.3456 -0.3833
 4645TIP3   OH213879   3.376   7.303   1.207 -0.5497  0.0693 -0.0808
 4645TIP3    H113880   3.373   7.209   1.195 -0.4512  0.1558 -0.7747
 4645TIP3    H213881   3.285   7.331   1.208 -0.6999 -0.3447  2.6379
 4646TIP3   OH213882   4.294   6.193   2.522  0.2094 -0.8111 -0.5332
 4646TIP3    H113883   4.260   6.191   2.432 -0.0500 -0.3719 -0.4469
 4646TIP3    H213884   4.224   6.234   2.572 -0.1833 -2.2191  0.1043
 4647TIP3   OH213885   4.526   6.358   1.583  0.1166 -0.4909  0.0439
 4647TIP3    H113886   4.621   6.358   1.569  0.5795  0.9733  2.9230
 4647TIP3    H213887   4.509   6.281   1.637  0.0308  0.6902  1.7180
 4648TIP3   OH213888   4.301   5.315   1.156  0.1582 -0.4507 -0.1187
 4648TIP3    H113889   4.375   5.299   1.097  1.5065  1.8567  0.8633
 4648TIP3    H213890   4.325   5.396   1.202 -2.1105 -0.7398  1.6220
 4649TIP3   OH213891   2.517   5.178   2.467 -0.3791  0.0461  0.2801
 4649TIP3    H113892   2.603   5.181   2.508 -1.1056 -3.2333  2.1720
 4649TIP3    H213893   2.526   5.112   2.398 -0.4312  2.2744 -1.9239
 4650TIP3   OH213894   3.760   5.891   2.565 -0.5041  0.0287  0.1175
 4650TIP3    H113895   3.783   5.946   2.640  1.6197  1.3427 -1.4601
 4650TIP3    H213896   3.810   5.811   2.578 -0.0759  0.2854  0.0776
 4651TIP3   OH213897   3.684   4.739   2.911  0.5325 -0.0949  0.1839
 4651TIP3    H113898   3.633   4.660   2.892 -1.3060  1.4181 -1.4849
 4651TIP3    H213899   3.693   4.782   2.826  2.1460  1.1226  0.9467
 4652TIP3   OH213900   4.904   5.643   3.132 -0.4360  0.1010  0.2386
 4652TIP3    H113901   4.921   5.625   3.224 -2.3485  2.4684  1.1203
 4652TIP3    H213902   4.829   5.703   3.132 -0.4474  0.2120 -2.8481
 4653TIP3   OH213903   4.354   6.328   4.896  0.2495 -0.0925 -0.0302
 4653TIP3    H113904   4.273   6.365   4.863 -0.2373  0.8866  2.1557
 4653TIP3    H213905   4.418   6.342   4.826 -0.8392  1.5175 -0.7217
 4654TIP3   OH213906   2.313   5.665   1.219  0.6219  0.2346  0.8341
 4654TIP3    H113907   2.377   5.598   1.196  1.3604  1.0810  0.3658
 4654TIP3    H213908   2.353   5.713   1.291 -0.2030 -0.2413  1.6309
 4655TIP3   OH213909   1.066   6.017   3.167 -0.7195 -0.1315  0.0208
 4655TIP3    H113910   1.119   5.955   3.217 -0.1021 -1.4283 -2.1894
 4655TIP3    H213911   1.010   6.059   3.233  2.8165  1.1021  2.4051
 4656TIP3   OH213912   2.534   6.405   1.237  0.3519 -0.8030  0.1411
 4656TIP3    H113913   2.502   6.420   1.148 -0.4929  0.8170  0.7003
 4656TIP3    H213914   2.562   6.313   1.237  0.0271 -0.9198 -1.6830
 4657TIP3   OH213915   2.741   6.414   2.638  0.2085  0.2507  1.1755
 4657TIP3    H113916   2.711   6.324   2.622  0.6905  0.2910  0.0067
 4657TIP3    H213917   2.766   6.414   2.731  1.3606 -1.1772  0.8973
 4658TIP3   OH213918   3.847   3.305   0.369 -0.0925 -0.0009  0.1555
 4658TIP3    H113919   3.790   3.229   0.368  0.6125 -0.5332  0.2775
 4658TIP3    H213920   3.929   3.275   0.330  0.4866  0.4508  0.9935
 4659TIP3   OH213921   4.074   6.907   4.107  0.0159 -0.2951  0.5282
 4659TIP3    H113922   4.167   6.913   4.085  0.3841 -0.2804  2.0152
 4659TIP3    H213923   4.048   6.820   4.080  0.6813 -0.6064  0.8707
 4660TIP3   OH213924   2.551   4.306   2.336 -0.1057  0.3092 -0.1448
 4660TIP3    H113925   2.590   4.392   2.355  2.8073 -1.2420  1.2399
 4660TIP3    H213926   2.457   4.319   2.350  0.6361  2.3807  3.6205
 4661TIP3   OH213927   0.043   6.023   0.988  0.6414 -0.6325 -0.6402
 4661TIP3    H113928  -0.037   6.037   0.937  1.0771  1.8543 -0.7142
 4661TIP3    H213929   0.111   6.006   0.922  0.8215  0.6134 -0.7797
 4662TIP3   OH213930   2.107   7.026   4.320 -0.6714  0.2071 -0.2725
 4662TIP3    H113931   2.175   7.021   4.253  0.3235  1.4031  0.6313
 4662TIP3    H213932   2.134   6.962   4.387 -0.6373  0.4043 -0.0969
 4663TIP3   OH213933   4.179   5.220   3.618 -0.2368 -0.0864 -0.1300
 4663TIP3    H113934   4.242   5.290   3.633 -1.1445  0.6284  0.3871
 4663TIP3    H213935   4.192   5.160   3.691  1.3161 -1.0612 -1.1664
 4664TIP3   OH213936   2.127   4.086   2.628  0.0634 -0.5501  1.1139
 4664TIP3    H113937   2.067   4.153   2.661  0.2578 -0.2481  0.8545
 4664TIP3    H213938   2.207   4.097   2.680  0.1423 -0.4955  0.9810
 4665TIP3   OH213939   4.204   5.797   4.122  0.2055 -0.3281 -0.0576
 4665TIP3    H113940   4.110   5.779   4.126  0.0513  0.3680 -0.3952
 4665TIP3    H213941   4.215   5.852   4.044  1.0120 -1.0984 -0.5023
 4666TIP3   OH213942   4.127   5.757   2.385 -0.4759  0.2229  0.4584
 4666TIP3    H113943   4.137   5.825   2.319 -0.1650 -0.0642  0.2011
 4666TIP3    H213944   4.212   5.713   2.386 -1.0817 -1.0117 -0.3406
 4667TIP3   OH213945   3.465   5.515   2.867  0.1046  0.6569  0.5172
 4667TIP3    H113946   3.427   5.460   2.936 -1.3956  2.0461  0.8212
 4667TIP3    H213947   3.465   5.459   2.789 -3.5010  0.8859  0.2621
 4668TIP3   OH213948   6.885   0.112   1.913  0.7187  0.5722 -0.2469
 4668TIP3    H113949   6.888   0.124   1.818  2.2937  0.1136 -0.2630
 4668TIP3    H213950   6.976   0.095   1.938  0.1441 -0.4592  1.1898
 4669TIP3   OH213951   3.258   4.325   3.124  0.0946  0.1494  0.3568
 4669TIP3    H113952   3.293   4.413   3.141 -0.4982  0.5505 -0.5066
 4669TIP3    H213953   3.254   4.284   3.211 -1.6528  1.7316  1.0504
 4670TIP3   OH213954   2.511   5.651   3.619 -0.3243 -0.5127 -0.6948
 4670TIP3    H113955   2.485   5.733   3.662 -0.5881 -1.1933  0.4773
 4670TIP3    H213956   2.574   5.677   3.552 -1.4852  0.8057 -1.2916
 4671TIP3   OH213957   3.154   4.823   4.611 -0.6049 -0.2929  0.2556
 4671TIP3    H113958   3.198   4.743   4.582  0.1607  0.7298 -1.4599
 4671TIP3    H213959   3.160   4.820   4.707  2.0633 -0.8442  0.1139
 4672TIP3   OH213960   0.719   5.550   1.542 -0.2756 -0.6575 -0.1570
 4672TIP3    H113961   0.761   5.463   1.545 -1.6042 -1.2876  0.6136
 4672TIP3    H213962   0.719   5.579   1.634 -1.0729 -0.4419 -0.2283
 4673TIP3   OH213963   8.081   3.071   5.590  0.0600  0.3753  0.2850
 4673TIP3    H113964   8.020   3.122   5.537 -0.5326  1.4064  1.9238
 4673TIP3    H213965   8.043   2.984   5.594  0.1692  0.2550 -1.0652
 4674TIP3   OH213966   8.459   0.727   0.900  0.4712  0.2766  0.1017
 4674TIP3    H113967   8.525   0.796   0.900 -0.1173  0.8349 -0.3442
 4674TIP3    H213968   8.403   0.745   0.824 -0.5291  0.1282  0.7852
 4675TIP3   OH213969   3.396   7.591   2.861  0.3371  0.4535 -0.6005
 4675TIP3    H113970   3.405   7.606   2.767 -2.2337 -0.8504 -1.1120
 4675TIP3    H213971   3.421   7.499   2.873  0.5348  0.5783 -0.0079
 4676TIP3   OH213972   3.842   7.894   1.713  0.3429  0.1394  0.1714
 4676TIP3    H113973   3.885   7.972   1.678 -1.5108  0.4319 -1.5193
 4676TIP3    H213974   3.911   7.850   1.764  1.5343  2.6282  0.8163
 4677TIP3   OH213975   4.988   7.698   2.846  0.5918  0.2607 -0.0707
 4677TIP3    H113976   4.954   7.787   2.844 -0.3927 -0.0659  1.4493
 4677TIP3    H213977   5.000   7.678   2.938  1.5193 -0.9213 -0.4293
 4678TIP3   OH213978   5.023   6.148   2.806  0.0375  0.2215 -0.0215
 4678TIP3    H113979   4.984   6.078   2.859  0.0210 -0.6174 -1.1158
 4678TIP3    H213980   4.953   6.211   2.794 -0.2343 -0.0380  0.1739
 4679TIP3   OH213981   6.307   4.982   2.701  0.2833 -0.0808  0.1914
 4679TIP3    H113982   6.317   4.930   2.781 -0.5325 -0.3936  0.0970
 4679TIP3    H213983   6.373   5.050   2.708  0.4734 -0.3389  0.9537
 4680TIP3   OH213984   5.048   6.682   4.569 -0.1536  0.1426 -0.2650
 4680TIP3    H113985   5.122   6.676   4.509  1.3751 -0.1295  1.6019
 4680TIP3    H213986   5.010   6.594   4.568  2.4615 -1.1114  2.3242
 4681TIP3   OH213987   4.264   6.262   3.480 -1.1360 -0.0197  0.5860
 4681TIP3    H113988   4.287   6.318   3.554  0.9361  0.2958 -0.2590
 4681TIP3    H213989   4.227   6.322   3.416  2.1610  0.6725 -0.7892
 4682TIP3   OH213990   4.715   5.110   0.594  0.4991  0.4629 -0.1265
 4682TIP3    H113991   4.672   5.164   0.661  0.0184  2.0961 -1.7082
 4682TIP3    H213992   4.653   5.109   0.521  1.2325 -0.8813 -0.7430
 4683TIP3   OH213993   2.848   5.376   1.051 -0.3119  0.1602  0.2516
 4683TIP3    H113994   2.834   5.303   0.991  0.6591  0.3797 -0.2598
 4683TIP3    H213995   2.943   5.387   1.054 -0.4535  1.7870 -0.1697
 4684TIP3   OH213996   4.574   7.423   2.686  0.5639  0.3944  0.0059
 4684TIP3    H113997   4.525   7.342   2.671  0.6783  0.6851 -2.0790
 4684TIP3    H213998   4.645   7.420   2.622  0.9466  1.8411  0.3557
 4685TIP3   OH213999   1.186   5.867   1.446 -0.1478 -0.4596  0.1423
 4685TIP3    H114000   1.159   5.870   1.538 -1.2235 -0.1881 -0.1861
 4685TIP3    H214001   1.189   5.773   1.426  2.2203 -0.6268  1.0710
 4686TIP3   OH214002   4.075   4.597   3.393  0.1686 -0.2822  0.2452
 4686TIP3    H114003   4.119   4.565   3.473 -1.4473 -0.7996  0.9362
 4686TIP3    H214004   4.147   4.611   3.331  1.3999 -0.3899  1.6115
 4687TIP3   OH214005   4.421   5.093   0.483 -0.3114 -0.2668 -0.4585
 4687TIP3    H114006   4.381   5.067   0.401  0.8619 -0.9682 -0.8258
 4687TIP3    H214007   4.395   5.026   0.546  0.7823 -1.0759 -0.8482
 4688TIP3   OH214008   4.187   5.914   0.172  0.5409  0.1036  0.2724
 4688TIP3    H114009   4.197   6.001   0.133  0.7949  0.3446  0.8685
 4688TIP3    H214010   4.135   5.929   0.251 -0.1118 -0.4052 -0.0548
 4689TIP3   OH214011   3.788   5.585   1.039 -0.0461 -0.1927 -0.1946
 4689TIP3    H114012   3.734   5.643   0.986  0.8382 -1.3223 -2.3967
 4689TIP3    H214013   3.779   5.499   0.997  0.4082 -1.1871  1.6949
 4690TIP3   OH214014   4.064   7.070   2.540  0.3134 -0.4344  0.3547
 4690TIP3    H114015   4.109   6.990   2.515  0.5588  0.2726 -1.4914
 4690TIP3    H214016   4.125   7.114   2.600  0.8645 -0.8285  0.0808
 4691TIP3   OH214017   4.544   5.765   1.337  1.0195 -0.0539 -0.2604
 4691TIP3    H114018   4.596   5.685   1.347  1.8457  0.7003  1.5761
 4691TIP3    H214019   4.595   5.833   1.380 -0.8796  0.9611  0.4298
 4692TIP3   OH214020   2.386   5.515   2.248 -0.1860  0.2214 -0.0904
 4692TIP3    H114021   2.438   5.504   2.328  0.5272  0.3559 -0.5411
 4692TIP3    H214022   2.437   5.473   2.179 -1.2608 -0.7703 -0.3132
 4693TIP3   OH214023   5.104   6.100   2.193 -0.1506  0.0430 -0.4799
 4693TIP3    H114024   5.193   6.071   2.214 -0.6646 -0.3976  1.1121
 4693TIP3    H214025   5.118   6.174   2.133  1.3062  0.3415  0.1900
 4694TIP3   OH214026   4.520   3.709   2.390 -0.6484  0.6417 -0.5815
 4694TIP3    H114027   4.545   3.789   2.435  1.3449 -0.2690 -0.0148
 4694TIP3    H214028   4.427   3.698   2.409 -1.6112  4.1636 -2.8011
 4695TIP3   OH214029   4.728   4.842   0.998  0.3844 -0.2782 -0.5598
 4695TIP3    H114030   4.654   4.783   1.015 -0.1806  0.5834  0.0033
 4695TIP3    H214031   4.746   4.831   0.905  0.6257 -1.7253 -0.3558
 4696TIP3   OH214032   2.432   5.950   1.186  0.2768  0.4188  0.1798
 4696TIP3    H114033   2.416   5.950   1.280  1.2851 -1.2788  0.3701
 4696TIP3    H214034   2.527   5.948   1.177  0.2325  1.7283 -0.8994
 4697TIP3   OH214035   4.150   6.969   2.927 -0.2557  0.5838 -0.0999
 4697TIP3    H114036   4.229   6.966   2.982 -0.8746  0.0499  0.7649
 4697TIP3    H214037   4.173   7.029   2.856  0.8806  0.5513  0.2292
 4698TIP3   OH214038   2.591   6.333   1.677  0.1976 -0.3931 -0.3880
 4698TIP3    H114039   2.656   6.372   1.736  0.2004 -0.6463 -0.2248
 4698TIP3    H214040   2.507   6.365   1.711  0.2140 -0.3360 -0.3995
 4699TIP3   OH214041   1.211   4.563   2.628  0.2936  0.4507 -0.1592
 4699TIP3    H114042   1.288   4.619   2.634 -0.4681  1.5511 -0.4376
 4699TIP3    H214043   1.176   4.580   2.541  0.2624 -0.7456 -0.3875
 4700TIP3   OH214044   3.179   6.445   2.721  0.7418  0.1993 -0.4864
 4700TIP3    H114045   3.261   6.399   2.707  0.8041  0.2459 -0.2828
 4700TIP3    H214046   3.205   6.530   2.758  0.5866  0.0948 -0.1330
 4701TIP3   OH214047   2.226   6.575   0.002  0.0671 -0.5202 -0.1616
 4701TIP3    H114048   2.252   6.512  -0.065 -1.0861 -1.6386  0.4170
 4701TIP3    H214049   2.262   6.539   0.083 -1.0986 -0.7528  0.2573
 4702TIP3   OH214050   1.211   7.481   4.389 -0.1864 -0.6212 -0.0546
 4702TIP3    H114051   1.134   7.439   4.428  0.2582 -2.8936 -1.5646
 4702TIP3    H214052   1.176   7.530   4.314 -0.2204 -1.3327 -0.5060
 4703TIP3   OH214053   4.815   6.462   3.058 -0.1710  0.3770  0.6133
 4703TIP3    H114054   4.774   6.492   3.139  1.2948  0.5021  1.3176
 4703TIP3    H214055   4.875   6.393   3.085  1.6851  1.6720 -0.1440
 4704TIP3   OH214056   3.578   7.441   3.243  0.0734 -0.1983  0.4349
 4704TIP3    H114057   3.485   7.459   3.227  0.4849  1.3763 -0.3447
 4704TIP3    H214058   3.597   7.364   3.190  0.2340  2.0926 -3.0856
 4705TIP3   OH214059   4.922   5.537   1.594 -0.1479  0.4330 -0.4699
 4705TIP3    H114060   4.941   5.443   1.595  1.4850  0.7286 -2.1195
 4705TIP3    H214061   4.988   5.576   1.650  1.3923  0.9667 -2.6085
 4706TIP3   OH214062   4.959   1.125   2.957  0.1524  0.4979 -0.5959
 4706TIP3    H114063   4.991   1.109   3.046 -0.0677  0.6473 -0.4899
 4706TIP3    H214064   4.886   1.065   2.946 -0.4365  1.1545 -0.3301
 4707TIP3   OH214065   0.900   5.511   3.178 -0.0036  0.3059  0.1630
 4707TIP3    H114066   0.972   5.537   3.236  0.5049 -1.3194  0.2950
 4707TIP3    H214067   0.829   5.489   3.238 -0.0134  0.1856  0.1072
 4708TIP3   OH214068   3.722   6.984   1.746 -0.1596  0.1524 -0.1903
 4708TIP3    H114069   3.665   7.060   1.759 -0.4369  0.1702 -1.4497
 4708TIP3    H214070   3.748   6.989   1.654 -0.0451 -1.1955 -0.2417
 4709TIP3   OH214071   4.654   5.001   1.318  0.5573 -0.7473 -0.3705
 4709TIP3    H114072   4.565   5.024   1.290  0.5037 -2.3995 -1.6392
 4709TIP3    H214073   4.668   5.052   1.398 -1.0182  0.5685 -0.9173
 4710TIP3   OH214074   1.749   7.786   0.953 -0.0364  0.6692  0.3676
 4710TIP3    H114075   1.704   7.828   1.026 -0.8506 -0.4592  0.5263
 4710TIP3    H214076   1.718   7.834   0.876 -0.3255  0.8986  0.6228
 4711TIP3   OH214077   2.745   5.866   0.219 -1.0067 -0.0571  0.1988
 4711TIP3    H114078   2.692   5.942   0.246  1.8115  0.9696  3.1682
 4711TIP3    H214079   2.805   5.901   0.154 -1.4394 -0.3432 -0.3538
 4712TIP3   OH214080   2.870   6.980   2.871  0.5636  0.2497  0.2074
 4712TIP3    H114081   2.933   7.028   2.924 -0.3515  1.2952  0.3866
 4712TIP3    H214082   2.886   7.011   2.781  2.1922 -1.6096 -0.1632
 4713TIP3   OH214083   2.230   7.813   3.209 -0.5363  0.3545 -0.7394
 4713TIP3    H114084   2.139   7.784   3.210 -1.2837  2.4648 -3.0343
 4713TIP3    H214085   2.231   7.890   3.267  0.2732 -0.8704  0.9330
 4714TIP3   OH214086   4.009   4.501   1.952  0.1736  0.3900  0.3642
 4714TIP3    H114087   3.973   4.517   2.039 -1.2135  1.1144 -0.3255
 4714TIP3    H214088   4.076   4.434   1.966 -0.5089  0.0003  1.8858
 4715TIP3   OH214089   6.246  -0.022   2.751 -0.3027  0.3954 -0.1512
 4715TIP3    H114090   6.182   0.040   2.715 -0.3630  1.0971  1.1335
 4715TIP3    H214091   6.265   0.011   2.839  2.2794  0.5182 -0.7290
 4716TIP3   OH214092   4.798   4.726   2.475  0.2272 -0.2774 -0.4098
 4716TIP3    H114093   4.758   4.794   2.528  0.6024 -0.2909 -0.1099
 4716TIP3    H214094   4.780   4.752   2.384 -1.0584 -0.6526 -0.2746
 4717TIP3   OH214095   5.121   4.463   2.247  0.5061  0.3758 -0.4844
 4717TIP3    H114096   5.155   4.546   2.213 -0.2125  1.1480  0.6324
 4717TIP3    H214097   5.185   4.437   2.313  0.5127  0.2592 -0.5371
 4718TIP3   OH214098   2.509   3.807   0.324  0.4256  0.3725 -0.0006
 4718TIP3    H114099   2.558   3.832   0.246 -0.3769  0.1880 -0.5602
 4718TIP3    H214100   2.556   3.850   0.396  0.7532  1.1084 -0.6476
 4719TIP3   OH214101   2.529   5.082   1.479 -0.5050 -0.1259  0.4474
 4719TIP3    H114102   2.527   4.994   1.516  0.7030 -0.2210  0.3128
 4719TIP3    H214103   2.527   5.141   1.554 -0.5210 -0.2789  0.5656
 4720TIP3   OH214104   5.950   4.765   3.554 -0.1152 -0.0592  0.4745
 4720TIP3    H114105   5.963   4.845   3.606  0.5944  0.1320  0.0077
 4720TIP3    H214106   5.988   4.696   3.608  0.8417  0.1745  0.1091
 4721TIP3   OH214107   3.738   4.722   1.161 -0.1697  0.6860 -0.1545
 4721TIP3    H114108   3.776   4.696   1.077 -2.0323  1.2357 -1.2048
 4721TIP3    H214109   3.773   4.659   1.224  0.6386 -0.2164 -1.4762
 4722TIP3   OH214110   2.832   6.167   1.685  0.3576 -0.7365  0.0527
 4722TIP3    H114111   2.779   6.122   1.751 -0.6324 -0.2697 -0.4340
 4722TIP3    H214112   2.802   6.257   1.687  0.3016 -0.7262 -1.0679
 4723TIP3   OH214113   4.536   6.159   1.917  0.6053 -0.4501  0.0149
 4723TIP3    H114114   4.513   6.119   2.001  1.2652 -0.1011  0.3690
 4723TIP3    H214115   4.625   6.193   1.930  1.0573 -1.1608 -1.1023
 4724TIP3   OH214116   3.884   5.911   1.323  0.5495 -0.4009  0.4409
 4724TIP3    H114117   3.920   5.918   1.411  1.2479  1.4793  0.0213
 4724TIP3    H214118   3.886   6.000   1.288 -1.7120 -0.7500 -0.7011
 4725TIP3   OH214119   5.443   6.879   0.686  0.0183  0.8528 -0.0663
 4725TIP3    H114120   5.506   6.892   0.756 -0.4104 -0.6103  0.6073
 4725TIP3    H214121   5.395   6.962   0.681  0.1983  1.0466  1.2151
 4726TIP3   OH214122   4.273   5.953   1.534  0.1665 -0.1854 -0.0414
 4726TIP3    H114123   4.254   5.866   1.570 -1.2886  0.6551  1.2841
 4726TIP3    H214124   4.358   5.976   1.572 -0.7800  0.1662  1.9275
 4727TIP3   OH214125   4.024   3.040   4.412 -0.8973 -0.0834 -0.2426
 4727TIP3    H114126   4.014   2.954   4.373 -1.9684  0.6727 -1.6731
 4727TIP3    H214127   4.113   3.040   4.448 -0.9604 -1.8371 -0.0540
 4728TIP3   OH214128   3.728   3.620   3.513 -0.1376  0.2951  0.1896
 4728TIP3    H114129   3.698   3.626   3.604  2.4019  0.8464  1.0376
 4728TIP3    H214130   3.707   3.531   3.486 -2.5423  0.6671  0.6865
 4729TIP3   OH214131   1.413   4.706   1.112 -0.4823  0.2644  0.7189
 4729TIP3    H114132   1.406   4.656   1.193  1.2572 -0.3646  0.4960
 4729TIP3    H214133   1.491   4.760   1.124 -0.0865  0.0081 -0.6202
 4730TIP3   OH214134   5.546   4.375   3.179  0.9538  0.3201  0.6450
 4730TIP3    H114135   5.545   4.386   3.083 -0.9579  0.5016  0.6826
 4730TIP3    H214136   5.516   4.285   3.193 -1.8626  1.3105  1.1970
 4731TIP3   OH214137   4.725   6.186   3.341  0.3836 -0.1532 -0.6533
 4731TIP3    H114138   4.808   6.220   3.307  1.6479 -1.6139  0.9212
 4731TIP3    H214139   4.746   6.098   3.371 -1.4474 -0.0449  1.0030
 4732TIP3   OH214140   0.140   2.216   6.595  0.3761  0.0494  0.6001
 4732TIP3    H114141   0.094   2.288   6.638  0.7537  0.5987  0.0869
 4732TIP3    H214142   0.211   2.258   6.547 -1.2928 -0.3163 -2.2986
 4733TIP3   OH214143   6.785   6.799   2.849  0.3231 -0.2547  0.4605
 4733TIP3    H114144   6.774   6.739   2.923  1.1766 -0.9090  0.0693
 4733TIP3    H214145   6.728   6.763   2.781  0.5537 -0.4198  0.3525
 4734TIP3   OH214146   2.945   6.876   0.930  0.1370 -0.0712 -0.5345
 4734TIP3    H114147   2.861   6.915   0.953 -0.0461 -0.0568 -1.2034
 4734TIP3    H214148   2.928   6.782   0.924 -0.3074  0.1135 -2.6095
 4735TIP3   OH214149   3.236   5.607   6.548 -0.7635 -0.4443  0.2070
 4735TIP3    H114150   3.243   5.654   6.631  0.3887 -0.1796 -0.0373
 4735TIP3    H214151   3.326   5.601   6.516 -1.1201 -1.1998 -0.6611
 4736TIP3   OH214152   5.080   6.889   3.062  0.2446 -0.2178 -0.4232
 4736TIP3    H114153   5.175   6.877   3.059  0.1653 -1.0058  0.2830
 4736TIP3    H214154   5.044   6.811   3.021 -0.1314 -0.4364  0.3132
 4737TIP3   OH214155   3.432   5.615   2.503 -0.6253 -0.7797 -0.2572
 4737TIP3    H114156   3.501   5.548   2.494 -1.0531 -1.1800 -0.6055
 4737TIP3    H214157   3.473   5.696   2.472 -0.1147 -0.8876  0.1293
 4738TIP3   OH214158   5.045   3.989   3.408  0.0802  1.2970  0.0652
 4738TIP3    H114159   5.115   3.999   3.473  2.0979  3.1165 -2.3158
 4738TIP3    H214160   5.021   4.078   3.385 -2.4563  0.6734  0.1945
 4739TIP3   OH214161   5.485   4.871   2.412  0.1469 -0.5583 -0.0464
 4739TIP3    H114162   5.430   4.793   2.414 -0.9839  0.2573  1.2161
 4739TIP3    H214163   5.541   4.858   2.335 -1.4434 -1.6416 -1.0607
 4740TIP3   OH214164   7.169   6.437   1.115 -0.2971 -0.0937  0.1565
 4740TIP3    H114165   7.219   6.513   1.145  0.0524 -0.2636 -0.0087
 4740TIP3    H214166   7.206   6.363   1.163 -0.5709 -0.1765  0.2419
 4741TIP3   OH214167   6.350   5.897   1.974  0.0946  0.0996  0.4087
 4741TIP3    H114168   6.438   5.908   2.011 -1.1765  2.8188  2.9038
 4741TIP3    H214169   6.311   5.826   2.025  0.0871  0.4657  0.9256
 4742TIP3   OH214170   5.238   5.630   1.666  0.1924 -0.0045  0.1890
 4742TIP3    H114171   5.249   5.563   1.599  4.1129 -0.6489  1.3210
 4742TIP3    H214172   5.261   5.712   1.621 -1.5944  0.1744 -0.4038
 4743TIP3   OH214173   6.046   3.336   0.683  0.2906  0.2037 -0.1388
 4743TIP3    H114174   6.041   3.396   0.757  2.9510 -1.0620  1.1494
 4743TIP3    H214175   6.063   3.250   0.723  0.3576 -0.7507 -2.1533
 4744TIP3   OH214176   2.690   2.362   6.028  0.7908 -0.4097 -0.1946
 4744TIP3    H114177   2.647   2.326   5.951 -0.4555  0.1514  0.2269
 4744TIP3    H214178   2.654   2.451   6.035  1.3766 -0.2396  0.6600
 4745TIP3   OH214179   6.382   7.058   6.750 -0.4138 -0.2468 -0.4736
 4745TIP3    H114180   6.433   7.084   6.827  0.5103  0.2951 -1.2556
 4745TIP3    H214181   6.376   7.137   6.697 -0.4843 -0.7820 -1.2662
 4746TIP3   OH214182   5.325   5.597   2.776 -0.5991  0.3632 -0.3713
 4746TIP3    H114183   5.309   5.566   2.865 -0.5956  0.8752 -0.1938
 4746TIP3    H214184   5.402   5.654   2.784 -2.3661  2.7907 -0.1969
 4747TIP3   OH214185   5.070   6.262   1.591 -0.3492  0.1361  0.1717
 4747TIP3    H114186   5.099   6.354   1.591 -2.9066  0.9881 -0.8728
 4747TIP3    H214187   5.072   6.237   1.684  1.6152  0.8137  0.3327
 4748TIP3   OH214188   6.954   6.359   0.529 -0.1646 -0.2344 -1.2840
 4748TIP3    H114189   6.952   6.434   0.469  0.4118  2.2137  1.6101
 4748TIP3    H214190   6.862   6.335   0.540 -0.5126  1.2524 -0.8254
 4749TIP3   OH214191   5.128   5.218   2.254  0.2068 -0.0168 -0.3867
 4749TIP3    H114192   5.068   5.292   2.247  1.9492  1.3496 -1.4541
 4749TIP3    H214193   5.119   5.188   2.345 -0.3990  1.6046  0.1023
 4750TIP3   OH214194   4.989   6.750   1.471 -0.4649  0.4200  0.0044
 4750TIP3    H114195   4.973   6.748   1.565  1.2794  0.1633  0.3195
 4750TIP3    H214196   5.052   6.679   1.456  0.2174  1.2433 -1.1615
 4751TIP3   OH214197   6.980   6.605   2.511 -0.3551 -0.1417 -0.2072
 4751TIP3    H114198   7.009   6.684   2.558 -2.0226  0.6765 -0.5003
 4751TIP3    H214199   7.045   6.593   2.442 -0.4024  1.3341 -0.5318
 4752TIP3   OH214200   4.072   5.135   3.886 -0.0173 -0.1835  0.5248
 4752TIP3    H114201   4.136   5.167   3.949  0.4978 -1.5507  0.7252
 4752TIP3    H214202   4.052   5.046   3.915 -0.6743 -0.4027 -0.5574
 4753TIP3   OH214203   4.208   5.944   1.227  0.1512 -0.0314 -0.4923
 4753TIP3    H114204   4.223   5.967   1.319 -1.6131 -1.5852  0.2372
 4753TIP3    H214205   4.155   6.015   1.193  3.3445  2.1029 -1.2179
 4754TIP3   OH214206   4.451   3.879   1.222  0.3360  0.3335 -0.0301
 4754TIP3    H114207   4.508   3.843   1.291  0.4534  1.6480  0.5813
 4754TIP3    H214208   4.466   3.973   1.226 -0.4819  0.5177 -1.1396
 4755TIP3   OH214209   5.720   6.561   2.935  0.3231  0.2445  0.2826
 4755TIP3    H114210   5.695   6.624   2.867  0.3164  1.2652  1.2092
 4755TIP3    H214211   5.639   6.517   2.958  0.2077  0.3508  0.0780
 4756TIP3   OH214212   5.180   5.680   1.937  0.3843  0.1784 -0.0815
 4756TIP3    H114213   5.208   5.607   1.991  1.4217  0.5887 -0.0621
 4756TIP3    H214214   5.199   5.652   1.847  0.2609  0.2000 -0.1145
 4757TIP3   OH214215   5.202   5.192   2.539 -0.0831 -0.2865  0.6913
 4757TIP3    H114216   5.253   5.265   2.503  0.3596 -0.8113  0.2402
 4757TIP3    H214217   5.267   5.123   2.554 -0.6665 -0.9887  0.0429
 4758TIP3   OH214218   7.239   0.646   0.530  0.1880  0.6053  0.0126
 4758TIP3    H114219   7.322   0.598   0.527  0.1098  0.5154 -0.8516
 4758TIP3    H214220   7.240   0.701   0.452 -0.6157  0.5220 -0.0583
 4759TIP3   OH214221   7.338   5.608   0.420 -0.0451 -0.1080  0.0595
 4759TIP3    H114222   7.397   5.649   0.356 -1.0138  0.4612 -0.4913
 4759TIP3    H214223   7.253   5.606   0.375 -0.3290 -1.3882  0.6461
 4760TIP3   OH214224   6.356   5.958   1.577  0.6265 -0.1312  0.9480
 4760TIP3    H114225   6.379   5.869   1.602 -1.7165 -0.8570  0.5802
 4760TIP3    H214226   6.277   5.949   1.524  1.6983  1.9716 -1.0800
 4761TIP3   OH214227   3.785   6.566   1.663 -0.0426 -0.4107 -0.0754
 4761TIP3    H114228   3.801   6.612   1.581 -0.5166 -0.4554 -0.1903
 4761TIP3    H214229   3.690   6.561   1.671  0.0007 -0.2266  0.5759
 4762TIP3   OH214230   4.659   6.527   1.024  0.2678 -0.3831  0.2319
 4762TIP3    H114231   4.637   6.498   1.112  0.4574  1.1838  0.8198
 4762TIP3    H214232   4.690   6.617   1.036  3.0349 -1.1138 -1.0669
 4763TIP3   OH214233   5.411   7.142   2.462  0.3112  0.3918 -0.2719
 4763TIP3    H114234   5.321   7.163   2.486  0.5293  0.0593  0.8306
 4763TIP3    H214235   5.431   7.203   2.391 -0.3027  1.4351  0.4445
 4764TIP3   OH214236   5.851   4.829   1.344  0.4325  0.2910  0.0370
 4764TIP3    H114237   5.896   4.801   1.424  1.2710  1.6161  0.0484
 4764TIP3    H214238   5.882   4.769   1.277  0.6615 -0.0708  0.4647
 4765TIP3   OH214239   8.310   7.021   3.092  0.0301  0.0218  0.3429
 4765TIP3    H114240   8.344   7.028   3.181  1.1108 -2.2091  0.1257
 4765TIP3    H214241   8.220   6.989   3.103 -0.8944  2.6162  0.7418
 4766TIP3   OH214242   5.373   6.987   1.249  0.3203 -0.2767  0.5795
 4766TIP3    H114243   5.379   7.066   1.303  0.3661  0.0733  0.0650
 4766TIP3    H214244   5.438   7.000   1.180  0.8087 -1.0749  0.8831
 4767TIP3   OH214245   3.238   6.343   2.070  0.0041  0.1885  0.4985
 4767TIP3    H114246   3.257   6.426   2.113  1.5360 -0.9681  2.1270
 4767TIP3    H214247   3.267   6.276   2.133  1.9844 -1.5542 -2.1755
 4768TIP3   OH214248   5.950   5.571   1.394 -0.5770  0.0594  0.3609
 4768TIP3    H114249   6.027   5.591   1.447  0.8026 -1.1617 -1.1116
 4768TIP3    H214250   5.984   5.514   1.325 -2.1345  2.4384 -2.4349
 4769TIP3   OH214251   4.844   5.613   0.824 -0.1194  0.1900 -0.1198
 4769TIP3    H114252   4.827   5.682   0.888 -2.4372 -1.8469  1.5732
 4769TIP3    H214253   4.924   5.570   0.854  0.8673  1.5969 -0.7161
 4770TIP3   OH214254   0.526   0.588   1.593 -0.2738 -0.0588  0.0953
 4770TIP3    H114255   0.557   0.498   1.588  1.9121  0.4242  3.1629
 4770TIP3    H214256   0.575   0.634   1.524  0.3106 -0.7739  0.0214
 4771TIP3   OH214257   4.627   5.220   1.470 -0.6082  0.1391 -0.6165
 4771TIP3    H114258   4.638   5.314   1.456 -1.6992  0.1978 -1.1436
 4771TIP3    H214259   4.540   5.201   1.434 -0.6153 -0.9677 -0.0142
 4772TIP3   OH214260   4.974   7.545   1.165  0.2709 -0.1171  0.2831
 4772TIP3    H114261   4.893   7.496   1.146 -0.2777  0.6672  0.5773
 4772TIP3    H214262   4.997   7.519   1.254  1.2220 -1.5409 -0.3525
 4773TIP3   OH214263   5.212   6.291   3.074  0.0024 -0.2791 -0.2837
 4773TIP3    H114264   5.203   6.217   3.015  0.3524  0.1358 -0.8550
 4773TIP3    H214265   5.221   6.367   3.017  2.7521 -0.1477  0.2769
 4774TIP3   OH214266   3.103   7.365   1.136 -0.5475 -0.1263 -0.3793
 4774TIP3    H114267   3.030   7.327   1.088 -1.2072  0.8060 -0.1280
 4774TIP3    H214268   3.092   7.460   1.127  1.4543  0.0271 -1.5513
 4775TIP3   OH214269   3.552   0.976   6.719  0.3186  0.1637  0.3353
 4775TIP3    H114270   3.620   1.038   6.691  1.3213 -0.3563  1.5330
 4775TIP3    H214271   3.547   0.912   6.649  0.8583  0.3789  0.0945
 4776TIP3   OH214272   5.146   2.190   1.492 -0.0531 -0.3669 -0.5737
 4776TIP3    H114273   5.075   2.148   1.541  0.3561  2.2240  2.4618
 4776TIP3    H214274   5.102   2.238   1.422 -1.1795 -0.2129  0.2191
 4777TIP3   OH214275   3.370   7.635   1.145 -0.4931  1.2766 -1.0400
 4777TIP3    H114276   3.394   7.543   1.136 -1.8088  0.6763  1.1452
 4777TIP3    H214277   3.278   7.638   1.119 -0.5206  1.9245 -0.8731
 4778TIP3   OH214278   4.380   7.369   3.675 -0.4985  0.0648  0.1265
 4778TIP3    H114279   4.311   7.304   3.684  1.2059 -1.8292 -0.1363
 4778TIP3    H214280   4.456   7.330   3.719  0.6393  1.7679 -0.2632
 4779TIP3   OH214281   5.352   7.925   1.360  0.1528  0.3134  0.2649
 4779TIP3    H114282   5.416   7.983   1.319 -1.0060  0.4983 -1.3186
 4779TIP3    H214283   5.371   7.839   1.321 -0.8962  0.4726 -0.6140
 4780TIP3   OH214284   5.375   7.600   2.580  0.5047  0.0746  0.3275
 4780TIP3    H114285   5.304   7.582   2.518  1.0204  2.5856 -1.0789
 4780TIP3    H214286   5.351   7.553   2.659 -1.9222 -0.4183 -0.6592
 4781TIP3   OH214287   8.421   0.759   2.092 -0.6319 -0.3806  0.3052
 4781TIP3    H114288   8.399   0.688   2.032  2.4033 -0.7892 -0.3616
 4781TIP3    H214289   8.464   0.825   2.038  1.0666 -0.2392  1.7687
 4782TIP3   OH214290   5.558   7.174   3.367  0.2995 -0.4156  0.4024
 4782TIP3    H114291   5.568   7.079   3.358  2.0128 -0.1601 -0.7432
 4782TIP3    H214292   5.576   7.192   3.459 -1.0654 -1.3117  0.8483
 4783TIP3   OH214293   2.751   2.061   6.457 -0.0047  0.4721  0.2223
 4783TIP3    H114294   2.834   2.057   6.410 -0.8373  2.7521 -1.5142
 4783TIP3    H214295   2.690   2.101   6.395 -1.5263  2.0553  2.6535
 4784TIP3   OH214296   5.249   5.499   2.515 -0.0933 -0.0700  0.0595
 4784TIP3    H114297   5.158   5.487   2.541 -0.1263  1.8130  0.8536
 4784TIP3    H214298   5.292   5.535   2.592  0.7656  1.4588 -1.1163
 4785TIP3   OH214299   0.351   5.953   0.373 -0.4378  0.0797 -0.2086
 4785TIP3    H114300   0.426   6.004   0.342  1.6371 -3.9829 -2.1755
 4785TIP3    H214301   0.295   5.942   0.296 -0.4835 -1.2664  0.0107
 4786TIP3   OH214302   4.612   5.513   0.696 -0.7502  0.7111 -0.2950
 4786TIP3    H114303   4.633   5.421   0.710 -0.5934  1.2778  3.6659
 4786TIP3    H214304   4.689   5.561   0.725 -0.9507  2.1465 -2.0050
 4787TIP3   OH214305   6.615   6.004   0.266  0.2408 -0.0592 -0.0472
 4787TIP3    H114306   6.561   5.935   0.228  2.3651 -2.2829  0.8071
 4787TIP3    H214307   6.580   6.016   0.354 -2.4153  2.5756 -1.3798
 4788TIP3   OH214308   7.290   5.502   2.753  0.1545  0.1684 -0.0984
 4788TIP3    H114309   7.306   5.553   2.832  0.9308  0.6846 -0.5791
 4788TIP3    H214310   7.281   5.412   2.784 -0.1033  0.4433  0.6351
 4789TIP3   OH214311   6.103   5.666   1.726  0.1540 -0.0575 -0.5824
 4789TIP3    H114312   6.197   5.684   1.733  0.3945 -0.9274 -1.3593
 4789TIP3    H214313   6.078   5.704   1.641 -0.3271  0.6967 -0.1065
 4790TIP3   OH214314   3.569   1.518   5.444 -0.8441  0.2862 -0.1919
 4790TIP3    H114315   3.622   1.442   5.465 -1.5393  0.0830  0.9007
 4790TIP3    H214316   3.545   1.507   5.352  1.1511  0.4846 -0.7509
 4791TIP3   OH214317   2.741   3.390   6.690 -0.2611  0.2844  0.1119
 4791TIP3    H114318   2.765   3.317   6.746 -0.4426 -0.0591 -0.2538
 4791TIP3    H214319   2.821   3.410   6.641 -0.0242  0.7707  0.7023
 4792TIP3   OH214320   6.134   3.960   2.101  0.2789  0.0957 -0.0219
 4792TIP3    H114321   6.172   3.917   2.024 -0.9927 -0.9533 -0.0902
 4792TIP3    H214322   6.045   3.981   2.075  0.3954  1.3387  0.5763
 4793TIP3   OH214323   5.751   7.280   0.646 -0.1763 -0.1731 -0.4277
 4793TIP3    H114324   5.834   7.324   0.630  0.6725 -1.4450  0.3206
 4793TIP3    H214325   5.704   7.337   0.707  0.3895  0.2802 -0.4217
 4794TIP3   OH214326   3.108   6.546   1.853 -0.1114  0.1600  0.2111
 4794TIP3    H114327   3.163   6.593   1.791 -0.7239  0.8458  0.1717
 4794TIP3    H214328   3.133   6.454   1.842  2.2871  0.6304  1.4890
 4795TIP3   OH214329   5.989   6.020   3.326 -0.0942 -0.2786 -0.0692
 4795TIP3    H114330   5.917   6.082   3.337 -0.0924  0.3064 -2.9811
 4795TIP3    H214331   5.946   5.937   3.303  0.0139 -0.8866  1.7963
 4796TIP3   OH214332   5.306   5.050   1.594  0.3493 -0.2984 -0.0563
 4796TIP3    H114333   5.349   5.080   1.513  3.6811 -0.7707  1.4460
 4796TIP3    H214334   5.362   5.083   1.664 -0.5555 -2.8190  1.9277
 4797TIP3   OH214335   5.474   5.796   0.975 -0.2327 -0.1552 -0.7955
 4797TIP3    H114336   5.413   5.761   0.910 -1.6584  1.0861 -0.1757
 4797TIP3    H214337   5.556   5.749   0.960 -1.1984 -1.4941 -1.9884
 4798TIP3   OH214338   3.156   3.298   0.827 -0.0414  0.6223 -0.7239
 4798TIP3    H114339   3.242   3.336   0.808 -0.3299  2.1163  0.8032
 4798TIP3    H214340   3.140   3.237   0.755  2.8280 -0.6104 -0.3911
 4799TIP3   OH214341   3.470   7.416   0.840  0.4182  0.3979  0.3643
 4799TIP3    H114342   3.444   7.324   0.849  1.9091 -0.1943 -1.1199
 4799TIP3    H214343   3.428   7.444   0.759  0.8773  0.7088  0.2394
 4800TIP3   OH214344   4.085   4.708   0.797 -0.0996  0.1269  0.4111
 4800TIP3    H114345   4.059   4.800   0.788 -1.0764  0.0539  2.2628
 4800TIP3    H214346   4.035   4.662   0.730 -0.8180  0.7086  0.5480
 4801TIP3   OH214347   7.301   5.189   1.902  0.5776  0.2184  0.0057
 4801TIP3    H114348   7.354   5.125   1.950  0.2499  1.1457  1.6415
 4801TIP3    H214349   7.211   5.160   1.916  0.5221  0.0232 -0.7520
 4802TIP3   OH214350   4.253   5.048   0.287  0.0716  0.0505 -0.5484
 4802TIP3    H114351   4.330   5.079   0.239 -0.0632  0.5151 -0.4603
 4802TIP3    H214352   4.252   4.953   0.270 -0.9117  0.4330 -2.8540
 4803TIP3   OH214353   5.139   5.967   1.804  0.2026  0.4076 -0.0580
 4803TIP3    H114354   5.232   5.958   1.823  0.0969 -2.0458 -0.4439
 4803TIP3    H214355   5.095   5.934   1.882 -0.3538  1.5688  0.1263
 4804TIP3   OH214356   4.980   4.809   1.441 -0.7359  0.3439  0.6401
 4804TIP3    H114357   5.015   4.811   1.352 -0.1203 -0.7186  0.8447
 4804TIP3    H214358   4.892   4.772   1.431 -0.9470  0.9115  0.3879
 4805TIP3   OH214359   5.224   5.897   2.351 -0.4338  0.3529  0.4303
 4805TIP3    H114360   5.129   5.887   2.337 -0.5823  1.1112  0.8832
 4805TIP3    H214361   5.234   5.906   2.445  0.0482  0.6580  0.3538
 4806TIP3   OH214362   7.361   6.291   2.971  0.1417  0.5484  0.0056
 4806TIP3    H114363   7.314   6.374   2.965 -0.8867 -0.0882 -1.0712
 4806TIP3    H214364   7.424   6.304   3.042 -1.2857  1.6125  1.1214
 4807TIP3   OH214365   7.771   5.161   0.996  0.0667  0.5771  0.2627
 4807TIP3    H114366   7.843   5.136   0.938 -1.8040 -0.9777 -1.4491
 4807TIP3    H214367   7.771   5.095   1.065  1.4716  1.6844  1.3482
 4808TIP3   OH214368   6.623   4.421   1.039  0.1912  0.2629 -0.3074
 4808TIP3    H114369   6.653   4.510   1.020  1.7694 -0.3659 -0.9105
 4808TIP3    H214370   6.567   4.398   0.964 -0.1612  0.7178 -0.1846
 4809TIP3   OH214371   3.695   5.516   0.609  0.4587  0.5492  0.3331
 4809TIP3    H114372   3.611   5.533   0.652  0.1020  0.7037 -0.4091
 4809TIP3    H214373   3.695   5.421   0.595 -0.8170  0.8762 -2.1132
 4810TIP3   OH214374   7.681   6.738   4.127 -0.3623  0.4664  0.3913
 4810TIP3    H114375   7.774   6.716   4.122 -0.2941  1.0296 -1.0095
 4810TIP3    H214376   7.636   6.663   4.087 -0.4967  0.2842  0.8831
 4811TIP3   OH214377   3.359   4.829   1.448 -0.0195 -0.0570 -0.5079
 4811TIP3    H114378   3.306   4.749   1.449  0.9526 -0.7164 -0.4742
 4811TIP3    H214379   3.352   4.861   1.358 -1.5721  0.6254 -0.1689
 4812TIP3   OH214380   6.452   7.620   0.717  0.5241 -0.0885 -0.1747
 4812TIP3    H114381   6.543   7.647   0.732  0.1735  0.6936  0.5927
 4812TIP3    H214382   6.428   7.575   0.798 -0.6777  2.1973  0.7822
 4813TIP3   OH214383   5.976   4.615   2.561  0.9270 -0.3598 -0.2346
 4813TIP3    H114384   5.962   4.638   2.653  1.2223  0.0944 -0.3026
 4813TIP3    H214385   5.893   4.636   2.519  0.9225 -0.1953 -0.1451
 4814TIP3   OH214386   3.230   6.431   1.122  0.6845 -0.2764 -0.3540
 4814TIP3    H114387   3.278   6.496   1.071  1.2813 -0.2108  0.2859
 4814TIP3    H214388   3.249   6.348   1.077 -1.4439  0.1726 -2.1777
 4815TIP3   OH214389   5.850   6.852   3.758  0.2099 -1.0528  0.0007
 4815TIP3    H114390   5.876   6.912   3.828  1.1185 -0.7856 -0.5470
 4815TIP3    H214391   5.907   6.776   3.769  0.7626 -0.7645 -0.7821
 4816TIP3   OH214392   4.297   5.061   3.049 -0.2292 -0.3166 -0.0722
 4816TIP3    H114393   4.245   4.991   3.010 -0.5802 -0.1433  0.0817
 4816TIP3    H214394   4.352   5.017   3.114 -1.1495 -0.3092  0.7063
 4817TIP3   OH214395   6.441   6.514   4.943 -0.4506  0.1888 -0.0609
 4817TIP3    H114396   6.419   6.602   4.911 -0.9398  0.1606  0.1752
 4817TIP3    H214397   6.497   6.530   5.019  1.8725  0.2222 -1.7559
 4818TIP3   OH214398   4.367   1.642   5.497 -0.2402  0.1812  0.2390
 4818TIP3    H114399   4.334   1.586   5.427 -1.3732  1.5528 -0.3583
 4818TIP3    H214400   4.458   1.658   5.474 -0.6827  0.8673 -1.0981
 4819TIP3   OH214401   5.834   7.605   2.403  0.2153  0.5545  0.1233
 4819TIP3    H114402   5.763   7.552   2.366  0.7814 -0.6129  0.6691
 4819TIP3    H214403   5.796   7.646   2.481 -0.0812  0.5666 -0.0260
 4820TIP3   OH214404   3.955   1.556   5.720 -0.0702 -0.7224  0.0578
 4820TIP3    H114405   3.859   1.558   5.721 -0.0463  2.0615  1.3786
 4820TIP3    H214406   3.977   1.533   5.629 -1.9669 -0.8396 -0.4089
 4821TIP3   OH214407   5.650   4.339   3.449 -0.0986  0.0163 -0.2281
 4821TIP3    H114408   5.610   4.363   3.366  0.7325 -0.9486 -0.9236
 4821TIP3    H214409   5.739   4.312   3.426  0.0386 -0.5724  0.9317
 4822TIP3   OH214410   4.620   6.625   0.251  0.0603  0.0160 -0.2169
 4822TIP3    H114411   4.704   6.663   0.275  0.1482 -0.1329 -0.2899
 4822TIP3    H214412   4.568   6.699   0.220 -0.2384  0.2885  0.9458
 4823TIP3   OH214413   4.271   5.689   2.027 -0.0001 -0.1155  0.5240
 4823TIP3    H114414   4.314   5.626   2.085  3.8851  0.2886 -1.7264
 4823TIP3    H214415   4.225   5.635   1.963  1.7286 -0.7263 -0.2490
 4824TIP3   OH214416   3.990   6.182   1.298  0.5551  0.3224  0.8399
 4824TIP3    H114417   4.061   6.190   1.362  0.7276 -1.4581  0.9167
 4824TIP3    H214418   3.941   6.264   1.306  1.2186  0.5968  2.4674
 4825TIP3   OH214419   6.139   6.578   2.185  0.0569 -0.7211  0.2259
 4825TIP3    H114420   6.229   6.580   2.217  0.5219 -1.6307 -0.9544
 4825TIP3    H214421   6.085   6.561   2.262  0.8969 -0.0758  0.9506
 4826TIP3   OH214422   2.818   7.281   0.943 -0.0111  0.4354 -0.0674
 4826TIP3    H114423   2.818   7.319   1.031  0.5428  0.8379 -0.2380
 4826TIP3    H214424   2.773   7.197   0.953 -0.6970  0.8597  0.4379
 4827TIP3   OH214425   7.171   2.696   1.038  0.3389  0.1273  0.0086
 4827TIP3    H114426   7.235   2.644   1.086  0.5941  0.2339 -0.2123
 4827TIP3    H214427   7.170   2.657   0.951  0.4225  0.3964 -0.1139
 4828TIP3   OH214428   3.917   5.697   1.590  0.1666  0.7348  0.0809
 4828TIP3    H114429   3.988   5.759   1.611  0.1371  1.9357 -3.1070
 4828TIP3    H214430   3.954   5.641   1.522 -1.3484  0.1785 -0.3012
 4829TIP3   OH214431   7.107   3.711   2.392  0.2705 -0.4178  0.0320
 4829TIP3    H114432   7.193   3.746   2.368 -0.3734  0.1122 -1.5329
 4829TIP3    H214433   7.054   3.788   2.413  0.3968 -0.7898  1.7558
 4830TIP3   OH214434   4.861   5.069   1.066 -0.0725 -0.8261  0.4720
 4830TIP3    H114435   4.801   5.138   1.092  0.9477  0.4158 -0.4215
 4830TIP3    H214436   4.805   4.993   1.049 -1.4872  0.5672 -1.2377
 4831TIP3   OH214437   2.308   7.814   2.372 -0.3224  0.2360 -0.4110
 4831TIP3    H114438   2.308   7.732   2.422  0.9715  0.2533 -0.3466
 4831TIP3    H214439   2.274   7.789   2.286 -0.5053 -0.2432 -0.2054
 4832TIP3   OH214440   5.709   6.519   0.340 -0.7495 -0.0806  0.1514
 4832TIP3    H114441   5.704   6.582   0.412  0.3217  0.2934 -0.0931
 4832TIP3    H214442   5.724   6.435   0.382  1.6203  0.3914  0.2870
 4833TIP3   OH214443   3.351   6.184   1.048  0.1077 -0.5505  0.2425
 4833TIP3    H114444   3.325   6.119   1.114 -0.3571 -1.3961 -0.7658
 4833TIP3    H214445   3.447   6.187   1.055  0.0306 -0.3334  1.2401
 4834TIP3   OH214446   0.557   1.217   6.889 -0.1875  0.4176  0.1266
 4834TIP3    H114447   0.494   1.215   6.962 -0.4174  1.4946 -0.0262
 4834TIP3    H214448   0.641   1.196   6.929 -0.2985  1.1006  0.7316
 4835TIP3   OH214449   5.687   3.820   2.946 -0.5559 -0.1765 -0.0369
 4835TIP3    H114450   5.627   3.859   3.009 -0.2283  2.3745 -1.2176
 4835TIP3    H214451   5.673   3.870   2.866  0.9838 -1.5448 -1.1860
 4836TIP3   OH214452   2.685   3.161   5.928 -0.2757  0.1568  0.4077
 4836TIP3    H114453   2.679   3.067   5.945 -0.7970  0.2238  0.6163
 4836TIP3    H214454   2.609   3.180   5.872 -0.7519  0.6282  1.1960
 4837TIP3   OH214455   5.362   4.838   1.211  0.2536  0.2374 -0.1646
 4837TIP3    H114456   5.406   4.905   1.159  0.6457 -0.2649 -0.4902
 4837TIP3    H214457   5.271   4.868   1.218  0.9990  2.1116  1.8930
 4838TIP3   OH214458   7.486   5.154   1.186 -0.1883  0.1358 -0.2433
 4838TIP3    H114459   7.422   5.154   1.258  0.7661  2.5849  0.6561
 4838TIP3    H214460   7.566   5.189   1.226  0.5677  0.8077 -2.3052
 4839TIP3   OH214461   7.768   6.952   4.288 -0.2639  0.9342 -0.2971
 4839TIP3    H114462   7.703   6.894   4.250  0.2503 -0.5454  1.0186
 4839TIP3    H214463   7.832   6.967   4.218 -0.5585  0.1602 -0.7302
 4840TIP3   OH214464   3.842   3.982   0.213  0.0978  0.4075 -0.2187
 4840TIP3    H114465   3.868   4.073   0.229  1.7317 -0.1887  0.7034
 4840TIP3    H214466   3.867   3.936   0.294  2.0349 -1.3993 -1.8010
 4841TIP3   OH214467   3.501   5.156   1.570  0.0393  0.2220  0.7603
 4841TIP3    H114468   3.410   5.161   1.539  0.4883  0.6034 -0.5366
 4841TIP3    H214469   3.531   5.071   1.540  0.5879  0.7375 -0.1812
 4842TIP3   OH214470   5.521   4.375   2.894  0.0975 -0.7896  0.0408
 4842TIP3    H114471   5.588   4.323   2.851 -0.1411 -0.1736 -1.1004
 4842TIP3    H214472   5.447   4.315   2.906 -0.6388 -0.4183 -2.4020
 4843TIP3   OH214473   7.424   6.902   3.016 -0.5042 -0.3879 -0.3001
 4843TIP3    H114474   7.350   6.949   2.976 -0.7369  0.9890  1.6722
 4843TIP3    H214475   7.481   6.972   3.050  0.4206 -1.4982  0.4494
 4844TIP3   OH214476   6.708   5.711   3.616 -0.3915 -0.2043 -0.2275
 4844TIP3    H114477   6.727   5.661   3.537  1.7041  1.3528 -0.7350
 4844TIP3    H214478   6.680   5.645   3.680  2.0564 -2.0043 -0.9639
 4845TIP3   OH214479   4.729   7.504   0.258 -0.3079 -0.0704 -0.1424
 4845TIP3    H114480   4.742   7.573   0.193  0.8643  0.3898  0.5678
 4845TIP3    H214481   4.638   7.515   0.287 -0.7717 -0.1603 -1.5579
 4846TIP3   OH214482   4.302   6.739   1.489 -0.0776 -0.2115 -0.1063
 4846TIP3    H114483   4.347   6.821   1.507 -0.8052  0.1207  0.2212
 4846TIP3    H214484   4.284   6.741   1.395  1.7276 -0.9282 -0.4798
 4847TIP3   OH214485   6.701   0.174   3.028  0.1728 -0.0472 -0.5199
 4847TIP3    H114486   6.632   0.139   3.085  0.2870 -0.0933 -0.4083
 4847TIP3    H214487   6.668   0.259   3.000 -0.4144 -0.5399 -1.3494
 4848TIP3   OH214488   4.623   5.617   2.560  0.0575 -0.2742 -0.1334
 4848TIP3    H114489   4.594   5.526   2.555 -0.6685 -0.0452 -0.2686
 4848TIP3    H214490   4.596   5.646   2.647 -0.5993  0.0922 -0.4490
 4849TIP3   OH214491   4.099   6.051   3.374 -0.4592  0.8912  0.1742
 4849TIP3    H114492   4.022   6.104   3.353 -0.3807  0.9416  0.0048
 4849TIP3    H214493   4.160   6.112   3.416 -0.6075  0.7956  0.5264
 4850TIP3   OH214494   2.882   7.035   3.887 -0.2074 -0.1123  0.0128
 4850TIP3    H114495   2.962   7.021   3.937  0.8059 -0.0724 -1.5757
 4850TIP3    H214496   2.850   6.947   3.868  0.2145 -0.1420 -0.5534
 4851TIP3   OH214497   4.404   5.984   3.172  0.0947  0.4279  0.1103
 4851TIP3    H114498   4.495   5.988   3.203  0.4071  0.2601 -0.7749
 4851TIP3    H214499   4.362   6.060   3.213  1.0103  1.3742 -0.6781
 4852TIP3   OH214500   5.564   0.419   0.608 -0.0665 -0.4720  0.2319
 4852TIP3    H114501   5.619   0.398   0.684 -0.9759  1.3351  1.4281
 4852TIP3    H214502   5.606   0.496   0.569 -0.4386 -0.4953 -0.2079
 4853TIP3   OH214503   5.290   6.298   2.122  0.2937  0.2712  0.0592
 4853TIP3    H114504   5.371   6.247   2.130  1.5014  1.9071 -1.1909
 4853TIP3    H214505   5.319   6.389   2.130 -1.4231  0.8768 -0.4473
 4854TIP3   OH214506   4.649   7.078   3.116 -0.1397 -0.5952 -0.6606
 4854TIP3    H114507   4.740   7.107   3.110  0.5042 -2.1351  1.2472
 4854TIP3    H214508   4.616   7.084   3.026  1.4996  0.9902 -1.1871
 4855TIP3   OH214509   5.236   5.454   3.333 -0.1080 -0.4632 -0.2912
 4855TIP3    H114510   5.260   5.438   3.242  0.5687  0.2455 -0.2366
 4855TIP3    H214511   5.285   5.389   3.383  1.6822  0.9344 -0.1848
 4856TIP3   OH214512   3.985   6.768   2.794 -0.1467  0.4615 -0.3605
 4856TIP3    H114513   3.997   6.846   2.848  0.5426 -0.0119  0.1709
 4856TIP3    H214514   4.070   6.754   2.753  0.0985 -0.7438  0.5283
 4857TIP3   OH214515   5.577   7.622   0.217  0.6564 -0.0228 -0.0718
 4857TIP3    H114516   5.614   7.589   0.135  1.3397 -2.5759  1.1850
 4857TIP3    H214517   5.603   7.714   0.220  2.1125 -0.3341 -1.8782
 4858TIP3   OH214518   6.167   6.373   2.012  0.4991  0.1132  0.6952
 4858TIP3    H114519   6.140   6.390   1.922  1.1321 -0.6954  0.3419
 4858TIP3    H214520   6.142   6.452   2.061 -1.8056 -0.3091  0.2468
 4859TIP3   OH214521   3.396   7.079   5.119 -0.5125 -0.2576  0.2156
 4859TIP3    H114522   3.351   7.030   5.188 -2.3252 -2.9627 -2.7830
 4859TIP3    H214523   3.472   7.026   5.098 -1.1000 -0.5359 -1.2780
 4860TIP3   OH214524   6.582   5.573   1.824 -0.8052 -0.1072 -0.3140
 4860TIP3    H114525   6.667   5.583   1.782 -0.9842  0.5531 -0.5263
 4860TIP3    H214526   6.560   5.481   1.813  0.1097 -0.3894  0.1757
 4861TIP3   OH214527   0.505   0.615   0.053 -0.0779 -0.1442  0.3688
 4861TIP3    H114528   0.522   0.665   0.133  0.1219 -1.0157  0.8802
 4861TIP3    H214529   0.584   0.626   0.000 -0.4430  0.9199  0.0220
 4862TIP3   OH214530   4.555   6.757   1.620  0.0946  0.2174  0.7134
 4862TIP3    H114531   4.518   6.837   1.583  3.6127  0.6898 -1.9817
 4862TIP3    H214532   4.585   6.783   1.708 -2.3628  0.7734  1.4249
 4863TIP3   OH214533   3.976   6.751   0.805 -0.1334  0.5059  0.3715
 4863TIP3    H114534   4.009   6.837   0.832  1.2067 -0.4926  2.0006
 4863TIP3    H214535   4.043   6.717   0.747 -1.8579  1.5958 -2.3571
 4864TIP3   OH214536   4.214   6.216   1.463 -0.4054 -0.0523 -0.1799
 4864TIP3    H114537   4.260   6.132   1.472 -1.5703 -0.6752  0.0609
 4864TIP3    H214538   4.250   6.254   1.382  1.5867  0.1557  0.7790
 4865TIP3   OH214539   6.965   3.851   1.014  0.5770  0.0782 -0.1656
 4865TIP3    H114540   7.042   3.798   0.994  0.7285  0.3492 -0.3086
 4865TIP3    H214541   6.996   3.941   1.012  0.8039  0.0874  2.2573
 4866TIP3   OH214542   3.715   5.928   2.119 -0.4713 -0.2576 -0.8143
 4866TIP3    H114543   3.648   5.863   2.141 -1.9619  0.8532 -1.9099
 4866TIP3    H214544   3.765   5.888   2.048 -0.1797 -0.9500 -0.2298
 4867TIP3   OH214545   3.085   6.147   2.301  0.5430  0.0774  0.0698
 4867TIP3    H114546   3.152   6.204   2.338  1.1224  0.9439 -2.2429
 4867TIP3    H214547   3.118   6.123   2.214 -1.0718 -1.3801 -0.1866
 4868TIP3   OH214548   7.380   7.476   2.622  0.0018 -0.1245 -0.1033
 4868TIP3    H114549   7.346   7.549   2.572 -0.0238 -0.6206 -0.8213
 4868TIP3    H214550   7.374   7.504   2.713  1.0827  1.2122 -0.4390
 4869TIP3   OH214551   4.740   7.448   2.460  0.1397  0.3172 -0.0311
 4869TIP3    H114552   4.680   7.521   2.448 -0.4729 -0.0936  0.4935
 4869TIP3    H214553   4.712   7.383   2.395 -0.2385 -0.0288  0.4677
 4870TIP3   OH214554   5.016   3.933   2.928  0.6991 -0.3546  0.5266
 4870TIP3    H114555   5.042   3.901   3.015 -0.4507 -0.5279  0.8158
 4870TIP3    H214556   4.948   3.871   2.899  0.1739  0.4357  0.0603
 4871TIP3   OH214557   5.514   4.625   2.705  0.6006  0.0132  0.2008
 4871TIP3    H114558   5.507   4.563   2.777 -1.2064 -0.0016  0.0522
 4871TIP3    H214559   5.427   4.625   2.665  1.6848 -0.2817 -2.2425
 4872TIP3   OH214560   4.425   5.481   0.976 -0.1108  0.1769 -0.3739
 4872TIP3    H114561   4.423   5.507   0.884  0.7762 -0.1024 -0.4779
 4872TIP3    H214562   4.430   5.563   1.025 -2.4964  0.4173 -0.4875
 4873TIP3   OH214563   4.452   4.922   3.217 -0.7821 -0.6625 -0.0794
 4873TIP3    H114564   4.517   4.938   3.286 -2.5301 -1.0833  1.7132
 4873TIP3    H214565   4.451   4.827   3.207 -0.3503 -0.5814 -0.8539
 4874TIP3   OH214566   5.400   7.670   3.969  0.2011  0.2810  0.0911
 4874TIP3    H114567   5.384   7.577   3.952  1.7256  0.2049 -1.0477
 4874TIP3    H214568   5.467   7.669   4.038  0.7343  0.5391 -0.4291
 4875TIP3   OH214569   4.686   5.862   3.146 -0.4490  0.6765  0.0508
 4875TIP3    H114570   4.673   5.873   3.240 -1.2101 -0.3930  0.0830
 4875TIP3    H214571   4.598   5.856   3.110 -0.1550 -2.1415 -0.3121
 4876TIP3   OH214572   5.906   7.591   1.525 -0.3126  0.0947 -0.1016
 4876TIP3    H114573   5.842   7.591   1.454 -1.1809  0.8745  0.6704
 4876TIP3    H214574   5.957   7.671   1.512 -1.7262  1.2341  1.2550
 4877TIP3   OH214575   6.183   5.363   0.182 -0.1674  0.0612 -0.0768
 4877TIP3    H114576   6.201   5.289   0.124  0.6030  0.2464 -0.0848
 4877TIP3    H214577   6.121   5.328   0.246 -0.4603 -0.3523 -0.5796
 4878TIP3   OH214578   2.019   0.939   6.838  0.0634 -0.2186 -0.5665
 4878TIP3    H114579   2.054   0.910   6.922  1.5842  1.7866 -0.4804
 4878TIP3    H214580   1.925   0.920   6.844 -0.0285  0.8094  1.9945
 4879TIP3   OH214581   3.580   7.774   1.071  0.7538 -0.0978 -0.2258
 4879TIP3    H114582   3.525   7.837   1.024  0.0938 -1.0630 -0.7637
 4879TIP3    H214583   3.518   7.712   1.110  1.4127 -0.6481 -0.0405
 4880TIP3   OH214584   4.819   6.087   2.028 -0.2157  0.3595  0.1569
 4880TIP3    H114585   4.777   6.012   1.987 -0.2190 -0.4498  1.5916
 4880TIP3    H214586   4.907   6.057   2.049 -0.6294  0.3196  1.9034
 4881TIP3   OH214587   0.917   0.935   1.628  0.4112 -0.1027 -0.1751
 4881TIP3    H114588   0.874   0.880   1.562  0.3006  1.3795 -1.3453
 4881TIP3    H214589   0.855   0.937   1.701 -0.1549 -0.4840 -0.6400
 4882TIP3   OH214590   0.552   0.098   2.818 -0.4958 -0.5231 -0.3685
 4882TIP3    H114591   0.625   0.146   2.780 -1.5554  0.1827 -1.5601
 4882TIP3    H214592   0.592   0.022   2.859  0.9371  0.0099 -0.7494
 4883TIP3   OH214593   6.833   7.352   1.538  0.4874 -0.0849  0.3399
 4883TIP3    H114594   6.868   7.437   1.510  1.5382 -1.2621 -2.0261
 4883TIP3    H214595   6.778   7.323   1.466 -0.0429 -1.3314  1.2238
 4884TIP3   OH214596   0.184   7.617   2.537  0.1628  1.0074  0.1323
 4884TIP3    H114597   0.139   7.557   2.478  1.8355  0.5969 -0.7743
 4884TIP3    H214598   0.186   7.572   2.622  0.2400  0.3478 -0.2182
 4885TIP3   OH214599   6.329   4.251   1.095  0.0999  0.4787  0.2128
 4885TIP3    H114600   6.271   4.223   1.167 -0.3803  1.1229  0.0778
 4885TIP3    H214601   6.284   4.325   1.055  0.5086  0.3059 -0.5759
 4886TIP3   OH214602   4.013   6.599   1.844 -0.1478 -0.6169 -0.1280
 4886TIP3    H114603   3.942   6.658   1.868  0.0175 -0.8397  0.9242
 4886TIP3    H214604   4.073   6.601   1.919 -0.9490 -3.3814  0.6790
 4887TIP3   OH214605   6.782   6.238   0.224 -0.1648 -0.0405  0.1567
 4887TIP3    H114606   6.709   6.295   0.248  1.5900  1.7186  1.4552
 4887TIP3    H214607   6.745   6.150   0.226 -2.0578  0.7555  1.6263
 4888TIP3   OH214608   4.469   2.388   5.906  0.1036 -0.0461 -0.2217
 4888TIP3    H114609   4.396   2.442   5.876  0.1955  0.0066 -0.3495
 4888TIP3    H214610   4.454   2.302   5.867  0.7476  0.2831 -1.2248
 4889TIP3   OH214611   0.952   4.456   2.973 -0.1198 -0.1908 -0.7411
 4889TIP3    H114612   1.030   4.480   3.022 -1.6805 -0.6134  2.0547
 4889TIP3    H214613   0.962   4.363   2.956 -0.7317 -0.5889  1.0103
 4890TIP3   OH214614   4.650   7.186   2.035  0.3350  0.0469 -0.2654
 4890TIP3    H114615   4.673   7.197   2.127  0.7549 -0.5567 -0.2956
 4890TIP3    H214616   4.619   7.096   2.029  4.0674 -1.2287 -1.4766
 4891TIP3   OH214617   4.333   7.038   4.281  0.6227  1.0998 -0.0681
 4891TIP3    H114618   4.312   7.130   4.268  1.0893  0.9754 -1.9991
 4891TIP3    H214619   4.319   6.998   4.195  0.1186 -0.6948  0.8150
 4892TIP3   OH214620   0.146   0.076   3.235  0.0780  0.0520 -0.0847
 4892TIP3    H114621   0.131   0.149   3.294 -0.2558  0.1736 -0.3160
 4892TIP3    H214622   0.218   0.105   3.178 -0.1839  0.2787 -0.3024
 4893TIP3   OH214623   7.095   5.636   0.273  0.8265  0.1458  0.3414
 4893TIP3    H114624   7.017   5.647   0.326  1.2847 -1.5302  1.3841
 4893TIP3    H214625   7.117   5.725   0.244 -0.4918  0.8283  1.4049
 4894TIP3   OH214626   6.400   4.098   2.706  0.5714 -0.1418 -0.2550
 4894TIP3    H114627   6.432   4.153   2.778  3.4663 -2.0154 -0.0315
 4894TIP3    H214628   6.307   4.086   2.725  0.6493  1.7863  1.5643
 4895TIP3   OH214629   7.040   5.155   1.837  0.3272  0.0834 -0.4403
 4895TIP3    H114630   6.981   5.102   1.890  1.1763  1.0282  1.4994
 4895TIP3    H214631   6.992   5.170   1.755 -2.3319  1.2134  1.2487
 4896TIP3   OH214632   5.947   6.400   4.163  0.6945  0.4560  0.0527
 4896TIP3    H114633   5.897   6.326   4.198 -0.1529  1.3330  0.7306
 4896TIP3    H214634   5.927   6.400   4.069 -1.7310  1.6308  0.5259
 4897TIP3   OH214635   1.615   1.574   6.881 -0.0458 -0.0303 -0.4539
 4897TIP3    H114636   1.566   1.581   6.963  0.2737 -0.5905 -0.2154
 4897TIP3    H214637   1.548   1.573   6.813 -0.3336 -0.0649 -0.1708
 4898TIP3   OH214638   0.235   4.418   2.843 -0.0878 -0.3185 -0.0776
 4898TIP3    H114639   0.184   4.340   2.867  1.2364 -1.1869 -0.0095
 4898TIP3    H214640   0.216   4.482   2.912 -0.4917 -0.9015  0.3571
 4899TIP3   OH214641   5.268   6.234   0.355  0.1043  0.6398 -0.7304
 4899TIP3    H114642   5.183   6.210   0.390  0.1176  0.1735 -1.0121
 4899TIP3    H214643   5.271   6.330   0.362 -0.7925  0.7301 -1.5078
 4900TIP3   OH214644   4.709   4.762   2.213  0.1299  0.3400 -0.0608
 4900TIP3    H114645   4.730   4.734   2.124 -0.9502  3.1588 -1.2675
 4900TIP3    H214646   4.615   4.744   2.222  0.8903 -3.0881  1.7831
 4901TIP3   OH214647   5.834   6.596   1.817  0.3229  0.8090 -0.2963
 4901TIP3    H114648   5.826   6.503   1.836 -0.3448  0.5290 -1.8118
 4901TIP3    H214649   5.884   6.632   1.890  0.9996 -0.8238  0.0667
 4902TIP3   OH214650   5.548   4.834   2.069  0.7330 -0.6486  0.4430
 4902TIP3    H114651   5.631   4.842   2.023  0.8208 -0.1904  0.6839
 4902TIP3    H214652   5.520   4.744   2.051  1.4118 -0.8975  0.5777
 4903TIP3   OH214653   5.501   4.231   1.162  0.2806  0.0949 -0.2729
 4903TIP3    H114654   5.539   4.237   1.250  0.2126  0.5452 -0.2736
 4903TIP3    H214655   5.480   4.139   1.151  0.6173 -0.0205  0.0484
 4904TIP3   OH214656   3.483   3.782   0.866 -0.0574 -0.2499 -0.0252
 4904TIP3    H114657   3.392   3.754   0.856  0.2882 -1.2961 -0.3268
 4904TIP3    H214658   3.532   3.729   0.803  0.6753  0.7541 -0.3071
 4905TIP3   OH214659   6.183   7.642   0.515  0.9043  0.2933  0.0629
 4905TIP3    H114660   6.275   7.622   0.493  1.2117  0.5312  1.1391
 4905TIP3    H214661   6.149   7.682   0.435  2.1629  1.5948  0.1562
 4906TIP3   OH214662   4.382   5.077   2.336  0.2394  0.0400 -0.3583
 4906TIP3    H114663   4.408   5.168   2.322  0.3267 -0.0200 -0.5961
 4906TIP3    H214664   4.402   5.034   2.253 -1.5005  0.1855 -0.8643
 4907TIP3   OH214665   4.769   7.047   4.264 -0.5571 -0.1982 -0.3254
 4907TIP3    H114666   4.828   6.983   4.304 -0.2898  0.4523  0.3272
 4907TIP3    H214667   4.821   7.087   4.194 -0.2969  0.2177  0.1048
 4908TIP3   OH214668   5.090   4.731   0.921 -0.8006  1.2015 -0.7239
 4908TIP3    H114669   5.065   4.791   0.850  1.2551  2.0948 -0.7430
 4908TIP3    H214670   5.185   4.742   0.929 -0.0214 -3.4977 -2.0252
 4909TIP3   OH214671   4.783   7.319   1.177 -0.5217  0.3474 -0.2881
 4909TIP3    H114672   4.758   7.343   1.087 -1.1842  0.5758 -0.0437
 4909TIP3    H214673   4.845   7.247   1.166 -0.5428  0.4253 -0.9367
 4910TIP3   OH214674   6.416   5.472   3.178  0.0367  0.7657 -0.1657
 4910TIP3    H114675   6.384   5.435   3.095 -0.8241  1.9857 -0.3953
 4910TIP3    H214676   6.504   5.505   3.157  0.3769 -0.1669 -0.2307
 4911TIP3   OH214677   3.773   5.916   3.505 -0.5643 -0.3655 -0.6729
 4911TIP3    H114678   3.751   5.837   3.555 -1.7687  0.1628 -0.3469
 4911TIP3    H214679   3.868   5.912   3.494 -0.5588 -1.6395 -0.2851
 4912TIP3   OH214680   5.756   5.778   1.356 -0.0093 -0.7728  0.0823
 4912TIP3    H114681   5.826   5.713   1.344 -0.2853 -1.3990  1.7678
 4912TIP3    H214682   5.700   5.741   1.424 -1.1042  0.4636 -0.1310
 4913TIP3   OH214683   5.795   6.357   1.922 -0.5818  0.2622  0.9970
 4913TIP3    H114684   5.751   6.394   1.998  0.2595  1.0623  1.1124
 4913TIP3    H214685   5.825   6.271   1.951 -1.2959  0.0717  1.1872
 4914TIP3   OH214686   6.888   0.772   1.589 -0.0295  0.7338 -0.1714
 4914TIP3    H114687   6.913   0.858   1.624 -0.6183 -0.1759  2.6434
 4914TIP3    H214688   6.792   0.775   1.586 -0.2081 -0.7428  2.5745
 4915TIP3   OH214689   0.794   0.979   1.117 -0.2997  0.6061  0.5411
 4915TIP3    H114690   0.717   1.035   1.131  0.2763  1.8693 -1.1370
 4915TIP3    H214691   0.758   0.893   1.096 -1.2247  0.7296  1.5426
 4916TIP3   OH214692   5.666   7.232   2.519 -0.2310 -0.2961 -0.0186
 4916TIP3    H114693   5.596   7.172   2.545  0.9696 -1.8150 -0.1982
 4916TIP3    H214694   5.640   7.263   2.433 -0.3222 -1.4233 -0.4034
 4917TIP3   OH214695   2.781   6.510   1.009  0.7066 -0.0138 -0.3061
 4917TIP3    H114696   2.691   6.525   0.981  0.1845  0.0241  1.3225
 4917TIP3    H214697   2.774   6.490   1.103  2.4739  1.0825  0.0896
 4918TIP3   OH214698   5.525   5.802   3.849 -0.0323 -0.2369 -0.4838
 4918TIP3    H114699   5.546   5.895   3.840  0.9114 -0.0403  3.0246
 4918TIP3    H214700   5.609   5.757   3.841 -0.2335 -0.6497 -0.3049
 4919TIP3   OH214701   5.604   7.010   2.936 -0.5559  0.0084  0.2469
 4919TIP3    H114702   5.696   6.997   2.910  0.0031  0.4385  1.9185
 4919TIP3    H214703   5.581   7.095   2.900  0.1468  0.5110  0.9516
 4920TIP3   OH214704   6.294   5.584   2.737 -0.0622 -0.4629 -0.2116
 4920TIP3    H114705   6.237   5.659   2.724 -0.8480 -0.7100  1.6652
 4920TIP3    H214706   6.381   5.622   2.753 -0.2149 -0.0072 -0.4605
 4921TIP3   OH214707   6.277   2.718   1.598  0.0106  0.5694 -0.2667
 4921TIP3    H114708   6.314   2.683   1.517  1.8176 -0.8947  1.1311
 4921TIP3    H214709   6.344   2.777   1.632  0.7095 -1.3377  1.7894
 4922TIP3   OH214710   1.952   1.879   6.361 -0.2435  0.6013 -0.1241
 4922TIP3    H114711   1.879   1.817   6.363 -0.2254  0.5385 -1.2352
 4922TIP3    H214712   1.970   1.898   6.454 -0.3048 -0.9783  0.2139
 4923TIP3   OH214713   1.861   6.060   1.960 -0.1880 -0.1475  0.0640
 4923TIP3    H114714   1.808   5.996   1.911  1.5958 -2.5746  1.2116
 4923TIP3    H214715   1.950   6.048   1.927  0.4475  0.6398  1.4479
 4924TIP3   OH214716   5.682   5.241   0.416  0.2824 -0.2798 -0.3661
 4924TIP3    H114717   5.701   5.325   0.459  0.2595  0.5461 -1.8966
 4924TIP3    H214718   5.766   5.214   0.378  0.0156 -0.2804 -0.9723
 4925TIP3   OH214719   6.449   3.476   0.883 -0.2666  0.3773  0.5130
 4925TIP3    H114720   6.402   3.529   0.818 -0.7682 -1.4099 -0.6188
 4925TIP3    H214721   6.381   3.446   0.943 -0.5791 -2.0159 -0.9896
 4926TIP3   OH214722   3.444   2.152   6.363  0.0226  0.4632  0.5122
 4926TIP3    H114723   3.426   2.204   6.441 -1.8437  1.4495 -0.5348
 4926TIP3    H214724   3.368   2.094   6.354  0.0818  0.5463 -0.7114
 4927TIP3   OH214725   5.808   3.889   0.845  0.1649  0.1577 -0.2924
 4927TIP3    H114726   5.875   3.820   0.845 -2.3542 -2.3827 -0.0104
 4927TIP3    H214727   5.810   3.924   0.756  0.7496 -1.0728 -0.7813
 4928TIP3   OH214728   5.160   3.815   1.372 -0.7456  0.3535  0.4457
 4928TIP3    H114729   5.125   3.727   1.384 -1.5693  0.4883 -0.8239
 4928TIP3    H214730   5.101   3.855   1.308  0.7851  1.1565 -0.4758
 4929TIP3   OH214731   5.582   4.479   2.337  0.4896  0.0955  0.4923
 4929TIP3    H114732   5.551   4.488   2.247  0.3711 -3.3609  0.1460
 4929TIP3    H214733   5.537   4.401   2.370  0.2268  1.5291  3.7015
 4930TIP3   OH214734   2.936   2.080   6.706  0.0629 -0.6070 -0.1683
 4930TIP3    H114735   2.876   2.029   6.651 -0.1023 -0.4049 -0.1807
 4930TIP3    H214736   2.964   2.020   6.775 -0.7465 -0.4912  0.2696
 4931TIP3   OH214737   0.044   6.056   0.197 -0.3215  0.0523 -0.7590
 4931TIP3    H114738  -0.008   5.988   0.156  1.1445 -1.3010 -0.4279
 4931TIP3    H214739   0.033   6.043   0.291  0.5020 -0.1880 -0.6848
 4932TIP3   OH214740   6.038   6.304   0.897 -0.0835  0.1209 -0.4591
 4932TIP3    H114741   6.103   6.273   0.960 -0.1524 -1.3409 -1.0808
 4932TIP3    H214742   5.956   6.304   0.945  0.2166  1.0534  0.0562
 4933TIP3   OH214743   4.439   6.874   2.898  0.0018 -0.1417  0.2441
 4933TIP3    H114744   4.476   6.787   2.890  0.3286  0.0076  0.1103
 4933TIP3    H214745   4.502   6.931   2.854  0.4157  0.3299  1.4486
 4934TIP3   OH214746   2.172   2.442   6.831 -0.2424  0.0761 -0.0682
 4934TIP3    H114747   2.173   2.353   6.797  1.2908  0.2649 -0.5429
 4934TIP3    H214748   2.114   2.489   6.771 -1.2802 -0.6539  0.3472
 4935TIP3   OH214749   5.551   5.987   3.171  0.2298  0.2297  0.3424
 4935TIP3    H114750   5.457   5.985   3.155  0.5292 -0.4962 -1.3524
 4935TIP3    H214751   5.586   6.044   3.103  1.2961 -1.4747 -0.5721
 4936TIP3   OH214752   2.985   0.334   0.418 -0.3294  0.0510 -0.5536
 4936TIP3    H114753   3.044   0.390   0.467 -0.8217 -1.4194  1.7926
 4936TIP3    H214754   3.027   0.248   0.420 -2.0470 -0.7793  0.2606
 4937TIP3   OH214755   5.852   5.335   1.576 -0.5170  0.3056  0.3470
 4937TIP3    H114756   5.790   5.351   1.505  0.9843  2.4767 -0.5071
 4937TIP3    H214757   5.891   5.420   1.594  0.3952 -0.5532  2.6093
 4938TIP3   OH214758   7.930   4.864   1.592  0.1935  0.5804 -0.3065
 4938TIP3    H114759   7.894   4.919   1.522 -0.4316 -0.6843 -1.0025
 4938TIP3    H214760   7.878   4.783   1.587  1.6883 -0.4118  0.1060
 4939TIP3   OH214761   5.861   6.739   3.137  0.3108  0.3364  0.3701
 4939TIP3    H114762   5.833   6.666   3.082 -0.6143  1.5624 -0.8165
 4939TIP3    H214763   5.780   6.785   3.159  1.1023  2.4485 -0.9673
 4940TIP3   OH214764   0.182   6.480   2.577 -0.4102  0.3097 -0.6157
 4940TIP3    H114765   0.121   6.547   2.610 -1.4637 -1.1274  0.4224
 4940TIP3    H214766   0.131   6.430   2.514 -0.8997 -1.9584  1.4809
 4941TIP3   OH214767   5.791   6.953   2.064 -0.3797  0.6079  0.2702
 4941TIP3    H114768   5.741   7.031   2.088  0.1133  0.9094  0.3344
 4941TIP3    H214769   5.858   6.946   2.132  0.3158  0.8181 -0.3824
 4942TIP3   OH214770   2.439   0.437   0.648  0.0443 -0.2208 -0.4372
 4942TIP3    H114771   2.514   0.463   0.701 -0.8387  0.1842  0.6219
 4942TIP3    H214772   2.477   0.411   0.564  1.0749  3.7060 -1.2956
 4943TIP3   OH214773   6.936   4.847   1.118 -0.0419  0.1565 -0.3726
 4943TIP3    H114774   6.874   4.880   1.053 -2.2404  0.9637  2.0325
 4943TIP3    H214775   7.017   4.894   1.100 -0.9816  1.3102 -1.7176
 4944TIP3   OH214776   1.768   7.628   6.899 -0.0744 -0.0308  0.3202
 4944TIP3    H114777   1.791   7.683   6.974 -1.0018  0.9357 -0.0956
 4944TIP3    H214778   1.810   7.670   6.824  0.9175 -1.0407  0.2911
 4945TIP3   OH214779   6.496   6.227   2.384 -0.0361  0.1250  0.5453
 4945TIP3    H114780   6.463   6.139   2.367  0.9394 -0.1955  0.3053
 4945TIP3    H214781   6.572   6.236   2.328 -1.1486  1.7804 -0.7281
 4946TIP3   OH214782   6.720   5.803   0.066  0.1802  0.0092  0.3136
 4946TIP3    H114783   6.624   5.796   0.067  0.1808  0.0513  1.0613
 4946TIP3    H214784   6.736   5.897   0.073  0.2687  0.1374 -1.2712
 4947TIP3   OH214785   7.103   7.005   1.825 -0.6114  0.5531  0.6554
 4947TIP3    H114786   7.055   6.980   1.904 -0.3601 -0.0943  0.6032
 4947TIP3    H214787   7.060   6.958   1.754 -2.1512  2.7114  0.0885
 4948TIP3   OH214788   7.279   6.207   2.578  0.1555  0.0463 -0.1457
 4948TIP3    H114789   7.291   6.188   2.671 -1.3087 -0.1289  0.0143
 4948TIP3    H214790   7.197   6.255   2.573  0.6794  0.8661 -1.2546
 4949TIP3   OH214791   5.646   7.172   2.118  0.6437 -0.3636  0.5540
 4949TIP3    H114792   5.551   7.158   2.122  0.5732  0.2547  1.1164
 4949TIP3    H214793   5.656   7.259   2.079  1.0274 -1.0445 -0.9209
 4950TIP3   OH214794   0.546   4.116   2.162 -0.2617 -0.3903 -0.1791
 4950TIP3    H114795   0.574   4.083   2.247  0.1297 -0.8332 -0.4843
 4950TIP3    H214796   0.623   4.160   2.126 -0.4618 -0.0987 -0.2595
 4951TIP3   OH214797   5.391   5.533   2.262 -0.3352 -0.0123  0.2589
 4951TIP3    H114798   5.337   5.509   2.187 -2.1160  2.0231  0.8456
 4951TIP3    H214799   5.333   5.523   2.337  1.1917 -1.2479  1.3099
 4952TIP3   OH214800   6.372   5.494   1.000 -0.0330 -0.0736  0.5943
 4952TIP3    H114801   6.426   5.425   1.038  0.5639  1.7853  3.2622
 4952TIP3    H214802   6.302   5.507   1.064 -0.5521  1.2739 -0.2391
 4953TIP3   OH214803   5.334   5.701   0.433  0.0566 -0.2228 -0.4651
 4953TIP3    H114804   5.285   5.685   0.353 -0.5593 -1.7027  0.1935
 4953TIP3    H214805   5.273   5.678   0.504  0.2069  2.1333  0.4655
 4954TIP3   OH214806   7.476   6.074   1.225 -0.9717 -0.1014  0.0698
 4954TIP3    H114807   7.512   6.056   1.311 -0.0350  0.3801 -0.2225
 4954TIP3    H214808   7.456   6.167   1.226 -0.3283  0.0422 -0.4731
 4955TIP3   OH214809   7.684   4.628   2.197  0.0584 -0.4445  0.6415
 4955TIP3    H114810   7.687   4.538   2.166  2.1871 -0.5016  0.9112
 4955TIP3    H214811   7.636   4.623   2.280 -0.8485 -1.1420  0.0770
 4956TIP3   OH214812   7.338   5.722   1.039 -0.4075  0.6771  0.4126
 4956TIP3    H114813   7.264   5.667   1.012 -0.1315 -0.7486  2.5008
 4956TIP3    H214814   7.298   5.806   1.061 -1.3290  0.1415  0.8206
 4957TIP3   OH214815   8.251   5.911   3.326  0.0880 -0.4355 -0.1931
 4957TIP3    H114816   8.342   5.916   3.356 -0.1421  0.3221  0.4074
 4957TIP3    H214817   8.253   5.946   3.237  0.3505 -0.2018 -0.0976
 4958TIP3   OH214818   1.667   5.615   1.204 -0.4048  0.0066 -0.1450
 4958TIP3    H114819   1.702   5.685   1.150  0.5037 -0.1458  0.2395
 4958TIP3    H214820   1.665   5.651   1.293  1.7982 -1.0354  0.3734
 4959TIP3   OH214821   6.539   7.967   1.423 -0.2974  0.3019  0.2738
 4959TIP3    H114822   6.525   7.990   1.331  3.8389  1.5152 -0.1370
 4959TIP3    H214823   6.587   7.885   1.420 -1.7085 -0.5721  1.4101
 4960TIP3   OH214824   5.443   5.865   2.135 -0.2414 -0.8841 -0.2474
 4960TIP3    H114825   5.357   5.823   2.142 -0.7463  0.2244  0.2217
 4960TIP3    H214826   5.500   5.811   2.190 -0.4940 -1.9712 -1.0264
 4961TIP3   OH214827   8.388   6.692   1.845  0.1904  0.2500 -0.7398
 4961TIP3    H114828   8.400   6.729   1.932 -0.9100  1.6702 -1.1746
 4961TIP3    H214829   8.358   6.602   1.861 -0.1334  0.5495  0.3407
 4962TIP3   OH214830   1.050   0.323   1.959 -0.2806 -0.2921  0.1080
 4962TIP3    H114831   1.009   0.258   1.903 -0.7664 -0.5324  0.7352
 4962TIP3    H214832   1.021   0.300   2.048 -2.2948  2.1097  0.1196
 4963TIP3   OH214833   6.893   6.359   1.051  0.0984 -0.2176 -0.1235
 4963TIP3    H114834   6.987   6.374   1.066 -0.3609  0.7058  2.0444
 4963TIP3    H214835   6.855   6.358   1.138 -1.7876 -1.6082 -0.9407
 4964TIP3   OH214836   3.510   2.124   6.704  0.4256 -0.1858 -0.1373
 4964TIP3    H114837   3.576   2.192   6.690 -0.4033  0.9482  1.2078
 4964TIP3    H214838   3.505   2.117   6.800 -0.9977 -0.6416 -0.2456
 4965TIP3   OH214839   7.798   6.586   1.943 -0.8696 -0.3928  0.2946
 4965TIP3    H114840   7.826   6.613   1.856  0.1396 -0.9391  0.4398
 4965TIP3    H214841   7.720   6.532   1.928 -2.8343  2.4095 -0.0099
 4966TIP3   OH214842   8.013   6.833   1.151  0.2393  0.2938 -0.3210
 4966TIP3    H114843   7.950   6.765   1.126  1.7246 -0.0927 -3.2489
 4966TIP3    H214844   7.981   6.912   1.108  0.0948  0.8053  0.7160
 4967TIP3   OH214845   6.617   7.061   3.768 -0.8336  0.0142  0.0484
 4967TIP3    H114846   6.578   7.097   3.689 -0.4424  1.0735  0.3392
 4967TIP3    H214847   6.548   7.066   3.834 -0.0115  2.5297  0.7486
 4968TIP3   OH214848   6.037   6.283   0.368  0.0489  0.1059 -0.5164
 4968TIP3    H114849   5.972   6.325   0.425 -0.5763  0.9370 -1.8327
 4968TIP3    H214850   6.008   6.303   0.279  0.6965 -1.7015 -1.1436
 4969TIP3   OH214851   1.002   1.189   1.927 -0.3753 -0.1585 -0.6339
 4969TIP3    H114852   0.932   1.125   1.938  0.3468 -0.6596  1.1471
 4969TIP3    H214853   1.070   1.162   1.989  1.6582 -0.0254 -2.7216
 4970TIP3   OH214854   6.841   7.670   1.180 -0.1953 -0.1783  0.3608
 4970TIP3    H114855   6.752   7.641   1.160 -0.8762  0.1654  2.6372
 4970TIP3    H214856   6.889   7.663   1.098 -2.3877 -0.1704 -0.9373
 4971TIP3   OH214857   6.207   6.134   1.838  0.0918 -0.0756 -0.0496
 4971TIP3    H114858   6.144   6.162   1.771  0.7871  0.3255 -0.5391
 4971TIP3    H214859   6.203   6.038   1.835  0.0189 -0.0591 -0.5779
 4972TIP3   OH214860   6.731   5.779   2.523  0.2908  0.1029 -0.3748
 4972TIP3    H114861   6.687   5.707   2.477 -2.3045  0.5147  1.3731
 4972TIP3    H214862   6.764   5.740   2.603 -0.2570  0.6339  0.1145
 4973TIP3   OH214863   7.752   4.840   1.990  0.8456  0.4481  0.2424
 4973TIP3    H114864   7.657   4.846   1.985  0.9239  0.3369 -2.1593
 4973TIP3    H214865   7.769   4.756   2.033 -0.1454  0.5997  0.9317
 4974TIP3   OH214866   6.974   5.096   0.794 -0.2509  0.6274  0.0503
 4974TIP3    H114867   6.967   5.190   0.813 -0.2541  0.4175  1.0889
 4974TIP3    H214868   7.031   5.062   0.862  1.1927  0.1767 -1.3488
 4975TIP3   OH214869   1.292   1.156   1.144 -0.4122 -0.3812 -0.3196
 4975TIP3    H114870   1.377   1.198   1.162 -1.2761  0.9396  0.7646
 4975TIP3    H214871   1.237   1.181   1.218 -1.8486 -0.9581 -1.1832
 4976TIP3   OH214872   0.458   5.941   3.407  0.0799  0.4806 -0.0120
 4976TIP3    H114873   0.402   5.864   3.397  1.8478 -0.6277 -1.6701
 4976TIP3    H214874   0.408   6.012   3.368 -0.0464 -0.5803 -1.8520
 4977TIP3   OH214875   7.896   6.234   1.705 -0.1264 -0.0032 -0.1356
 4977TIP3    H114876   7.915   6.287   1.628 -0.1841  0.1128 -0.0709
 4977TIP3    H214877   7.854   6.155   1.671  2.3229 -1.2191 -0.4648
 4978TIP3   OH214878   0.602   0.301   1.593 -0.0225  0.0898 -0.3365
 4978TIP3    H114879   0.675   0.353   1.559 -0.4010 -0.0547 -1.4023
 4978TIP3    H214880   0.634   0.211   1.592  0.5183  0.2621  1.1968
 4979TIP3   OH214881   5.470   5.962   0.636 -0.2969  0.1918  0.0022
 4979TIP3    H114882   5.375   5.953   0.626 -0.2115 -1.4300  0.6278
 4979TIP3    H214883   5.497   6.012   0.559 -1.6555  0.7078 -0.1623
 4980TIP3   OH214884   4.560   2.320   6.308 -0.1687  0.6285 -0.0694
 4980TIP3    H114885   4.557   2.324   6.403 -0.8724 -0.3234 -0.0454
 4980TIP3    H214886   4.654   2.322   6.287  0.0260 -0.1791  0.7020
 4981TIP3   OH214887   7.314   5.723   3.472  0.5895  0.0116  0.1773
 4981TIP3    H114888   7.375   5.751   3.541 -0.6851  0.7125  1.0383
 4981TIP3    H214889   7.276   5.642   3.506  1.1233 -0.4922 -0.4153
 4982TIP3   OH214890   7.203   4.508   1.710 -0.7164  0.0609 -0.2442
 4982TIP3    H114891   7.252   4.433   1.678 -2.0716 -0.8960 -0.1201
 4982TIP3    H214892   7.150   4.536   1.636 -0.1150  0.9961 -0.3331
 4983TIP3   OH214893   7.110   4.861   1.361  0.3442  0.0049  0.2158
 4983TIP3    H114894   7.105   4.929   1.428  0.3385 -1.6049  1.8854
 4983TIP3    H214895   7.022   4.858   1.323  0.4161  1.0884 -0.0534
 4984TIP3   OH214896   0.421   0.584   0.912 -0.1023 -0.3777  0.3190
 4984TIP3    H114897   0.401   0.647   0.982 -0.9954 -1.5456  1.1245
 4984TIP3    H214898   0.414   0.498   0.954 -2.2704 -1.1807 -1.5785
 4985TIP3   OH214899   6.700   1.481   5.648  0.3633  0.1763 -0.4359
 4985TIP3    H114900   6.680   1.396   5.611  0.1015 -0.1088  0.3470
 4985TIP3    H214901   6.740   1.530   5.576 -1.4257  0.1195 -1.4958
 4986TIP3   OH214902   7.912   0.032   2.165  0.0146  0.6733 -0.2677
 4986TIP3    H114903   7.922   0.074   2.080  0.2652 -1.3271 -1.2510
 4986TIP3    H214904   7.829   0.066   2.199 -1.0106  0.0845 -2.1314
 4987TIP3   OH214905   8.392   6.192   1.687 -0.6857 -0.0411 -0.4031
 4987TIP3    H114906   8.304   6.155   1.695 -0.9693  0.2568 -2.0983
 4987TIP3    H214907   8.447   6.117   1.665 -0.3121 -0.4167  1.6696
 4988TIP3   OH214908   5.795   6.299   0.503 -0.1327 -0.2333  0.1570
 4988TIP3    H114909   5.779   6.205   0.494 -2.0914  0.0710  0.1931
 4988TIP3    H214910   5.776   6.317   0.595  1.8795 -0.0751  0.5741
 4989TIP3   OH214911   7.497   5.315   3.278 -0.4277 -0.3659  0.1127
 4989TIP3    H114912   7.467   5.229   3.247 -2.4072 -0.4759  2.2058
 4989TIP3    H214913   7.434   5.377   3.242 -0.9932 -0.1773  1.4015
 4990TIP3   OH214914   7.504   5.423   0.568  0.6073 -0.3600  0.2088
 4990TIP3    H114915   7.456   5.480   0.508  0.9650  1.3735  1.5080
 4990TIP3    H214916   7.440   5.398   0.634  0.7346 -0.5048  0.2782
 4991TIP3   OH214917   0.851   1.346   2.600  0.0217 -0.4497 -0.2251
 4991TIP3    H114918   0.831   1.430   2.558  0.1643  1.0191  2.4739
 4991TIP3    H214919   0.946   1.339   2.593  0.1515  0.2716  0.6550
 4992TIP3   OH214920   0.304   5.402   3.522 -0.1835  0.1674  0.3022
 4992TIP3    H114921   0.259   5.423   3.440  0.3072  0.0625 -0.0009
 4992TIP3    H214922   0.345   5.485   3.549  0.5117 -0.0345 -0.1073
 4993TIP3   OH214923   5.624   4.623   0.548 -0.0143 -0.6825  0.8671
 4993TIP3    H114924   5.681   4.635   0.472  2.0436 -0.3808  2.4183
 4993TIP3    H214925   5.659   4.545   0.592  0.3980  0.5663  2.8352
 4994TIP3   OH214926   1.327   0.057   1.810 -0.1636  0.4654 -0.0629
 4994TIP3    H114927   1.357  -0.008   1.875  1.4249 -0.7307 -1.9207
 4994TIP3    H214928   1.239   0.029   1.787 -0.3881  0.3592  0.8971
 4995TIP3   OH214929   7.909   6.739   3.819  0.0039  0.0300  0.3216
 4995TIP3    H114930   7.860   6.813   3.783 -1.9931 -1.1936  0.4399
 4995TIP3    H214931   7.884   6.737   3.912 -1.7308 -2.1263 -0.1512
 4996TIP3   OH214932   1.312   6.369   1.224  0.4814  0.8177  0.3624
 4996TIP3    H114933   1.396   6.377   1.271  0.1853  0.9139  0.8801
 4996TIP3    H214934   1.310   6.444   1.165  0.2110  1.4965  1.2262
 4997TIP3   OH214935   6.323   6.678   1.453 -0.7100 -0.0936  0.5038
 4997TIP3    H114936   6.262   6.746   1.480 -0.3664 -0.7058  2.9621
 4997TIP3    H214937   6.268   6.599   1.444 -0.7147 -0.0408  0.0747
 4998TIP3   OH214938   5.681   1.944   0.447  0.2396 -0.0367  0.1017
 4998TIP3    H114939   5.768   1.983   0.458  0.3456 -0.6452  1.5257
 4998TIP3    H214940   5.691   1.885   0.373  1.1985 -0.4969  0.5812
 4999TIP3   OH214941   8.466   0.597   1.850  0.5093  0.1236 -0.1741
 4999TIP3    H114942   8.499   0.507   1.858 -0.9614 -0.5855 -1.7806
 4999TIP3    H214943   8.422   0.598   1.765 -0.5703  2.0266  0.4053
 5000TIP3   OH214944   7.649   7.362   3.735 -0.2469  0.1493 -0.4917
 5000TIP3    H114945   7.573   7.323   3.692 -0.4747  2.0999 -1.9349
 5000TIP3    H214946   7.643   7.455   3.713  2.3525  0.3865 -0.2880
 5001TIP3   OH214947   0.853   1.420   1.501 -0.3247  0.0763  0.1342
 5001TIP3    H114948   0.869   1.328   1.520 -0.0127 -0.2533 -1.6406
 5001TIP3    H214949   0.934   1.464   1.524 -0.4778 -0.0727  0.9926
 5002TIP3   OH214950   6.479   3.836   3.603  0.2338 -0.6623  0.0870
 5002TIP3    H114951   6.502   3.743   3.592  1.3307 -0.7942  3.1166
 5002TIP3    H214952   6.389   3.834   3.636  0.0078 -0.5883 -0.5061
 5003TIP3   OH214953   4.665   5.303   1.052 -0.3167  0.0352 -0.0920
 5003TIP3    H114954   4.593   5.362   1.031 -0.7068 -0.6255 -0.6325
 5003TIP3    H214955   4.734   5.360   1.085 -0.9760  0.7065  0.1403
 5004TIP3   OH214956   6.072   6.441   1.694  0.5400  0.3908 -0.3580
 5004TIP3    H114957   5.986   6.482   1.695  0.4515  0.1903  0.2675
 5004TIP3    H214958   6.055   6.351   1.666  0.4706  0.1772  0.3714
 5005TIP3   OH214959   7.840   6.246   0.531  0.2415  0.2033  0.1547
 5005TIP3    H114960   7.875   6.180   0.590 -2.4563 -0.4841  1.0554
 5005TIP3    H214961   7.793   6.196   0.464 -1.7394  1.1664  0.7872
 5006TIP3   OH214962   6.597   5.905   2.092 -0.2566 -0.1009 -0.4896
 5006TIP3    H114963   6.686   5.922   2.062 -0.4652  0.7139 -0.6513
 5006TIP3    H214964   6.585   5.963   2.167 -0.5243 -0.4716 -0.2451
 5007TIP3   OH214965   1.474   5.198   1.134 -0.4035 -0.0589 -0.3188
 5007TIP3    H114966   1.498   5.133   1.200 -0.6880 -0.4605 -0.6103
 5007TIP3    H214967   1.538   5.185   1.064 -0.0830  0.3875 -0.1090
 5008TIP3   OH214968   6.803   5.558   2.697  0.3151  0.0409 -0.1909
 5008TIP3    H114969   6.875   5.496   2.684  0.0427 -0.0261 -1.3769
 5008TIP3    H214970   6.733   5.527   2.639  0.0137  1.2091 -0.4594
 5009TIP3   OH214971   6.150   6.961   2.642  0.9350 -0.5276 -0.5119
 5009TIP3    H114972   6.083   7.001   2.587  0.0609 -1.9978 -0.5444
 5009TIP3    H214973   6.187   7.034   2.692 -2.2477  0.0229  1.1547
 5010TIP3   OH214974   3.780   6.830   3.425 -0.1685 -0.3120  0.4297
 5010TIP3    H114975   3.806   6.914   3.387  0.8208 -1.7852 -2.2215
 5010TIP3    H214976   3.798   6.840   3.519  1.9082  1.6770 -0.1425
 5011TIP3   OH214977   1.390   3.133   2.550  0.0716 -0.1806 -0.4184
 5011TIP3    H114978   1.362   3.151   2.460 -0.4019  1.1304 -0.0203
 5011TIP3    H214979   1.328   3.181   2.604  2.4257  1.9177  0.5182
 5012TIP3   OH214980   4.635   1.702   6.824 -0.2476 -0.1811  0.0356
 5012TIP3    H114981   4.719   1.747   6.831 -0.2946 -0.0277 -0.3522
 5012TIP3    H214982   4.582   1.760   6.768 -0.3148 -0.7006 -0.4443
 5013TIP3   OH214983   6.272   4.761   1.073 -0.3477  0.1160 -0.0249
 5013TIP3    H114984   6.312   4.755   1.160 -1.5630  1.2239  0.6327
 5013TIP3    H214985   6.344   4.747   1.012  0.7998  0.8454  1.1506
 5014TIP3   OH214986   5.350   6.670   2.439  0.0684 -0.2483 -0.8963
 5014TIP3    H114987   5.425   6.626   2.478  0.3468 -0.2761 -1.4569
 5014TIP3    H214988   5.274   6.620   2.469  0.2819 -0.2811 -0.4122
 5015TIP3   OH214989   5.465   7.270   1.265 -0.1590  0.1781  0.0402
 5015TIP3    H114990   5.560   7.281   1.266 -0.2159  1.0489 -2.0532
 5015TIP3    H214991   5.442   7.269   1.173 -2.3328  1.2071  0.5469
 5016TIP3   OH214992   5.265   7.468   2.131 -0.5379 -0.3950 -0.1298
 5016TIP3    H114993   5.334   7.517   2.087  0.4539 -0.0788  1.7224
 5016TIP3    H214994   5.194   7.530   2.142  0.5052  0.5326  1.7158
 5017TIP3   OH214995   1.404   0.730   3.054 -0.1073  0.8262 -0.6204
 5017TIP3    H114996   1.466   0.719   2.983 -0.3668  0.3551 -0.7739
 5017TIP3    H214997   1.326   0.767   3.012 -0.7319 -0.6682 -0.8100
 5018TIP3   OH214998   7.936   7.131   1.868 -0.1601 -0.0417 -0.7749
 5018TIP3    H114999   7.961   7.043   1.897  2.1335  0.9293  0.2694
 5018TIP3    H215000   8.017   7.172   1.839 -0.6112  2.8423  1.7545
 5019TIP3   OH215001   1.636   0.346   2.973 -0.1321  0.3570  0.0040
 5019TIP3    H115002   1.572   0.396   3.024 -0.5626  0.3631 -0.5396
 5019TIP3    H215003   1.684   0.413   2.924 -1.1737  0.1873 -1.2545
 5020TIP3   OH215004   8.296   7.274   2.082 -0.4011 -0.1381 -0.2685
 5020TIP3    H115005   8.268   7.249   1.994 -2.4195  0.4419  0.1895
 5020TIP3    H215006   8.232   7.233   2.140  0.9108 -0.4985  0.9355
 5021TIP3   OH215007   5.758   7.445   2.686 -0.7791  0.6272 -0.3948
 5021TIP3    H115008   5.716   7.436   2.771  0.7204 -0.1699  0.2834
 5021TIP3    H215009   5.744   7.361   2.643  1.8825 -0.4347  0.6857
 5022TIP3   OH215010   5.131   7.276   2.894 -0.1659 -0.1374 -0.3311
 5022TIP3    H115011   5.116   7.315   2.808  2.9344 -0.1348 -0.9251
 5022TIP3    H215012   5.099   7.186   2.885 -0.4626  0.0559 -1.2772
 5023TIP3   OH215013   6.269   7.010   2.988 -0.0814 -0.3193 -0.8240
 5023TIP3    H115014   6.256   7.087   2.933  0.4951 -0.7683 -1.5968
 5023TIP3    H215015   6.187   7.002   3.037 -0.2054  0.6897 -0.8471
 5024TIP3   OH215016   8.247   6.807   3.795 -0.0478  0.2328  0.7268
 5024TIP3    H115017   8.200   6.762   3.865 -1.8045 -0.2350 -0.7230
 5024TIP3    H215018   8.224   6.759   3.716  2.4399  0.3457 -0.1179
 5025TIP3   OH215019   0.875   6.351   2.221  0.5767 -0.2983 -0.2075
 5025TIP3    H115020   0.856   6.348   2.128  0.9302  2.3326 -0.3926
 5025TIP3    H215021   0.800   6.398   2.259  0.3990 -1.4129  0.8548
 5026TIP3   OH215022   8.142   6.438   1.240  0.0886  0.2413  0.2334
 5026TIP3    H115023   8.174   6.525   1.215  0.7281 -0.3459 -1.0831
 5026TIP3    H215024   8.046   6.446   1.238  0.1346  1.3935  1.9256
 5027TIP3   OH215025   7.296   4.730   0.855 -0.1830  0.3989 -0.2206
 5027TIP3    H115026   7.305   4.769   0.942  0.4382 -0.3243  0.0515
 5027TIP3    H215027   7.373   4.672   0.847  0.2109  1.0809 -1.5673
 5028TIP3   OH215028   7.944   7.669   1.448 -0.6892 -0.1606 -0.6262
 5028TIP3    H115029   7.950   7.733   1.519  1.9887 -0.8062 -0.1941
 5028TIP3    H215030   7.960   7.720   1.368  3.3320 -0.4765 -0.1361
 5029TIP3   OH215031   6.767   7.565   3.036  0.4701  0.4949 -0.0370
 5029TIP3    H115032   6.824   7.620   3.091  0.0466  0.2302  0.6781
 5029TIP3    H215033   6.781   7.597   2.947  1.8504  0.3280  0.1195
 5030TIP3   OH215034   6.781   6.334   1.334  0.3752  0.5320  0.2054
 5030TIP3    H115035   6.699   6.369   1.370  0.4566  2.0011 -0.9711
 5030TIP3    H215036   6.771   6.239   1.339 -1.1162  0.7036  0.7180
 5031TIP3   OH215037   7.380   3.008   1.591  0.9104 -0.6292  0.1709
 5031TIP3    H115038   7.296   2.964   1.602 -1.8009  4.7078  2.8568
 5031TIP3    H215039   7.374   3.051   1.505  0.9641 -0.4418  0.2593
 5032TIP3   OH215040   5.081   5.247   1.093 -0.4066 -0.3735  0.3802
 5032TIP3    H115041   5.113   5.271   1.006  1.5449 -1.2834  0.8324
 5032TIP3    H215042   5.001   5.197   1.076 -0.5397  0.2206 -0.8353
 5033TIP3   OH215043   6.622   5.526   2.496 -0.4523 -0.3940  1.0594
 5033TIP3    H115044   6.534   5.492   2.506  0.2833 -2.6063  0.2053
 5033TIP3    H215045   6.659   5.478   2.423  1.6232  0.1639  1.6998
 5034TIP3   OH215046   0.821   0.067   3.503 -0.3221 -1.2653  0.2214
 5034TIP3    H115047   0.745   0.018   3.471 -1.0267  0.0335 -0.0935
 5034TIP3    H215048   0.788   0.117   3.578 -0.0078  0.0682 -0.5250
 5035TIP3   OH215049   8.072   6.075   2.965  0.0453  0.1698  0.2201
 5035TIP3    H115050   8.161   6.043   2.980  0.0052  0.2449  0.6360
 5035TIP3    H215051   8.020   5.996   2.949  0.1621  0.1169  0.1035
 5036TIP3   OH215052   5.813   4.637   1.073  0.0327  0.1526 -0.0622
 5036TIP3    H115053   5.737   4.642   1.130  0.2595 -0.0419  0.2643
 5036TIP3    H215054   5.778   4.628   0.985 -0.3329  1.4313 -0.0586
 5037TIP3   OH215055   6.636   5.772   1.487  0.0402 -0.3390 -0.0411
 5037TIP3    H115056   6.625   5.679   1.505 -2.0364  0.0244  0.7998
 5037TIP3    H215057   6.587   5.787   1.406 -0.0587  0.1109  0.0986
 5038TIP3   OH215058   2.428   1.523   6.760 -0.0771  0.4198 -0.0105
 5038TIP3    H115059   2.446   1.616   6.769 -0.7712  0.3423  2.3881
 5038TIP3    H215060   2.362   1.518   6.690 -0.1036  1.7249 -0.0801
 5039TIP3   OH215061   6.904   5.594   1.880  0.2917  0.2139 -0.6731
 5039TIP3    H115062   6.872   5.510   1.849  0.1843  0.2370 -0.6238
 5039TIP3    H215063   6.984   5.609   1.829  3.3023 -2.4023  2.9779
 5040TIP3   OH215064   7.615   6.881   1.929  0.2990 -0.1001 -0.4595
 5040TIP3    H115065   7.645   6.834   1.851  0.7231  1.6265 -1.3459
 5040TIP3    H215066   7.692   6.887   1.985  0.4411  0.2140 -0.6872
 5041TIP3   OH215067   0.562   4.309   0.698  0.2556 -0.5287  0.4424
 5041TIP3    H115068   0.563   4.399   0.663 -0.4934 -0.3025  0.9876
 5041TIP3    H215069   0.568   4.254   0.620  1.7944 -0.0052  0.1721
 5042TIP3   OH215070   5.914   6.410   3.896 -0.4029  0.0582 -0.2795
 5042TIP3    H115071   5.942   6.334   3.845 -2.0603 -0.1102 -0.9708
 5042TIP3    H215072   5.818   6.409   3.889 -0.5904  0.6628  1.9204
 5043TIP3   OH215073   3.207   1.804   6.421 -0.4486 -0.2037 -0.1881
 5043TIP3    H115074   3.215   1.840   6.510 -2.7608  1.5591 -0.6547
 5043TIP3    H215075   3.279   1.741   6.415  1.3438  1.5440  2.0056
 5044TIP3   OH215076   6.187   5.841   0.752  0.1084 -0.1233 -0.3302
 5044TIP3    H115077   6.117   5.837   0.687 -0.2999  0.9345  0.0324
 5044TIP3    H215078   6.165   5.916   0.807  0.4861 -0.9572  0.9902
 5045TIP3   OH215079   4.921   5.997   2.553  0.6476  0.2694  0.1150
 5045TIP3    H115080   4.939   6.002   2.647  2.9584  0.8358 -0.3043
 5045TIP3    H215081   4.844   6.052   2.540  0.9795  1.0890  1.5162
 5046TIP3   OH215082   6.489   6.951   3.166  0.3829  0.0300 -0.7102
 5046TIP3    H115083   6.408   6.949   3.114  0.9874 -3.4238 -1.6144
 5046TIP3    H215084   6.554   6.988   3.106  0.2115 -0.3193 -1.1209
 5047TIP3   OH215085   7.435   7.313   2.082 -0.1848  0.3096 -0.0305
 5047TIP3    H115086   7.516   7.292   2.035  0.0589  0.3095  0.3920
 5047TIP3    H215087   7.397   7.227   2.101  0.5041  0.2600  1.1535
 5048TIP3   OH215088   0.015   7.067   1.387 -0.6071 -0.5718  0.2266
 5048TIP3    H115089   0.083   7.030   1.444  0.7012  1.8224  0.3263
 5048TIP3    H215090   0.064   7.101   1.312 -2.0086 -1.1596 -0.9639
 5049TIP3   OH215091   5.386   5.222   3.408  0.0095 -0.5059  0.6951
 5049TIP3    H115092   5.449   5.156   3.381  0.2200  0.1936 -0.6016
 5049TIP3    H215093   5.426   5.265   3.483  1.6915  0.7894 -0.9030
 5050TIP3   OH215094   7.667   5.860   1.373 -0.4480  0.8969 -0.1350
 5050TIP3    H115095   7.633   5.781   1.330  0.2998  0.3585  0.2489
 5050TIP3    H215096   7.609   5.874   1.448  0.1536 -0.0128  0.5152
 5051TIP3   OH215097   6.306   1.042   1.454 -0.0364 -0.0798  0.7689
 5051TIP3    H115098   6.328   0.951   1.476 -2.5320 -0.5732  1.4921
 5051TIP3    H215099   6.389   1.083   1.431  0.9130 -3.0921 -1.5346
 5052TIP3   OH215100   6.460   6.717   1.919  0.2535 -0.2629 -0.6139
 5052TIP3    H115101   6.404   6.649   1.882  0.4108 -1.4578  1.3035
 5052TIP3    H215102   6.506   6.674   1.992 -0.4191  2.1578  1.2918
 5053TIP3   OH215103   7.076   6.862   3.104  0.1550  0.0714  0.6029
 5053TIP3    H115104   6.989   6.890   3.132 -0.1661 -0.2165 -0.1155
 5053TIP3    H215105   7.100   6.923   3.034  0.3383 -0.1444  0.4769
 5054TIP3   OH215106   4.663   7.882   2.461  0.0360 -0.1067  0.1345
 5054TIP3    H115107   4.637   7.833   2.539 -0.0022  2.0632  1.5324
 5054TIP3    H215108   4.753   7.853   2.444  1.0037  1.3335  2.5959
 5055TIP3   OH215109   8.324   0.099   1.213  0.2730  0.0292  0.1259
 5055TIP3    H115110   8.382   0.129   1.283 -1.3236  1.2735  0.9391
 5055TIP3    H215111   8.285   0.179   1.178 -0.3473 -0.7309 -0.9362
 5056TIP3   OH215112   4.651   0.030   1.171  0.0120  0.2593  0.2236
 5056TIP3    H115113   4.667   0.124   1.177  2.0992  0.0929 -1.9215
 5056TIP3    H215114   4.609   0.019   1.085  2.5207 -1.0660 -0.8721
 5057TIP3   OH215115   7.180   6.376   1.880  0.1334 -0.4654 -0.5924
 5057TIP3    H115116   7.159   6.284   1.897 -2.4112  0.5275  2.0513
 5057TIP3    H215117   7.097   6.415   1.857  1.1683  1.2501 -1.4924
 5058TIP3   OH215118   7.681   7.745   0.557  0.2167 -0.2269 -0.6507
 5058TIP3    H115119   7.652   7.820   0.505  0.6426  0.9188  0.7218
 5058TIP3    H215120   7.643   7.760   0.643  1.9868 -0.5167  0.2087
 5059TIP3   OH215121   6.800   4.704   1.691  0.1375 -0.2876 -0.3469
 5059TIP3    H115122   6.713   4.687   1.728  0.5253 -0.3152  0.5634
 5059TIP3    H215123   6.831   4.618   1.663 -0.3972 -0.1846 -1.2951
 5060TIP3   OH215124   5.501   5.040   1.101 -0.4855  0.0001  0.2733
 5060TIP3    H115125   5.445   5.116   1.111 -0.4539 -0.1778  2.0169
 5060TIP3    H215126   5.538   5.048   1.013 -0.0801  2.2508  0.6290
 5061TIP3   OH215127   3.670   1.494   6.831 -0.2413 -0.2898 -0.4825
 5061TIP3    H115128   3.632   1.581   6.816  0.7981  0.4949  1.2675
 5061TIP3    H215129   3.698   1.496   6.923  1.2460 -1.9206 -0.8860
 5062TIP3   OH215130   6.094   3.592   1.989  0.0039  0.6861 -0.0646
 5062TIP3    H115131   6.146   3.638   2.055 -0.1962  0.4267  0.2771
 5062TIP3    H215132   6.111   3.499   2.005  1.0007  0.6461 -1.2375
 5063TIP3   OH215133   6.996   5.947   2.510 -0.3455 -0.2178 -0.0701
 5063TIP3    H115134   7.082   5.973   2.545  0.0915  0.0093 -1.2906
 5063TIP3    H215135   6.936   5.960   2.583  0.6842 -0.5210  0.8518
 5064TIP3   OH215136   7.011   5.291   1.552  0.0617 -0.1908 -0.0774
 5064TIP3    H115137   7.005   5.315   1.459  1.1978 -0.6837 -0.2899
 5064TIP3    H215138   7.102   5.309   1.575 -0.1826 -0.2159  0.9036
 5065TIP3   OH215139   7.978   6.180   2.678 -0.1391 -0.5106 -0.3458
 5065TIP3    H115140   8.014   6.210   2.761 -0.6234 -0.0201 -0.3161
 5065TIP3    H215141   8.010   6.090   2.669  0.9791 -0.1286 -0.2478
 5066TIP3   OH215142   0.558   6.660   0.998 -0.0911 -0.4905  0.3602
 5066TIP3    H115143   0.513   6.740   0.972 -0.9526 -0.9156  0.5240
 5066TIP3    H215144   0.541   6.598   0.927  1.1515 -0.3273 -0.1010
 5067TIP3   OH215145   5.924   4.895   2.049  0.3314  0.0676  0.1910
 5067TIP3    H115146   5.940   4.824   2.111 -2.1885  0.4872  1.3548
 5067TIP3    H215147   5.950   4.974   2.096  0.5964  0.1803 -0.1395
 5068TIP3   OH215148   1.526   6.230   3.995  0.1990  0.1520 -0.1832
 5068TIP3    H115149   1.460   6.196   4.056  1.5181  1.3151  1.9642
 5068TIP3    H215150   1.527   6.325   4.011  1.3118  0.3365 -1.2752
 5069TIP3   OH215151   8.334   7.558   1.815 -0.5844  0.1369 -0.1944
 5069TIP3    H115152   8.428   7.547   1.833 -0.8857 -1.3652  0.5196
 5069TIP3    H215153   8.302   7.614   1.885 -0.9133 -2.2627  1.6211
 5070TIP3   OH215154   1.411   7.811   2.753  0.4208  0.1678 -0.1933
 5070TIP3    H115155   1.441   7.724   2.779 -0.4993  0.0976  0.6878
 5070TIP3    H215156   1.453   7.871   2.815 -2.4620 -0.0761  2.1660
 5071TIP3   OH215157   0.272   6.777   1.989 -0.1921 -0.0017  0.2523
 5071TIP3    H115158   0.187   6.811   2.015  0.3900  1.8795 -0.1873
 5071TIP3    H215159   0.269   6.684   2.010 -1.1289  0.6843  3.3909
 5072TIP3   OH215160   7.890   5.504   3.427 -0.3602 -1.0555  0.3326
 5072TIP3    H115161   7.961   5.480   3.486 -1.3608  0.2122  2.0845
 5072TIP3    H215162   7.859   5.420   3.392  0.0228 -1.8590  1.8726
 5073TIP3   OH215163   8.382   7.760   1.337  0.4979 -0.2430  0.0388
 5073TIP3    H115164   8.469   7.719   1.342 -0.0763 -1.4093  0.4697
 5073TIP3    H215165   8.327   7.708   1.395 -0.3005  1.0024  0.4328
 5074TIP3   OH215166   3.775   0.571   0.965  0.1583 -0.4453  0.2023
 5074TIP3    H115167   3.728   0.625   0.901  1.9296 -0.2966 -1.0108
 5074TIP3    H215168   3.760   0.616   1.049  1.1291  1.6460 -0.6986
 5075TIP3   OH215169   8.390   6.311   0.727 -0.4193  0.1952  0.1573
 5075TIP3    H115170   8.478   6.349   0.735 -0.1266 -0.1026 -1.4960
 5075TIP3    H215171   8.347   6.365   0.661 -0.8314 -0.8365 -0.4210
 5076TIP3   OH215172   7.868   5.868   3.011  0.2812 -0.0679  0.4062
 5076TIP3    H115173   7.841   5.780   3.038  1.0637 -0.7864 -1.1054
 5076TIP3    H215174   7.834   5.877   2.922 -0.8806  1.6533  0.9913
 5077TIP3   OH215175   0.231   5.989   4.194 -0.4898 -0.1944 -0.6722
 5077TIP3    H115176   0.256   6.020   4.281  0.3170 -1.7109 -0.3470
 5077TIP3    H215177   0.254   5.896   4.194  2.1431  0.3467 -3.4491
 5078TIP3   OH215178   1.154   6.824   2.406 -0.4600 -0.2956  0.1680
 5078TIP3    H115179   1.064   6.836   2.437 -1.2824 -1.1189 -1.8569
 5078TIP3    H215180   1.167   6.730   2.402  0.7746 -0.1868  1.1962
 5079TIP3   OH215181   0.900   7.579   4.371  0.4507 -0.4750  0.1376
 5079TIP3    H115182   0.825   7.634   4.347  0.9432 -0.2787 -0.9922
 5079TIP3    H215183   0.969   7.641   4.392  0.2590 -0.6565  1.3510
 5080TIP3   OH215184   8.427   6.016   2.751  0.1073  0.2837 -0.1301
 5080TIP3    H115185   8.454   6.042   2.663 -0.1311  1.2950  0.0931
 5080TIP3    H215186   8.384   5.931   2.739  2.7735 -1.0876 -0.5999
 5081TIP3   OH215187   1.019   5.012   4.741 -0.5073  0.7361 -0.0832
 5081TIP3    H115188   1.038   5.008   4.647 -0.8929 -2.2138 -0.1048
 5081TIP3    H215189   0.939   4.961   4.751 -0.5437  1.1360  1.8357
 5082TIP3   OH215190   1.356   0.433   2.893 -0.7028 -0.3705 -0.0935
 5082TIP3    H115191   1.361   0.499   2.824  2.5766  0.6603  1.0314
 5082TIP3    H215192   1.389   0.353   2.853 -0.7195 -0.2753 -0.2959
 5083TIP3   OH215193   1.208   7.359   1.149 -0.2213 -0.4148 -0.0155
 5083TIP3    H115194   1.127   7.314   1.173 -2.3523  2.5578 -1.3262
 5083TIP3    H215195   1.262   7.290   1.109 -2.6061 -2.1907 -0.3180
 5084TIP3   OH215196   0.432   6.592   3.034  0.4205 -0.1819  0.3075
 5084TIP3    H115197   0.375   6.554   2.967 -0.5232  0.3460  0.8090
 5084TIP3    H215198   0.375   6.650   3.084  1.0236 -0.8651  1.8191
 5085TIP3   OH215199   2.353   1.198   1.996  0.5122 -0.5651  0.1275
 5085TIP3    H115200   2.317   1.238   2.075  1.4032  0.9313 -0.1982
 5085TIP3    H215201   2.281   1.146   1.961  0.2549 -1.6441  2.1634
 5086TIP3   OH215202   3.776   1.257   4.208 -0.2126  0.9429 -0.0591
 5086TIP3    H115203   3.766   1.237   4.115  1.3331 -0.9580  0.1409
 5086TIP3    H215204   3.690   1.241   4.246 -1.0293  2.3719 -1.2567
 5087TIP3   OH215205   8.417   6.826   4.040  0.0775 -0.4630  0.2138
 5087TIP3    H115206   8.383   6.838   3.952 -2.5397  1.6254  1.4585
 5087TIP3    H215207   8.351   6.774   4.085  0.2820  0.4980  1.6347
 5088TIP3   OH215208   8.317   5.792   0.936  0.1586  0.5764 -0.1600
 5088TIP3    H115209   8.408   5.764   0.949  0.0584  0.7179  0.8223
 5088TIP3    H215210   8.292   5.835   1.017 -0.7942  0.5463 -0.4248
 5089TIP3   OH215211   6.558   6.909   4.230 -0.2056  0.4052 -0.4814
 5089TIP3    H115212   6.609   6.943   4.156 -0.6512  1.8455 -0.1462
 5089TIP3    H215213   6.471   6.893   4.195 -0.0483 -0.2233 -0.5922
 5090TIP3   OH215214   0.142   4.804   3.365 -0.1118 -0.0576 -0.0323
 5090TIP3    H115215   0.073   4.758   3.413 -0.2920 -0.9017 -1.0692
 5090TIP3    H215216   0.220   4.791   3.418 -0.8528  1.3981  1.4441
 5091TIP3   OH215217   0.238   6.726   3.147  0.7203 -0.1238 -0.5238
 5091TIP3    H115218   0.179   6.659   3.182  0.5671 -0.9013 -2.1963
 5091TIP3    H215219   0.206   6.809   3.183  0.9063 -0.9257  1.5609
 5092TIP3   OH215220   0.155   6.959   3.305  0.0099  0.0680  0.2369
 5092TIP3    H115221   0.151   7.046   3.266 -0.0530  0.6173  1.4278
 5092TIP3    H215222   0.216   6.969   3.379  1.4086 -1.3375 -0.7016
 5093TIP3   OH215223   0.487   6.248   1.437 -0.5056  0.3378 -0.3276
 5093TIP3    H115224   0.410   6.195   1.418  1.3332 -2.0967 -1.3204
 5093TIP3    H215225   0.481   6.265   1.531  0.4767 -4.5089  0.7368
 5094TIP3   OH215226   5.357   7.330   3.924 -0.5931 -0.0908 -0.5256
 5094TIP3    H115227   5.347   7.235   3.916  1.4271 -0.3561 -0.1201
 5094TIP3    H215228   5.332   7.349   4.015  2.7264 -0.7993  0.6045
 5095TIP3   OH215229   0.286   6.840   1.707 -0.0150  0.1702  0.6554
 5095TIP3    H115230   0.299   6.759   1.658 -2.0893 -0.4172  0.9902
 5095TIP3    H215231   0.280   6.812   1.799 -0.8660  0.6618  0.7617
 5096TIP3   OH215232   5.405   0.139   0.791 -0.1824  0.0891  0.0905
 5096TIP3    H115233   5.487   0.097   0.765 -0.7906 -1.4368  0.5766
 5096TIP3    H215234   5.404   0.133   0.886 -0.7761  0.2810  0.1009
 5097TIP3   OH215235   7.757   6.479   3.761 -0.2553  0.3451  0.5164
 5097TIP3    H115236   7.666   6.493   3.786 -1.2331 -0.1028 -2.6066
 5097TIP3    H215237   7.808   6.525   3.828 -2.7105 -0.5441  3.0448
 5098TIP3   OH215238   7.815   6.795   2.133 -0.6442 -0.1662  0.2299
 5098TIP3    H115239   7.761   6.720   2.106 -0.3143 -0.3004 -0.0606
 5098TIP3    H215240   7.887   6.755   2.182  1.6506 -0.3892 -3.2127
 5099TIP3   OH215241   7.992   6.340   3.378 -0.8834 -0.6722  0.1730
 5099TIP3    H115242   8.076   6.385   3.381 -2.7669  3.2962 -1.6874
 5099TIP3    H215243   7.999   6.281   3.303 -0.8131  2.1035 -2.0899
 5100TIP3   OH215244   1.534   7.417   1.723 -0.2978 -0.1758 -0.2574
 5100TIP3    H115245   1.505   7.373   1.802  0.8371 -1.4063 -0.5041
 5100TIP3    H215246   1.626   7.436   1.738  0.2257 -1.4344 -1.6988
 5101TIP3   OH215247   3.140   7.157   1.993 -0.7639  0.7756  0.0433
 5101TIP3    H115248   3.234   7.177   2.000 -1.0750  2.4898 -0.5309
 5101TIP3    H215249   3.097   7.221   2.049 -1.7658  1.6493 -1.6558
 5102TIP3   OH215250   3.072   0.781   3.044 -0.1026  0.2866  0.5223
 5102TIP3    H115251   3.155   0.745   3.013 -0.7008 -0.7226  0.0718
 5102TIP3    H215252   3.053   0.852   2.983 -0.2927 -0.4260 -0.2578
 5103TIP3   OH215253   3.338   6.391   1.772  0.1334 -0.2366  0.1967
 5103TIP3    H115254   3.401   6.319   1.777 -1.9823 -2.0797  1.2999
 5103TIP3    H215255   3.254   6.348   1.753 -0.7917  2.1707 -1.3986
 5104TIP3   OH215256   1.151   7.566   2.633 -0.5621  0.6210 -0.4647
 5104TIP3    H115257   1.188   7.645   2.670  0.9040  0.3423 -1.2965
 5104TIP3    H215258   1.187   7.562   2.544  0.2694 -1.5407 -0.0699
 5105TIP3   OH215259   2.302   0.089   2.593 -0.2666  0.2448  0.4430
 5105TIP3    H115260   2.343   0.008   2.560 -0.8688 -0.0595  0.4378
 5105TIP3    H215261   2.290   0.143   2.515 -3.7696 -1.3827 -0.2429
 5106TIP3   OH215262   2.653   0.093   1.657  0.1362 -0.1992  0.7367
 5106TIP3    H115263   2.662   0.096   1.561 -1.3549 -1.0753  0.5572
 5106TIP3    H215264   2.701   0.014   1.682  0.5404  0.0384  0.7169
 5107TIP3   OH215265   0.369   7.039   2.141  0.0273 -0.3045  1.0585
 5107TIP3    H115266   0.332   6.996   2.064  1.0552  0.0819  0.3222
 5107TIP3    H215267   0.333   6.992   2.215  0.1030 -1.5710  0.2991
 5108TIP3   OH215268   3.206   7.089   2.337 -0.5832  0.2349 -0.2589
 5108TIP3    H115269   3.128   7.135   2.305  0.4182  1.5913 -0.7805
 5108TIP3    H215270   3.268   7.159   2.357  0.3455 -0.8198  0.5899
 5109TIP3   OH215271   1.965   7.083   0.741  0.0287  0.3318 -0.0516
 5109TIP3    H115272   1.994   7.172   0.762  0.2975  0.4008 -0.7147
 5109TIP3    H215273   2.009   7.062   0.659 -0.5160 -0.1808 -0.2181
 5110TIP3   OH215274   0.210   6.857   2.358  0.4222  0.9019  0.3997
 5110TIP3    H115275   0.256   6.773   2.356  0.5726  1.0155 -1.5843
 5110TIP3    H215276   0.117   6.834   2.361  0.4796  0.6817  0.4906
 5111TIP3   OH215277   1.551   6.460   1.370  0.3588 -0.2890 -0.0362
 5111TIP3    H115278   1.639   6.436   1.339  0.5962  3.5439 -2.5951
 5111TIP3    H215279   1.566   6.499   1.456  0.8836 -1.5322  0.4537
 5112TIP3   OH215280   7.856   6.603   4.420  0.1752  0.3128 -0.2847
 5112TIP3    H115281   7.792   6.624   4.488 -0.4541 -1.9560 -0.1475
 5112TIP3    H215282   7.891   6.518   4.445  1.4339  0.3829 -1.7233
 5113TIP3   OH215283   8.275   7.825   2.930 -0.2721  0.0535  0.0859
 5113TIP3    H115284   8.216   7.893   2.962  0.8595  0.2343  1.8478
 5113TIP3    H215285   8.348   7.826   2.991  1.4677 -0.3098 -1.9440
 5114TIP3   OH215286   3.851   6.814   1.938  0.3823 -0.8950 -0.1836
 5114TIP3    H115287   3.809   6.837   1.855  0.6822  0.9351  0.1464
 5114TIP3    H215288   3.781   6.775   1.990 -0.7202  1.2558  0.0068
 5115TIP3   OH215289   1.553   6.629   3.262  0.6048  0.2195  0.6828
 5115TIP3    H115290   1.637   6.584   3.269 -0.3832 -1.9546 -0.8744
 5115TIP3    H215291   1.549   6.658   3.170 -1.2562 -1.6249  0.1424
 5116TIP3   OH215292   0.132   7.691   1.301 -0.2692 -0.4204 -0.2588
 5116TIP3    H115293   0.156   7.782   1.285 -0.5467 -0.4328 -0.7562
 5116TIP3    H215294   0.189   7.640   1.243  0.4035 -0.6089  0.5586
 5117TIP3   OH215295   1.114   0.560   1.235  0.2102  0.3353  0.0524
 5117TIP3    H115296   1.055   0.604   1.174  1.8003  1.0386 -1.0294
 5117TIP3    H215297   1.069   0.479   1.258 -2.2212  1.9097  1.1053
 5118TIP3   OH215298   2.188   6.397   1.509  0.2341 -0.4676 -0.1455
 5118TIP3    H115299   2.267   6.345   1.525  0.0499 -0.3168  1.2706
 5118TIP3    H215300   2.122   6.358   1.565 -0.5873 -0.3032 -0.9926
 5119TIP3   OH215301   2.601   5.975   1.449  0.1714 -0.5389  0.1071
 5119TIP3    H115302   2.686   6.018   1.448 -0.2981  0.4221  0.9823
 5119TIP3    H215303   2.615   5.894   1.399  0.6499  1.3989 -3.0690
 5120TIP3   OH215304   0.710   7.542   2.707 -0.2418 -0.0416 -0.0507
 5120TIP3    H115305   0.751   7.472   2.759  1.2738  1.9562  1.5371
 5120TIP3    H215306   0.632   7.565   2.757  0.4844  0.9480  0.6375
 5121TIP3   OH215307   2.439   6.218   0.525 -0.1195  0.0299 -0.5776
 5121TIP3    H115308   2.425   6.255   0.612  3.3250  0.5606 -0.1973
 5121TIP3    H215309   2.428   6.292   0.465 -1.0718 -0.0472 -0.5198
 5122TIP3   OH215310   0.633   7.185   1.242 -0.2559  0.0211  0.4655
 5122TIP3    H115311   0.603   7.139   1.320 -2.7307 -1.5985 -1.3636
 5122TIP3    H215312   0.668   7.117   1.185  0.8303  1.0679 -0.1528
 5123TIP3   OH215313   4.107   2.055   2.648 -0.0289  0.6988  0.5598
 5123TIP3    H115314   4.165   1.986   2.615 -0.6610  0.0192  0.8425
 5123TIP3    H215315   4.103   2.040   2.742 -0.4418  0.9046  0.5777
 5124TIP3   OH215316   3.181   7.722   2.967  0.0080 -0.2096 -0.0840
 5124TIP3    H115317   3.223   7.773   3.035 -0.6223  0.3047 -0.0832
 5124TIP3    H215318   3.254   7.679   2.921  0.6440  1.7517 -0.9523
 5125TIP3   OH215319   0.932   7.602   1.925  0.0219 -0.7069 -0.5197
 5125TIP3    H115320   1.004   7.651   1.885  0.3875 -2.1173 -1.6187
 5125TIP3    H215321   0.958   7.510   1.919  0.0343 -0.9769  2.8973
 5126TIP3   OH215322   1.196   5.981   1.723  0.8121  0.2174  0.2488
 5126TIP3    H115323   1.184   6.053   1.661  0.2012  0.1807  0.3205
 5126TIP3    H215324   1.277   5.938   1.695 -0.5401 -1.0778 -1.8243
 5127TIP3   OH215325   1.159   6.484   2.254 -0.3286 -0.1631  0.2163
 5127TIP3    H115326   1.074   6.444   2.236 -0.9271  0.4733  1.6223
 5127TIP3    H215327   1.189   6.441   2.334  0.0028  0.6825  0.5442
 5128TIP3   OH215328   3.546   7.448   1.330 -0.5412  0.2327 -0.1764
 5128TIP3    H115329   3.543   7.406   1.416 -0.8779 -0.3687 -0.4797
 5128TIP3    H215330   3.495   7.391   1.274  0.1747  0.3113 -0.9184
 5129TIP3   OH215331   1.767   5.727   3.454 -0.2974 -0.1114 -0.1269
 5129TIP3    H115332   1.744   5.705   3.364  0.5778  1.2954 -0.6953
 5129TIP3    H215333   1.858   5.697   3.464  0.3003  1.5888 -0.3555
 5130TIP3   OH215334   0.024   6.647   1.488 -0.0015 -0.3052  0.0474
 5130TIP3    H115335   0.000   6.692   1.407  2.0670  0.8949  0.0733
 5130TIP3    H215336  -0.024   6.693   1.557 -1.4026 -1.0354 -0.4241
 5131TIP3   OH215337   5.381   1.658   6.738  0.3999 -0.3543 -0.3555
 5131TIP3    H115338   5.414   1.748   6.737  0.7503 -0.4897 -1.1679
 5131TIP3    H215339   5.458   1.604   6.718 -0.4021 -0.6414 -2.7853
 5132TIP3   OH215340   2.565   7.417   3.623  0.3737 -0.3996  0.0017
 5132TIP3    H115341   2.554   7.369   3.541  1.9630 -0.7251 -0.0352
 5132TIP3    H215342   2.613   7.357   3.680  1.0892  0.6038  0.4706
 5133TIP3   OH215343   0.597   6.460   2.713  0.1698  0.0003  0.0253
 5133TIP3    H115344   0.626   6.375   2.746  0.4683 -0.0793 -0.4450
 5133TIP3    H215345   0.676   6.513   2.709 -0.1543  0.5969  1.1827
 5134TIP3   OH215346   2.055   0.696   2.354 -0.3660 -0.0951 -0.4120
 5134TIP3    H115347   1.963   0.723   2.352 -0.8812 -1.7111  0.1484
 5134TIP3    H215348   2.104   0.778   2.359 -1.8913  0.7204  2.1972
 5135TIP3   OH215349   2.240   6.778   1.738 -0.4099 -0.4016 -0.4307
 5135TIP3    H115350   2.183   6.731   1.677 -1.1660 -0.2405  0.1450
 5135TIP3    H215351   2.313   6.809   1.684 -1.2358  0.0220 -1.3099
 5136TIP3   OH215352   6.232   3.181   5.015 -0.3165  0.7782  0.0514
 5136TIP3    H115353   6.170   3.123   5.059 -0.5874  1.1373  0.1529
 5136TIP3    H215354   6.307   3.186   5.075 -1.3206  2.4816  1.2307
 5137TIP3   OH215355   8.210   7.079   0.184  0.1095  0.4192  0.2536
 5137TIP3    H115356   8.118   7.056   0.199  0.2802 -0.6891 -0.3594
 5137TIP3    H215357   8.246   7.004   0.137  0.9548  1.5121 -0.8642
 5138TIP3   OH215358   7.013   7.806   1.934 -0.1485  0.0499  0.5945
 5138TIP3    H115359   7.004   7.712   1.924  2.7815 -0.0426 -1.9377
 5138TIP3    H215360   6.971   7.826   2.018 -1.5898 -3.3364  0.7413
 5139TIP3   OH215361   1.418   5.654   0.936 -0.0971  0.0906  0.6081
 5139TIP3    H115362   1.395   5.737   0.978  1.4672  0.9114 -0.1226
 5139TIP3    H215363   1.473   5.609   1.000  2.8822  1.6505 -0.7475
 5140TIP3   OH215364   8.063   7.409   3.869 -0.2535 -0.0272 -0.1717
 5140TIP3    H115365   8.083   7.488   3.919 -0.3896  0.4834 -0.9173
 5140TIP3    H215366   8.148   7.383   3.831  0.2050 -1.4270  1.7524
 5141TIP3   OH215367   8.241   6.124   3.525 -0.0602  0.0867  0.0769
 5141TIP3    H115368   8.210   6.155   3.610  1.8248  1.9631  0.1189
 5141TIP3    H215369   8.263   6.032   3.540 -0.9553  0.0525  1.2765
 5142TIP3   OH215370   0.338   7.121   3.730  0.5780 -0.2593  0.5567
 5142TIP3    H115371   0.381   7.202   3.759  1.4849  0.5362 -2.8361
 5142TIP3    H215372   0.245   7.143   3.726  0.9500  1.1130 -1.6864
 5143TIP3   OH215373   1.104   7.078   0.784  0.0092  0.7574  0.2269
 5143TIP3    H115374   1.093   7.072   0.689  1.0509  1.3220  0.0622
 5143TIP3    H215375   1.018   7.104   0.817 -0.4408  0.2575 -0.5259
 5144TIP3   OH215376   2.701   1.383   0.441 -0.3506 -0.4772  0.0026
 5144TIP3    H115377   2.730   1.462   0.486  0.3582 -0.2088 -0.9313
 5144TIP3    H215378   2.620   1.359   0.486 -1.6640  1.9139 -1.0023
 5145TIP3   OH215379   0.247   6.112   1.369 -0.3114 -0.6107 -0.6399
 5145TIP3    H115380   0.193   6.166   1.313  0.4339 -0.5751 -1.3435
 5145TIP3    H215381   0.203   6.111   1.454  1.2592  3.6740  0.3360
 5146TIP3   OH215382   2.057   6.944   2.495  0.5140 -0.0842 -0.0082
 5146TIP3    H115383   1.974   6.897   2.496  0.2115  0.4118 -1.6449
 5146TIP3    H215384   2.103   6.910   2.419  1.1191  0.8542 -0.0680
 5147TIP3   OH215385   1.956   0.735   3.822  0.4311 -0.2783 -0.0129
 5147TIP3    H115386   1.974   0.786   3.742  1.4250  0.8915  0.9212
 5147TIP3    H215387   2.039   0.739   3.870  0.4344 -2.6003  0.2020
 5148TIP3   OH215388   4.634   0.287   1.175  0.6495 -0.3791  0.2196
 5148TIP3    H115389   4.677   0.301   1.091  0.5113 -0.6464  0.1052
 5148TIP3    H215390   4.648   0.369   1.223  1.3473 -0.4816  0.2088
 5149TIP3   OH215391   0.891   7.950   2.571 -0.0161 -0.1399  0.4703
 5149TIP3    H115392   0.816   7.908   2.529 -0.2904 -0.0979  0.9159
 5149TIP3    H215393   0.907   7.897   2.649 -0.1148  0.3495  0.8266
 5150TIP3   OH215394   4.189   0.243   1.736  0.0386 -0.3632 -0.2296
 5150TIP3    H115395   4.176   0.220   1.644  0.6380  1.3671 -0.7756
 5150TIP3    H215396   4.118   0.304   1.756 -0.3322 -1.0686  0.5661
 5151TIP3   OH215397   6.369   6.037   2.691 -0.0988 -0.0626  0.0285
 5151TIP3    H115398   6.446   6.033   2.635 -0.8591 -2.3133 -0.8934
 5151TIP3    H215399   6.404   6.031   2.780  0.8741  0.3153 -0.3199
 5152TIP3   OH215400   2.379   4.635   1.997 -0.1125 -0.0116 -0.3078
 5152TIP3    H115401   2.387   4.697   1.925 -1.1618  0.0255 -0.4062
 5152TIP3    H215402   2.390   4.549   1.955 -1.5861 -0.0378 -0.6744
 5153TIP3   OH215403   3.050   0.096   3.005 -0.0761 -0.3428 -0.2688
 5153TIP3    H115404   2.955   0.103   2.997  0.1856  0.9774 -2.5933
 5153TIP3    H215405   3.077   0.046   2.928  1.0648 -1.3163  0.7449
 5154TIP3   OH215406   1.578   0.680   2.844  0.6215 -0.5247  0.0348
 5154TIP3    H115407   1.565   0.730   2.763  0.5320 -0.4630  0.0870
 5154TIP3    H215408   1.637   0.609   2.819  1.4731  0.1279  0.1757
 5155TIP3   OH215409   1.579   7.843   1.886  0.5861 -0.1852  0.3247
 5155TIP3    H115410   1.618   7.929   1.869  0.8101 -0.0718  1.3868
 5155TIP3    H215411   1.514   7.860   1.955 -1.2602 -0.3950 -1.3062
 5156TIP3   OH215412   3.704   0.788   0.435  0.7923  0.3677 -0.1709
 5156TIP3    H115413   3.644   0.851   0.475  1.3592  0.2635  0.8576
 5156TIP3    H215414   3.660   0.760   0.355 -0.3777  0.5463  0.4075
 5157TIP3   OH215415   7.829   7.616   2.306  0.3360 -0.5758  0.0759
 5157TIP3    H115416   7.765   7.567   2.255  0.3346 -0.3326 -0.1616
 5157TIP3    H215417   7.803   7.602   2.397 -0.1259 -0.3864 -0.0228
 5158TIP3   OH215418   8.081   7.789   2.251 -0.4046  0.8819  0.4360
 5158TIP3    H115419   8.003   7.734   2.245  0.6395 -0.7214  0.9786
 5158TIP3    H215420   8.088   7.810   2.344 -0.3635  1.2944  0.3406
 5159TIP3   OH215421   5.816   0.521   0.526 -0.1274  0.3782 -0.1148
 5159TIP3    H115422   5.827   0.436   0.484 -1.7487 -0.3319  0.8581
 5159TIP3    H215423   5.868   0.516   0.606 -0.6928  0.0901  0.2348
 5160TIP3   OH215424   8.291   5.920   1.229 -0.1713 -0.4784 -0.0051
 5160TIP3    H115425   8.263   6.009   1.209  1.9053  0.3715  0.7619
 5160TIP3    H215426   8.381   5.929   1.258 -1.2897 -2.2516  4.5084
 5161TIP3   OH215427   0.411   6.894   3.937  0.1371  0.5913 -0.3507
 5161TIP3    H115428   0.368   6.968   3.893 -2.4471  0.5485  1.9599
 5161TIP3    H215429   0.353   6.820   3.921  2.1855 -0.7436 -1.7635
 5162TIP3   OH215430   1.576   6.852   1.941  0.5502  0.5205 -0.0604
 5162TIP3    H115431   1.587   6.926   2.001 -1.7675 -0.6155  1.8299
 5162TIP3    H215432   1.639   6.787   1.972 -0.5238  0.0008  1.0811
 5163TIP3   OH215433   0.467   6.401   1.652 -0.1971  0.1179  1.0560
 5163TIP3    H115434   0.504   6.433   1.734  1.9986 -0.9887  0.5347
 5163TIP3    H215435   0.434   6.480   1.608 -0.4508  0.8455  2.5231
 5164TIP3   OH215436   3.674   0.261   3.733 -0.5927 -0.2551  0.7227
 5164TIP3    H115437   3.598   0.298   3.688 -1.2060  0.2784  2.1634
 5164TIP3    H215438   3.738   0.332   3.735 -0.4558 -0.3694  0.4495
 5165TIP3   OH215439   7.589   7.244   1.514 -0.3335 -0.0487 -0.3269
 5165TIP3    H115440   7.659   7.304   1.491  0.3874 -0.2653  1.2288
 5165TIP3    H215441   7.513   7.301   1.530  0.1382  0.3897  0.3678
 5166TIP3   OH215442   0.552   3.201   6.943  0.2040 -0.0940  0.9323
 5166TIP3    H115443   0.547   3.249   6.860  1.5282  0.6041  1.2431
 5166TIP3    H215444   0.603   3.257   7.001  2.0065 -1.9721  1.2240
 5167TIP3   OH215445   1.212   6.401   1.961 -0.0508 -0.2532 -0.1420
 5167TIP3    H115446   1.164   6.415   2.042 -0.5148  0.3542 -0.5277
 5167TIP3    H215447   1.275   6.473   1.957  0.5313 -0.7445  0.0908
 5168TIP3   OH215448   7.984   6.326   2.967 -0.5419 -0.4192 -0.1705
 5168TIP3    H115449   8.047   6.367   2.908 -1.9737 -0.1744 -1.5508
 5168TIP3    H215450   8.008   6.234   2.967 -0.1553 -0.3218 -0.6696
 5169TIP3   OH215451   4.288   1.498   1.510 -0.3276 -0.3140  0.4315
 5169TIP3    H115452   4.234   1.488   1.589 -1.1001 -0.9630 -0.1687
 5169TIP3    H215453   4.234   1.462   1.440  0.4038  0.1619 -0.3775
 5170TIP3   OH215454   8.080   6.878   3.001  0.4287 -0.6228 -0.7455
 5170TIP3    H115455   8.012   6.932   3.041  2.8230  0.5627  1.8303
 5170TIP3    H215456   8.065   6.791   3.036  0.3376 -0.3348 -0.0626
 5171TIP3   OH215457   0.816   6.019   0.629 -0.2552  0.1564  0.0441
 5171TIP3    H115458   0.771   6.102   0.647  0.7901  1.1658 -1.8179
 5171TIP3    H215459   0.909   6.043   0.623  0.0239 -1.0963 -0.8003
 5172TIP3   OH215460   0.664   6.790   3.953 -0.5366  0.3145 -0.1808
 5172TIP3    H115461   0.717   6.869   3.965 -0.5588  0.4865 -1.1657
 5172TIP3    H215462   0.577   6.823   3.930 -1.4934  0.0719  2.8240
 5173TIP3   OH215463   3.861   0.872   3.438 -0.3442 -0.6092  0.0084
 5173TIP3    H115464   3.781   0.917   3.466  0.1097  0.5260 -0.4789
 5173TIP3    H215465   3.887   0.918   3.358  2.1093  0.6075  1.4311
 5174TIP3   OH215466   7.615   2.480   4.791  0.0800  0.3443 -0.7955
 5174TIP3    H115467   7.611   2.424   4.714  1.8234  0.9797 -1.3645
 5174TIP3    H215468   7.692   2.535   4.777  0.9803 -0.1644  1.8136
 5175TIP3   OH215469   1.165   6.911   1.574  0.2248 -0.0541  0.3021
 5175TIP3    H115470   1.205   6.970   1.637  1.3705 -1.6281  1.0865
 5175TIP3    H215471   1.237   6.853   1.546 -0.5772 -0.2722 -1.3949
 5176TIP3   OH215472   2.538   7.068   2.820  0.0283 -0.2883 -0.1602
 5176TIP3    H115473   2.633   7.058   2.816 -0.0329 -0.5317 -1.0456
 5176TIP3    H215474   2.518   7.132   2.752 -0.3717  0.2835  0.4923
 5177TIP3   OH215475   3.009   2.419   3.765  0.7796 -0.1486  0.4466
 5177TIP3    H115476   2.937   2.439   3.705  0.9567  0.0532  0.3024
 5177TIP3    H215477   2.989   2.331   3.798  0.5793 -0.1787  0.2440
 5178TIP3   OH215478   0.859   6.963   2.495 -0.1007  0.5704  0.1965
 5178TIP3    H115479   0.827   6.928   2.578 -1.1425  0.8091 -0.0981
 5178TIP3    H215480   0.798   6.930   2.429  2.3866 -2.0074 -0.8828
 5179TIP3   OH215481   1.388   6.040   0.758  0.3661 -0.1212 -0.6482
 5179TIP3    H115482   1.365   6.084   0.840  1.2403  2.2249 -1.6073
 5179TIP3    H215483   1.319   5.974   0.746  0.8568 -1.2460  2.4975
 5180TIP3   OH215484   2.503   6.671   2.804  0.0078 -0.0898 -0.6994
 5180TIP3    H115485   2.579   6.678   2.746  0.3908  1.0631 -0.0775
 5180TIP3    H215486   2.531   6.713   2.885 -0.6723 -1.3083  0.1739
 5181TIP3   OH215487   6.988   2.834   6.210  0.8026  0.6660 -0.7208
 5181TIP3    H115488   7.071   2.822   6.165  0.2806 -0.5923 -1.3656
 5181TIP3    H215489   7.005   2.903   6.275  2.2857  0.5276 -0.9646
 5182TIP3   OH215490   2.917   4.059   3.285 -0.7790  0.3195  0.5331
 5182TIP3    H115491   2.893   4.120   3.215 -1.4629 -0.4914  0.0634
 5182TIP3    H215492   2.886   3.974   3.255  0.9903 -0.4187  0.7862
 5183TIP3   OH215493   8.193   0.028   6.966 -0.0737 -0.2810  0.2975
 5183TIP3    H115494   8.108   0.007   6.928 -0.1628  1.4710 -0.5179
 5183TIP3    H215495   8.253   0.032   6.891  0.6371 -1.0302  0.8120
 5184TIP3   OH215496   2.506   6.827   1.641 -0.2680  0.2915  0.1879
 5184TIP3    H115497   2.498   6.854   1.550 -0.0750  0.0904  0.1127
 5184TIP3    H215498   2.579   6.766   1.642 -0.3739  0.1697  0.4500
 5185TIP3   OH215499   0.843   7.040   0.167  0.0109 -0.0005 -0.0513
 5185TIP3    H115500   0.909   7.100   0.200 -0.4357  0.3819  0.1568
 5185TIP3    H215501   0.760   7.072   0.204 -0.2552 -0.6260 -0.0930
 5186TIP3   OH215502   1.375   5.858   1.106  0.0238  0.4714  0.3547
 5186TIP3    H115503   1.328   5.941   1.114  1.0027  1.0887 -0.1628
 5186TIP3    H215504   1.325   5.796   1.159 -1.0712  1.2388  0.2263
 5187TIP3   OH215505   0.636   7.404   0.172 -0.0221  0.2192 -0.4543
 5187TIP3    H115506   0.619   7.317   0.207  0.3202 -0.2056 -1.3401
 5187TIP3    H215507   0.636   7.461   0.249  3.7071 -1.1328  0.6761
 5188TIP3   OH215508   8.278   6.689   2.728  0.1169  0.5484 -0.1882
 5188TIP3    H115509   8.371   6.687   2.705  0.8350  0.5293  2.5079
 5188TIP3    H215510   8.273   6.750   2.802 -1.9099  0.0232  0.1359
 5189TIP3   OH215511   1.957   6.269   0.486 -0.0067 -0.6090  0.2196
 5189TIP3    H115512   1.908   6.191   0.513 -0.9624  0.9726  3.2643
 5189TIP3    H215513   2.044   6.256   0.524  0.6850 -1.4247 -1.5859
 5190TIP3   OH215514   6.803   4.815   2.696  0.3294 -1.2848  0.1378
 5190TIP3    H115515   6.826   4.892   2.644 -2.1273 -0.4070  0.2669
 5190TIP3    H215516   6.880   4.758   2.690  0.9188 -0.2967 -2.7135
 5191TIP3   OH215517   2.619   1.023   4.046 -0.1332  0.1219 -0.6050
 5191TIP3    H115518   2.540   0.989   4.004  0.0428  1.7127 -2.2668
 5191TIP3    H215519   2.590   1.046   4.134 -0.6818 -2.5679 -0.0336
 5192TIP3   OH215520   7.560   6.228   2.514  0.6289 -0.0089 -0.1592
 5192TIP3    H115521   7.596   6.294   2.572  0.5257  0.2570 -0.3958
 5192TIP3    H215522   7.466   6.232   2.528  0.3603  1.8211 -2.1735
 5193TIP3   OH215523   0.693   7.069   3.993  0.3637  0.0327  0.1860
 5193TIP3    H115524   0.783   7.098   3.975  0.4934 -0.3910  0.1487
 5193TIP3    H215525   0.659   7.133   4.056  0.1476  1.1306 -1.0274
 5194TIP3   OH215526   7.109   5.979   2.827 -0.8941 -0.2480 -0.0302
 5194TIP3    H115527   7.200   5.973   2.797 -0.7840 -0.6692  0.3885
 5194TIP3    H215528   7.094   5.898   2.876 -0.9477  0.6201  1.4077
 5195TIP3   OH215529   8.376   7.762   2.014  0.1363 -0.5357 -0.1062
 5195TIP3    H115530   8.347   7.835   2.070 -1.3936 -1.5807  0.5151
 5195TIP3    H215531   8.471   7.770   2.010  0.0490  0.9684  0.6884
 5196TIP3   OH215532   7.529   7.755   2.301  0.1409 -0.6491 -0.2865
 5196TIP3    H115533   7.515   7.661   2.295  1.0036 -0.7515 -0.6969
 5196TIP3    H215534   7.590   7.775   2.230 -0.6629  0.3420 -0.7111
 5197TIP3   OH215535   2.599   5.694   2.617 -0.0906 -0.0522  0.2586
 5197TIP3    H115536   2.576   5.693   2.710  0.7583 -0.5765  0.4631
 5197TIP3    H215537   2.560   5.615   2.581 -0.8420  0.4025  0.0615
 5198TIP3   OH215538   2.297   8.016   2.549 -0.2129 -0.2272  0.1535
 5198TIP3    H115539   2.388   8.011   2.577 -0.2083  0.9808  0.3707
 5198TIP3    H215540   2.287   7.944   2.487  1.1007  0.1070 -0.4602
 5199TIP3   OH215541   8.377   6.218   3.276  0.6893 -0.3005  0.2968
 5199TIP3    H115542   8.334   6.168   3.345  0.1158  0.0642  0.2091
 5199TIP3    H215543   8.364   6.310   3.301  0.6858 -0.1704 -0.1666
 5200TIP3   OH215544   1.286   6.146   3.834 -0.2342 -0.3342 -0.1278
 5200TIP3    H115545   1.325   6.083   3.774  2.0399 -0.1032  1.0557
 5200TIP3    H215546   1.352   6.214   3.844 -0.9023  0.0344  1.9906
 5201TIP3   OH215547   3.147   1.030   1.171 -0.4125  0.4126  0.3126
 5201TIP3    H115548   3.107   1.034   1.258  1.0595  2.1195  0.9528
 5201TIP3    H215549   3.073   1.030   1.110 -1.4354  0.1835  1.5461
 5202TIP3   OH215550   7.988   6.026   5.105  0.0379 -0.0175  0.0761
 5202TIP3    H115551   8.056   5.960   5.121  0.0000 -0.0584  0.0614
 5202TIP3    H215552   7.907   5.985   5.133  0.0156  0.0262  0.0752
 5203TIP3   OH215553   4.877   0.742   2.351  0.0400 -0.4333  0.1142
 5203TIP3    H115554   4.926   0.679   2.299 -0.5361 -0.1720 -0.7640
 5203TIP3    H215555   4.786   0.715   2.342 -0.1396  0.0778  0.3574
 5204TIP3   OH215556   5.210   1.178   2.863  0.0467  0.7559 -0.3346
 5204TIP3    H115557   5.115   1.183   2.877 -0.0569 -1.8766  0.0380
 5204TIP3    H215558   5.220   1.161   2.769  0.0612 -0.9046 -0.0457
 5205TIP3   OH215559   0.831   5.467   3.478  0.0630  0.5601 -0.7636
 5205TIP3    H115560   0.774   5.544   3.467 -0.8215 -0.0297 -0.3337
 5205TIP3    H215561   0.919   5.504   3.484 -0.1511  1.4024 -2.5937
 5206TIP3   OH215562   0.425   6.417   2.227  0.1889  0.0446  0.0561
 5206TIP3    H115563   0.384   6.429   2.142  1.3932 -1.0400 -0.6844
 5206TIP3    H215564   0.503   6.365   2.210  0.7875  0.3429  1.7315
 5207TIP3   OH215565   2.541   6.533   2.454  0.6491 -0.1907 -0.4192
 5207TIP3    H115566   2.612   6.503   2.512 -0.6170 -0.9290  0.7886
 5207TIP3    H215567   2.508   6.452   2.414 -0.7988 -0.0914  0.5405
 5208TIP3   OH215568   2.888   0.523   3.066  0.0202 -0.3610  0.1795
 5208TIP3    H115569   2.830   0.598   3.077 -0.0603 -0.1604 -1.5116
 5208TIP3    H215570   2.837   0.449   3.101 -0.1487  0.2504  1.2542
 5209TIP3   OH215571   4.900   6.852   2.673 -0.1837 -0.3322  0.2535
 5209TIP3    H115572   4.953   6.930   2.689 -0.6828  0.3515 -1.3507
 5209TIP3    H215573   4.895   6.809   2.759  2.7129 -0.2639  0.5118
 5210TIP3   OH215574   0.768   4.716   4.473 -0.3767 -0.0372  0.0476
 5210TIP3    H115575   0.685   4.715   4.520 -0.0069  0.8846  0.7340
 5210TIP3    H215576   0.779   4.625   4.444 -0.8005 -0.5558  1.4109
 5211TIP3   OH215577   0.110   7.178   2.753  0.6442 -0.6428 -0.0697
 5211TIP3    H115578   0.081   7.179   2.662 -0.7702  1.6362  0.3673
 5211TIP3    H215579   0.194   7.223   2.752  2.3319 -3.6751 -0.7234
 5212TIP3   OH215580   2.564   7.942   2.572 -0.5261 -0.2641 -0.1173
 5212TIP3    H115581   2.654   7.963   2.598 -1.1254  2.4768 -0.0612
 5212TIP3    H215582   2.546   7.858   2.614  1.4980 -0.1229  1.1303
 5213TIP3   OH215583   0.812   7.489   4.875  0.6367  0.5421  0.3522
 5213TIP3    H115584   0.766   7.517   4.954  0.4406  1.3822 -0.0416
 5213TIP3    H215585   0.843   7.571   4.836 -0.1392  0.2310 -0.9621
 5214TIP3   OH215586   0.660   6.203   0.100  1.0111  0.2110  0.7876
 5214TIP3    H115587   0.581   6.225   0.149  0.8501  0.7364  0.3014
 5214TIP3    H215588   0.664   6.108   0.102  1.3715  0.2475  2.3959
 5215TIP3   OH215589   1.186   7.922   0.113 -0.6522  0.1700  0.0771
 5215TIP3    H115590   1.240   7.973   0.175 -1.4577 -0.1995  1.0977
 5215TIP3    H215591   1.135   7.988   0.066 -1.1132  0.3686  0.8459
 5216TIP3   OH215592   4.156   7.623   3.268  0.5898  0.1623 -0.2222
 5216TIP3    H115593   4.205   7.545   3.292  1.0996  0.5417 -0.0304
 5216TIP3    H215594   4.215   7.696   3.288 -1.4080  0.8616  3.6477
 5217TIP3   OH215595   7.847   2.041   6.772  0.8747  0.0276  0.1346
 5217TIP3    H115596   7.928   2.009   6.733 -0.2811 -0.0810 -2.2663
 5217TIP3    H215597   7.795   1.963   6.788  1.4129  0.0547  2.1460
 5218TIP3   OH215598   0.337   6.443   2.792 -0.0061  0.1731 -0.7436
 5218TIP3    H115599   0.431   6.431   2.778  0.0309 -0.1988 -0.2236
 5218TIP3    H215600   0.300   6.451   2.704  0.3963 -0.6023 -0.9863
 5219TIP3   OH215601   2.840   5.607   0.728 -0.3993  0.0847  0.2516
 5219TIP3    H115602   2.932   5.616   0.706 -1.0305 -1.6244 -3.4546
 5219TIP3    H215603   2.794   5.659   0.662 -2.0691  2.3932  3.1149
 5220TIP3   OH215604   1.362   7.827   3.764  0.0874  0.2211  0.0655
 5220TIP3    H115605   1.433   7.882   3.732 -0.2188  0.2199 -0.6111
 5220TIP3    H215606   1.318   7.880   3.831  1.7810 -0.4235  1.7436
 5221TIP3   OH215607   2.388   5.917   3.688  0.2072 -0.0591  1.0265
 5221TIP3    H115608   2.345   5.911   3.603 -2.0559 -2.7277  2.2991
 5221TIP3    H215609   2.422   6.007   3.691 -2.4887  1.1319 -1.3444
 5222TIP3   OH215610   5.303   0.180   1.676 -0.1759  0.5472  0.2781
 5222TIP3    H115611   5.218   0.219   1.656 -0.4104  0.3639  0.9061
 5222TIP3    H215612   5.283   0.093   1.708  0.1724  0.8830  1.4450
 5223TIP3   OH215613   3.247   6.731   0.147  0.2019  0.0135 -0.6250
 5223TIP3    H115614   3.170   6.741   0.091 -0.6578 -1.4293  0.2449
 5223TIP3    H215615   3.285   6.819   0.153  0.7261  0.0907 -3.9884
 5224TIP3   OH215616   3.099   0.411   1.877 -0.5037  0.2883 -0.0608
 5224TIP3    H115617   3.176   0.462   1.903 -1.2925  1.3184  0.3186
 5224TIP3    H215618   3.057   0.465   1.810 -1.0616 -0.1106 -0.0322
 5225TIP3   OH215619   6.781   2.307   6.849  0.1123  0.3551  0.1005
 5225TIP3    H115620   6.720   2.336   6.917  0.4949 -0.6538  0.8802
 5225TIP3    H215621   6.854   2.368   6.856 -0.2980  0.8811 -0.0967
 5226TIP3   OH215622   1.529   6.814   3.050 -0.4084 -0.0203 -0.3624
 5226TIP3    H115623   1.472   6.888   3.027 -0.7529  0.1781  1.0920
 5226TIP3    H215624   1.588   6.850   3.117  0.8322 -0.4819 -1.1767
 5227TIP3   OH215625   0.698   5.576   5.879  0.0293  0.3090 -0.1443
 5227TIP3    H115626   0.762   5.625   5.931  1.0801 -0.5790 -0.5671
 5227TIP3    H215627   0.613   5.599   5.916  0.5230  2.1911 -0.1406
 5228TIP3   OH215628   2.261   7.031   1.552  0.2473  0.4750 -0.2994
 5228TIP3    H115629   2.349   7.052   1.585 -0.5852  1.2457  1.4596
 5228TIP3    H215630   2.229   7.113   1.516  0.5001  0.0213 -1.6158
 5229TIP3   OH215631   6.550   7.308   2.147  0.3882  0.4514 -0.6842
 5229TIP3    H115632   6.583   7.288   2.234  1.2288 -1.2705 -1.3853
 5229TIP3    H215633   6.610   7.264   2.087 -0.4420  1.2374 -2.1261
 5230TIP3   OH215634   8.224   7.527   2.301  0.1467 -0.5941 -0.2237
 5230TIP3    H115635   8.216   7.463   2.230  2.6592 -1.4478  0.1962
 5230TIP3    H215636   8.206   7.611   2.259 -0.0821 -1.2608 -1.5087
 5231TIP3   OH215637   1.734   7.504   1.492  0.4576  0.5303 -0.2322
 5231TIP3    H115638   1.756   7.427   1.545 -2.2930  0.0623  0.2721
 5231TIP3    H215639   1.790   7.574   1.527  0.5223 -0.4136  1.5993
 5232TIP3   OH215640   1.275   7.652   1.142 -0.2086 -0.6838  0.4135
 5232TIP3    H115641   1.328   7.676   1.218  0.1565 -1.6045  0.4535
 5232TIP3    H215642   1.257   7.559   1.154 -0.0052 -0.8714 -0.7165
 5233TIP3   OH215643   3.617   0.727   2.739  0.4295  0.1361  0.1164
 5233TIP3    H115644   3.661   0.652   2.700  1.0045  0.1940  0.6352
 5233TIP3    H215645   3.678   0.758   2.806  0.2646  1.1544 -0.1897
 5234TIP3   OH215646   1.185   2.563   2.717  0.0554 -0.2754 -0.1246
 5234TIP3    H115647   1.121   2.527   2.779 -0.3683 -0.7931 -0.8478
 5234TIP3    H215648   1.261   2.506   2.725  0.8549  0.9696  1.5094
 5235TIP3   OH215649   1.812   6.472   5.590  0.5319 -0.6354 -0.4142
 5235TIP3    H115650   1.788   6.493   5.680  1.0631  0.0318 -0.4238
 5235TIP3    H215651   1.805   6.376   5.585 -3.2507 -0.4354 -0.7427
 5236TIP3   OH215652   1.637   6.930   2.460  0.3118  0.0625 -0.7213
 5236TIP3    H115653   1.658   6.980   2.381 -1.2037  0.2432 -1.0302
 5236TIP3    H215654   1.542   6.936   2.467  0.4500  0.1823  1.2189
 5237TIP3   OH215655   4.376   2.659   2.054 -0.1866  0.0854 -0.3271
 5237TIP3    H115656   4.305   2.671   1.991 -1.4776 -0.1103  1.0628
 5237TIP3    H215657   4.333   2.624   2.132  1.5570 -0.7881  0.2709
 5238TIP3   OH215658   1.328   7.271   0.480 -0.4848  0.3359 -0.0338
 5238TIP3    H115659   1.421   7.290   0.486 -0.0894 -1.5970  0.4788
 5238TIP3    H215660   1.289   7.318   0.554  0.1886  0.6073  0.1532
 5239TIP3   OH215661   2.979   4.090   3.870 -0.0622 -0.1522  0.5588
 5239TIP3    H115662   2.956   4.163   3.812  0.8811 -1.0514 -0.9929
 5239TIP3    H215663   2.900   4.037   3.873  0.7531 -1.6592 -2.3502
 5240TIP3   OH215664   1.829   7.139   1.316  0.2858  0.1572  0.2869
 5240TIP3    H115665   1.841   7.052   1.353  0.4888  0.1992  0.3191
 5240TIP3    H215666   1.842   7.127   1.222  3.6176  0.7582  0.6269
 5241TIP3   OH215667   8.011   5.253   0.402 -0.5228 -0.4812 -0.4034
 5241TIP3    H115668   8.040   5.166   0.376  1.3864  0.2021 -0.6309
 5241TIP3    H215669   8.005   5.302   0.320  0.1113  0.1008 -0.1012
 5242TIP3   OH215670   1.528   6.401   5.381 -0.5196  0.2262  0.0737
 5242TIP3    H115671   1.534   6.321   5.434 -1.8126 -0.5273 -0.8729
 5242TIP3    H215672   1.512   6.471   5.444  0.4745 -0.2759  0.9018
 5243TIP3   OH215673   1.428   5.599   4.228 -0.8120 -0.0947 -0.0239
 5243TIP3    H115674   1.434   5.511   4.266  1.1227 -0.7830 -1.8060
 5243TIP3    H215675   1.355   5.593   4.166 -1.8485  0.0908  1.1641
 5244TIP3   OH215676   0.635   7.846   2.055  0.2131 -0.1640  0.1087
 5244TIP3    H115677   0.624   7.923   2.000 -0.2795  0.8513  1.5781
 5244TIP3    H215678   0.713   7.803   2.020 -0.0941  0.4435 -1.3668
 5245TIP3   OH215679   8.172   7.386   1.344  0.3846 -0.2335 -0.1018
 5245TIP3    H115680   8.253   7.377   1.294 -0.7833 -1.7491 -1.7820
 5245TIP3    H215681   8.187   7.460   1.402  2.2699  0.6879 -1.7381
 5246TIP3   OH215682   7.645   5.874   1.083  0.5033 -0.2541  0.5541
 5246TIP3    H115683   7.620   5.791   1.124 -0.5515  0.1490  0.7566
 5246TIP3    H215684   7.582   5.937   1.118  1.5962  0.7254  0.7718
 5247TIP3   OH215685   6.861   7.678   1.769  0.1950 -0.1213  0.0359
 5247TIP3    H115686   6.889   7.768   1.751  1.3604 -0.1535  1.6205
 5247TIP3    H215687   6.766   7.684   1.777  0.3410  1.1358  0.9972
 5248TIP3   OH215688   0.893   4.950   4.339 -0.1360 -0.3156  0.1655
 5248TIP3    H115689   0.913   4.928   4.248 -0.5919 -0.2296  0.0441
 5248TIP3    H215690   0.836   4.880   4.369 -2.8338  1.4408 -0.6909
 5249TIP3   OH215691   2.433   4.615   2.914 -0.2468 -0.2168  0.2780
 5249TIP3    H115692   2.448   4.696   2.962  1.4840 -0.6843  0.5500
 5249TIP3    H215693   2.505   4.558   2.940 -0.6879 -1.3648 -0.9634
 5250TIP3   OH215694   4.240   2.276   2.993 -0.3125  0.1707  0.2162
 5250TIP3    H115695   4.171   2.214   3.019 -0.5659  0.9113  1.3002
 5250TIP3    H215696   4.193   2.355   2.967  0.1406  0.7043  1.0253
 5251TIP3   OH215697   6.967   0.995   0.395  0.2560  0.6510  0.3561
 5251TIP3    H115698   6.878   1.007   0.427  0.4867 -0.4758  1.4468
 5251TIP3    H215699   6.963   1.018   0.302 -1.2630  0.1285  0.2989
 5252TIP3   OH215700   1.366   7.275   4.096  0.0220 -0.0996 -0.4947
 5252TIP3    H115701   1.395   7.264   4.005  0.4938 -1.7954 -0.1597
 5252TIP3    H215702   1.408   7.356   4.125  1.8983 -0.8579 -1.0174
 5253TIP3   OH215703   7.362   0.227   3.110 -0.6639  0.2477  0.2549
 5253TIP3    H115704   7.398   0.138   3.107 -0.9126  0.1770 -1.2136
 5253TIP3    H215705   7.273   0.215   3.142 -0.0680  0.2007  1.9537
 5254TIP3   OH215706   5.173   0.015   3.432 -0.2998  0.2893 -0.0211
 5254TIP3    H115707   5.110   0.082   3.405 -0.8117 -0.2999 -0.2806
 5254TIP3    H215708   5.152  -0.002   3.523  1.6881  2.5741  0.9391
 5255TIP3   OH215709   8.316   0.943   6.577  0.3158 -0.3688 -0.0033
 5255TIP3    H115710   8.223   0.929   6.557  0.4307 -1.4775  0.1782
 5255TIP3    H215711   8.362   0.878   6.524  0.9818  0.1319 -0.0392
 5256TIP3   OH215712   1.609   7.375   2.211  0.1149 -0.5795 -0.2609
 5256TIP3    H115713   1.588   7.433   2.283 -3.8896 -2.3181  0.0590
 5256TIP3    H215714   1.652   7.300   2.252 -0.7542 -0.8624  0.1350
 5257TIP3   OH215715   2.844   7.362   0.272 -0.2377  0.5681 -0.1253
 5257TIP3    H115716   2.818   7.452   0.291 -0.6838  0.7137 -1.3279
 5257TIP3    H215717   2.936   7.367   0.247  0.2398  0.4276  1.5722
 5258TIP3   OH215718   6.078   0.059   2.331  0.1378  0.6273  0.5330
 5258TIP3    H115719   6.108   0.068   2.241  3.0187 -1.3633  1.2098
 5258TIP3    H215720   6.081   0.148   2.366  3.6594  0.8328 -0.0329
 5259TIP3   OH215721   5.131   7.630   0.584 -0.3381 -0.0669  0.2389
 5259TIP3    H115722   5.059   7.680   0.623 -1.8439 -0.1865 -2.3049
 5259TIP3    H215723   5.196   7.695   0.560 -0.4507  0.2336  0.7306
 5260TIP3   OH215724   5.045   7.969   0.385 -0.3255 -0.1266 -0.6419
 5260TIP3    H115725   5.136   7.940   0.374 -0.3888 -0.4761 -0.2443
 5260TIP3    H215726   4.998   7.890   0.412 -0.4579  0.3690  0.6444
 5261TIP3   OH215727   5.764   0.175   1.014 -0.1536  0.2838  0.3081
 5261TIP3    H115728   5.849   0.147   1.047  0.1233  1.0111  0.2201
 5261TIP3    H215729   5.734   0.241   1.077 -1.9162 -1.9374  1.8622
 5262TIP3   OH215730   2.569   7.189   2.503  0.3872  0.3247  0.3078
 5262TIP3    H115731   2.477   7.165   2.518  0.1766  0.4971 -0.6580
 5262TIP3    H215732   2.612   7.106   2.482 -0.4318  0.7681 -3.4804
 5263TIP3   OH215733   0.211   4.204   6.600 -0.5487 -0.2470  0.2799
 5263TIP3    H115734   0.265   4.254   6.660 -0.5523  0.5366 -0.3582
 5263TIP3    H215735   0.127   4.194   6.645 -0.0462 -1.0069  1.0490
 5264TIP3   OH215736   3.630   7.831   2.724  0.1940  0.0703 -0.2115
 5264TIP3    H115737   3.636   7.829   2.819  0.3194 -1.0039 -0.2334
 5264TIP3    H215738   3.543   7.866   2.705 -0.4386 -1.1917  0.3166
 5265TIP3   OH215739   1.664   5.296   2.160  0.4100 -0.0090  0.3151
 5265TIP3    H115740   1.576   5.298   2.122  0.0091 -1.5016  1.1220
 5265TIP3    H215741   1.720   5.267   2.088  0.5881  2.9319 -0.7930
 5266TIP3   OH215742   6.197   0.721   0.772  0.5687  0.0266 -0.2734
 5266TIP3    H115743   6.219   0.698   0.682  2.7014  1.0480 -0.0554
 5266TIP3    H215744   6.200   0.638   0.820  0.9571 -0.2919 -0.8487
 5267TIP3   OH215745   1.774   7.902   2.218 -0.7301 -0.1503  0.0188
 5267TIP3    H115746   1.731   7.887   2.303  1.6072  2.0976  1.7009
 5267TIP3    H215747   1.834   7.828   2.208 -1.6295 -0.8743 -0.1191
 5268TIP3   OH215748   1.984   7.442   0.212  0.0707 -0.1116 -0.4376
 5268TIP3    H115749   2.074   7.464   0.238 -0.6584  2.4958  0.0236
 5268TIP3    H215750   1.936   7.438   0.294 -0.6511  0.6015 -0.8153
 5269TIP3   OH215751   2.912   6.558   2.974 -0.4955  0.0869  0.4340
 5269TIP3    H115752   2.889   6.467   2.955  0.6980  0.0992 -1.1544
 5269TIP3    H215753   2.855   6.610   2.917 -1.5765  0.3642  1.7527
 5270TIP3   OH215754   6.036   1.286   0.126  0.4207 -0.0122 -0.2391
 5270TIP3    H115755   6.128   1.290   0.150  0.2193 -1.2094  0.7921
 5270TIP3    H215756   5.993   1.248   0.203 -1.0556  1.3288 -0.3837
 5271TIP3   OH215757   3.742   0.179   0.264  0.8596 -0.2790 -0.1084
 5271TIP3    H115758   3.776   0.176   0.353  0.3902 -0.5309  0.0578
 5271TIP3    H215759   3.647   0.171   0.273  1.0567 -4.4387 -0.8650
 5272TIP3   OH215760   4.268   7.306   3.028 -0.2080  0.2041  0.0082
 5272TIP3    H115761   4.285   7.219   3.066  0.0555 -0.0838 -0.7688
 5272TIP3    H215762   4.351   7.351   3.034 -0.4220  0.5177  0.6930
 5273TIP3   OH215763   5.958   2.932   6.604 -0.0381  0.0022  0.1921
 5273TIP3    H115764   6.033   2.940   6.545 -1.1840  1.1610 -1.1238
 5273TIP3    H215765   5.957   2.839   6.628 -0.0389 -0.6726 -2.2739
 5274TIP3   OH215766   5.443   5.592   1.855 -0.3724 -0.7305  0.1353
 5274TIP3    H115767   5.454   5.678   1.894 -0.8789 -0.2782 -0.7000
 5274TIP3    H215768   5.361   5.598   1.806 -1.4855 -2.3032  1.7191
 5275TIP3   OH215769   2.901   7.742   1.425 -0.1591  0.3368 -0.5155
 5275TIP3    H115770   2.921   7.832   1.396 -1.4253  0.1548 -2.0284
 5275TIP3    H215771   2.868   7.753   1.514 -0.9532  1.4602 -0.9309
 5276TIP3   OH215772   7.315   3.147   6.601 -0.2997  0.0556  0.3332
 5276TIP3    H115773   7.312   3.142   6.697  1.5406  0.6468  0.4406
 5276TIP3    H215774   7.239   3.200   6.577 -0.9646 -0.3825  1.4372
 5277TIP3   OH215775   7.230   0.758   0.271  0.0309 -0.0359  0.1770
 5277TIP3    H115776   7.252   0.718   0.187  0.8898  0.9450 -0.0780
 5277TIP3    H215777   7.137   0.781   0.264  0.4691  1.4292 -1.0838
 5278TIP3   OH215778   3.842   5.768   1.908 -0.1124 -0.7159 -0.4843
 5278TIP3    H115779   3.843   5.681   1.868 -1.3546 -1.0179  0.0921
 5278TIP3    H215780   3.806   5.825   1.840 -0.4765 -0.8875 -0.4379
 5279TIP3   OH215781   5.978   0.240   0.227 -0.1309 -0.2597 -0.0100
 5279TIP3    H115782   5.998   0.289   0.147  0.9003  1.5360  1.3104
 5279TIP3    H215783   5.884   0.250   0.238 -0.1475  0.2092 -0.5421
 5280TIP3   OH215784   2.604   7.196   3.115 -0.5747  0.4794  0.4675
 5280TIP3    H115785   2.664   7.268   3.092 -0.8552  0.2466 -1.0291
 5280TIP3    H215786   2.531   7.206   3.054 -0.6196 -1.0781  0.2681
 5281TIP3   OH215787   3.006   7.412   2.157 -0.0795  0.6081 -0.2462
 5281TIP3    H115788   2.932   7.469   2.180  0.2910  0.7128  0.7307
 5281TIP3    H215789   3.069   7.471   2.116  0.4773  1.0075  1.1409
 5282TIP3   OH215790   2.492   5.560   0.874 -0.6336  0.0092 -0.7363
 5282TIP3    H115791   2.545   5.598   0.804 -0.3869  2.0943  0.5293
 5282TIP3    H215792   2.544   5.573   0.953 -1.4848 -1.1149  0.0191
 5283TIP3   OH215793   1.356   4.274   5.267 -0.2852 -0.9681  0.0637
 5283TIP3    H115794   1.313   4.194   5.238 -1.0013 -1.2643  1.8718
 5283TIP3    H215795   1.347   4.273   5.362 -0.1867  1.2005  0.1233
 5284TIP3   OH215796   3.480   7.178   0.302 -0.0424 -0.7161 -0.2086
 5284TIP3    H115797   3.388   7.193   0.322 -0.5250 -0.9665 -2.1699
 5284TIP3    H215798   3.513   7.263   0.275  0.2413 -0.6900  0.2085
 5285TIP3   OH215799   2.171   7.560   1.545  0.1612 -0.1124 -0.6679
 5285TIP3    H115800   2.128   7.609   1.475 -0.4796  0.1626 -0.0795
 5285TIP3    H215801   2.101   7.534   1.604  0.5833 -1.1645 -0.6130
 5286TIP3   OH215802   1.164   5.554   0.927  0.0951  0.1223  0.5304
 5286TIP3    H115803   1.107   5.630   0.935  0.5600  0.6337 -0.9627
 5286TIP3    H215804   1.249   5.589   0.901  0.1198 -0.9662 -0.9222
 5287TIP3   OH215805   3.015   0.356   1.071  0.0207 -0.0924 -0.1122
 5287TIP3    H115806   2.953   0.322   1.135 -0.4276  0.3830 -0.2959
 5287TIP3    H215807   3.067   0.279   1.046  0.4837 -0.2057  1.1298
 5288TIP3   OH215808   5.015   0.541   2.218 -0.3057  0.6994 -0.3595
 5288TIP3    H115809   5.044   0.499   2.299 -0.8860  0.2270 -0.3929
 5288TIP3    H215810   5.069   0.501   2.150 -1.9824 -1.2202 -0.6051
 5289TIP3   OH215811   5.229   0.870   2.902 -0.6391  0.1132  0.1567
 5289TIP3    H115812   5.273   0.892   2.984  1.7356 -0.2400 -0.9997
 5289TIP3    H215813   5.240   0.948   2.848 -0.3145 -0.4488 -0.5960
 5290TIP3   OH215814   8.343   1.489   0.583 -0.4100 -0.1546 -0.0245
 5290TIP3    H115815   8.413   1.551   0.562 -2.2736  1.7561 -0.8205
 5290TIP3    H215816   8.273   1.511   0.522 -0.9368 -3.4750 -0.7219
 5291TIP3   OH215817   0.924   6.863   2.063  0.3489  0.2438  0.1466
 5291TIP3    H115818   0.878   6.840   2.144 -0.9240 -1.0490 -0.9254
 5291TIP3    H215819   1.009   6.819   2.071  0.0312 -0.3084  0.5555
 5292TIP3   OH215820   2.461   6.370   3.457 -0.3356 -0.3905  0.0750
 5292TIP3    H115821   2.530   6.435   3.468  0.4981 -1.3429  0.5133
 5292TIP3    H215822   2.383   6.412   3.494 -0.3697  1.2885 -1.8423
 5293TIP3   OH215823   2.735   5.241   3.462 -0.5197 -1.0404  0.1676
 5293TIP3    H115824   2.706   5.326   3.496  1.1329  0.4129 -1.8392
 5293TIP3    H215825   2.807   5.216   3.520 -0.7031 -0.8316  0.4890
 5294TIP3   OH215826   8.301   0.131   3.540  0.2598  0.6682  0.5005
 5294TIP3    H115827   8.232   0.155   3.477  0.6603  1.3454  0.3189
 5294TIP3    H215828   8.338   0.214   3.567  0.9915  0.2995  0.6259
 5295TIP3   OH215829   2.371   5.981   0.711 -0.4317 -0.4481 -0.0946
 5295TIP3    H115830   2.320   5.903   0.732 -2.5066  0.6511 -0.9047
 5295TIP3    H215831   2.373   6.032   0.792 -1.8992  0.1851 -0.4354
 5296TIP3   OH215832   3.346   5.686   1.103  0.2698 -0.4977  0.4364
 5296TIP3    H115833   3.333   5.781   1.101 -0.8514 -0.6374  0.7453
 5296TIP3    H215834   3.267   5.650   1.063  1.6918 -1.2367 -1.8002
 5297TIP3   OH215835   2.690   7.082   1.651 -0.3347  0.2454  0.0409
 5297TIP3    H115836   2.667   7.040   1.568  1.3397 -1.9483  0.6322
 5297TIP3    H215837   2.698   7.175   1.630 -0.8397 -0.1663 -2.0598
 5298TIP3   OH215838   6.931   0.057   0.557 -1.0771 -0.0718  0.1947
 5298TIP3    H115839   6.900   0.123   0.619  0.6140  0.9332  0.0096
 5298TIP3    H215840   6.865   0.056   0.487 -1.7761  0.4806  0.8451
 5299TIP3   OH215841   8.159   1.648   6.817 -0.0636  0.0363 -0.2105
 5299TIP3    H115842   8.238   1.702   6.824 -0.3630  0.1651  2.8366
 5299TIP3    H215843   8.192   1.560   6.800  0.5937  0.5787 -1.8228
 5300TIP3   OH215844   4.608   0.903   2.441  0.1426 -0.4778  0.1774
 5300TIP3    H115845   4.595   0.932   2.351  1.1940  1.1163  0.5165
 5300TIP3    H215846   4.604   0.808   2.436 -0.7664 -0.3712 -1.4002
 5301TIP3   OH215847   4.513   7.480   1.994  0.0918 -0.4425  0.0737
 5301TIP3    H115848   4.540   7.391   1.973 -0.9722 -1.2936  2.1216
 5301TIP3    H215849   4.583   7.514   2.050  1.3876  0.6988 -2.1621
 5302TIP3   OH215850   2.967   5.538   3.419 -0.0015 -0.0517 -0.5295
 5302TIP3    H115851   3.003   5.483   3.350 -0.3984 -0.2576 -0.5726
 5302TIP3    H215852   2.958   5.480   3.495  1.5314  0.4500  0.0501
 5303TIP3   OH215853   4.693   6.930   0.873  0.1022 -0.5420 -0.2195
 5303TIP3    H115854   4.631   6.978   0.818 -0.5256 -2.8082 -1.5869
 5303TIP3    H215855   4.770   6.986   0.877 -0.7711  0.7853 -1.3843
 5304TIP3   OH215856   3.330   4.223   2.168  0.9115  0.1971 -0.3509
 5304TIP3    H115857   3.423   4.232   2.147  1.2113 -0.8340  0.4823
 5304TIP3    H215858   3.304   4.311   2.197  1.6788  0.4447 -0.3986
 5305TIP3   OH215859   2.329   5.643   1.856 -0.1190  0.0932  0.1857
 5305TIP3    H115860   2.329   5.735   1.879 -0.1791 -0.1421  1.1352
 5305TIP3    H215861   2.237   5.621   1.843 -0.1020  0.1669 -0.0781
 5306TIP3   OH215862   1.760   2.663   6.075  0.4122  0.1978 -0.0310
 5306TIP3    H115863   1.727   2.577   6.099 -0.2911  0.6187  0.5230
 5306TIP3    H215864   1.826   2.684   6.141  0.4742  0.1588 -0.0794
 5307TIP3   OH215865   2.821   7.335   1.212 -0.0526  0.1794  0.1336
 5307TIP3    H115866   2.871   7.256   1.232 -1.8653 -1.2057 -0.6254
 5307TIP3    H215867   2.790   7.365   1.297 -1.1392 -1.1850  0.2522
 5308TIP3   OH215868   0.720   5.652   3.943 -0.2609  0.2941  0.0814
 5308TIP3    H115869   0.793   5.714   3.950 -1.4287  1.6175  0.8710
 5308TIP3    H215870   0.649   5.704   3.907 -0.5737 -1.2085 -1.5141
 5309TIP3   OH215871   8.084   2.245   6.565  0.2657 -0.3299  0.8559
 5309TIP3    H115872   8.101   2.321   6.509  1.4513 -1.1188  0.1319
 5309TIP3    H215873   7.990   2.245   6.577 -0.2367 -1.1406 -2.5850
 5310TIP3   OH215874   3.565   5.095   0.138  0.2677 -0.3615 -0.1953
 5310TIP3    H115875   3.638   5.074   0.080 -0.5893 -2.6942 -0.5013
 5310TIP3    H215876   3.582   5.043   0.217 -1.1427 -1.0301 -0.3339
 5311TIP3   OH215877   2.279   7.385   1.342 -0.5866 -0.4323 -0.2538
 5311TIP3    H115878   2.229   7.416   1.417  0.5011  0.4084  0.1397
 5311TIP3    H215879   2.356   7.344   1.381 -0.7660 -1.3431 -0.8639
 5312TIP3   OH215880   0.815   6.373   1.937  0.0646 -0.1774 -0.1045
 5312TIP3    H115881   0.872   6.446   1.912  1.3877 -1.3777 -0.6277
 5312TIP3    H215882   0.727   6.410   1.932  0.6602  1.1658 -1.1609
 5313TIP3   OH215883   5.311   0.970   3.179  0.4569  0.7766  0.3467
 5313TIP3    H115884   5.377   1.037   3.158 -0.1777  1.8041  1.5312
 5313TIP3    H215885   5.351   0.918   3.249  1.0781 -0.3061 -0.7908
 5314TIP3   OH215886   2.405   4.622   0.659 -0.0955  0.6281 -0.3806
 5314TIP3    H115887   2.478   4.582   0.707 -0.7418 -0.6137 -0.4133
 5314TIP3    H215888   2.420   4.716   0.667  2.0577  0.3832 -1.2047
 5315TIP3   OH215889   5.640   0.076   2.388  0.2962  0.1582  0.4897
 5315TIP3    H115890   5.697   0.119   2.452 -1.9063  1.2353  1.7959
 5315TIP3    H215891   5.617  -0.007   2.429  0.8099 -0.2186  0.0213
 5316TIP3   OH215892   3.545   7.709   1.433 -0.0572  0.3209  0.2124
 5316TIP3    H115893   3.575   7.623   1.402  0.9201  0.7304 -0.0198
 5316TIP3    H215894   3.451   7.708   1.419  0.0473 -0.4258 -0.5211
 5317TIP3   OH215895   1.128   5.026   6.062  0.2084 -0.1977 -0.1797
 5317TIP3    H115896   1.034   5.013   6.050  0.0963  0.9147 -0.5441
 5317TIP3    H215897   1.167   4.941   6.042 -0.8387 -1.0760  1.4206
 5318TIP3   OH215898   2.970   6.338   1.994 -0.1036 -0.4019 -0.7106
 5318TIP3    H115899   2.943   6.309   2.081 -1.1754  0.5466 -0.7185
 5318TIP3    H215900   3.065   6.347   2.000 -0.1651 -0.4029  0.3355
 5319TIP3   OH215901   1.752   6.960   0.594  0.2992 -0.1122 -0.0787
 5319TIP3    H115902   1.816   6.999   0.653 -0.5236 -0.6869  1.2119
 5319TIP3    H215903   1.668   6.975   0.636 -0.2526 -1.0577 -0.8219
 5320TIP3   OH215904   1.413   6.837   2.207 -0.1916  0.0732 -0.3965
 5320TIP3    H115905   1.347   6.840   2.276 -0.6971 -0.9335 -0.8109
 5320TIP3    H215906   1.467   6.760   2.228  2.4250  2.3086  1.3203
 5321TIP3   OH215907   7.435   3.386   6.713  0.4795 -0.1055  0.1629
 5321TIP3    H115908   7.374   3.369   6.641  0.6315  2.7764 -0.7057
 5321TIP3    H215909   7.475   3.470   6.691  1.4660  0.2191  3.0075
 5322TIP3   OH215910   2.288   7.297   2.821  0.2963  0.1234 -0.2302
 5322TIP3    H115911   2.279   7.220   2.764 -1.3243  0.6401 -0.7012
 5322TIP3    H215912   2.301   7.370   2.761  1.0514  0.3330  0.1860
 5323TIP3   OH215913   2.389   6.489   1.745 -0.0234  0.1517 -0.5667
 5323TIP3    H115914   2.370   6.559   1.808  0.4863 -1.5573  1.5493
 5323TIP3    H215915   2.413   6.535   1.665 -1.8040  2.3902  0.1217
 5324TIP3   OH215916   0.881   5.250   3.053 -0.0181  0.3529  0.4442
 5324TIP3    H115917   0.842   5.163   3.060 -0.0254  0.2962 -0.2682
 5324TIP3    H215918   0.822   5.307   3.102 -0.0024 -0.0429  0.9345
 5325TIP3   OH215919   3.564   6.306   0.202 -0.4033 -0.4192  0.4308
 5325TIP3    H115920   3.564   6.235   0.266  1.6836  1.3747  2.5241
 5325TIP3    H215921   3.527   6.381   0.248  0.1335  0.6386 -0.8024
 5326TIP3   OH215922   2.096   6.985   0.525 -0.4997 -0.1194  0.6550
 5326TIP3    H115923   2.142   6.992   0.441 -0.7214  1.1006  0.6357
 5326TIP3    H215924   2.151   6.928   0.578  0.6352  0.7098  0.3633
 5327TIP3   OH215925   1.671   5.869   1.924  0.0256  0.3463 -0.2184
 5327TIP3    H115926   1.719   5.832   1.998 -0.4114  0.7631  0.2798
 5327TIP3    H215927   1.588   5.899   1.962 -0.2784  0.3980 -0.9119
 5328TIP3   OH215928   8.326   7.544   1.540  0.3476 -0.0282 -0.0912
 5328TIP3    H115929   8.395   7.481   1.519  0.8924  0.1166  1.1889
 5328TIP3    H215930   8.340   7.564   1.633  0.3672  2.1995 -0.5485
 5329TIP3   OH215931   4.069   0.444   2.841  0.3342 -0.0219 -0.3168
 5329TIP3    H115932   3.991   0.389   2.847  0.9485 -0.8517  0.1936
 5329TIP3    H215933   4.112   0.415   2.760  0.1789  0.3416 -0.5277
 5330TIP3   OH215934   3.859   6.764   2.553  0.1286  0.3594 -0.1697
 5330TIP3    H115935   3.942   6.734   2.515 -0.7523 -1.6368 -0.5841
 5330TIP3    H215936   3.878   6.779   2.645  0.2743 -3.0234  0.4075
 5331TIP3   OH215937   4.789   6.396   1.559 -0.0811  0.8308  0.3024
 5331TIP3    H115938   4.820   6.482   1.587  0.3453  1.1566 -1.1178
 5331TIP3    H215939   4.868   6.347   1.538 -0.4046  1.0148 -1.4652
 5332TIP3   OH215940   0.752   7.067   4.662 -0.6766 -0.3455 -0.0922
 5332TIP3    H115941   0.721   7.017   4.737 -2.8486 -2.8919 -2.5339
 5332TIP3    H215942   0.819   7.011   4.622  2.0909  1.9959  1.1710
 5333TIP3   OH215943   3.797   6.088   2.781  0.1574  0.1346  0.5720
 5333TIP3    H115944   3.806   6.034   2.860  4.1497  0.8815  0.7315
 5333TIP3    H215945   3.745   6.163   2.809  0.5954 -0.1548  2.2132
 5334TIP3   OH215946   1.391   7.001   1.053  0.5528 -0.3985  0.2775
 5334TIP3    H115947   1.358   7.047   1.130 -0.1189 -2.6959  1.4229
 5334TIP3    H215948   1.451   6.935   1.089  0.2815 -1.4447 -1.1579
 5335TIP3   OH215949   2.563   0.217   1.126  0.3043 -0.4975 -0.1346
 5335TIP3    H115950   2.489   0.247   1.180  0.2718 -0.5456 -0.1521
 5335TIP3    H215951   2.563   0.122   1.137 -0.5880 -0.6513 -1.3394
 5336TIP3   OH215952   6.374   0.668   1.877  0.4236 -0.8473 -0.2732
 5336TIP3    H115953   6.378   0.641   1.969  0.7640 -0.9712 -0.3244
 5336TIP3    H215954   6.432   0.744   1.871  1.3235 -1.5553 -0.6333
 5337TIP3   OH215955   1.039   2.889   6.479  0.0287  0.3853 -0.1385
 5337TIP3    H115956   1.118   2.846   6.447 -0.3682  1.2760 -2.3529
 5337TIP3    H215957   1.058   2.983   6.472 -1.3002  0.6066 -0.8687
 5338TIP3   OH215958   0.658   7.145   1.528 -0.0948  0.1361 -0.3698
 5338TIP3    H115959   0.743   7.162   1.488 -0.6976  2.5744 -0.6903
 5338TIP3    H215960   0.651   7.211   1.598 -1.0721 -1.0346  0.6575
 5339TIP3   OH215961   2.766   5.673   3.141 -0.0116 -0.8518  0.2625
 5339TIP3    H115962   2.769   5.690   3.047 -0.5879  1.6223  0.6691
 5339TIP3    H215963   2.844   5.620   3.158 -0.2755 -1.9410 -1.6941
 5340TIP3   OH215964   6.570   0.145   2.741 -0.0234 -0.1339 -0.2744
 5340TIP3    H115965   6.601   0.123   2.829 -0.1383 -0.3707 -0.2925
 5340TIP3    H215966   6.501   0.080   2.723  1.8502 -1.8221 -1.6219
 5341TIP3   OH215967   6.903   3.513   6.212  0.2745 -0.4238 -0.4279
 5341TIP3    H115968   6.818   3.530   6.170 -0.2711 -2.7270 -0.3123
 5341TIP3    H215969   6.967   3.548   6.151 -0.7542  1.8120 -0.2872
 5342TIP3   OH215970   6.131   7.284   2.425  0.2464 -0.1814  0.0907
 5342TIP3    H115971   6.215   7.286   2.380  0.2977 -1.3798  0.1346
 5342TIP3    H215972   6.098   7.374   2.418  2.0554  0.5899  1.1109
 5343TIP3   OH215973   4.852   6.469   2.569 -0.0377 -0.3340  0.1747
 5343TIP3    H115974   4.813   6.430   2.491 -2.2149 -1.2291  1.6498
 5343TIP3    H215975   4.844   6.402   2.636  3.5906 -0.3081  0.7349
 5344TIP3   OH215976   2.173   7.724   2.147  0.0970  0.2634  0.1881
 5344TIP3    H115977   2.102   7.663   2.169  1.2241 -1.7084 -1.4265
 5344TIP3    H215978   2.133   7.810   2.153 -2.0867 -0.7251  0.5963
 5345TIP3   OH215979   2.010   7.340   0.838 -0.1271 -0.2749 -0.0927
 5345TIP3    H115980   1.944   7.407   0.858 -1.9932 -2.3598  0.9890
 5345TIP3    H215981   2.083   7.360   0.898  0.0021  1.6623 -0.8544
 5346TIP3   OH215982   2.204   6.786   1.417  0.1783 -0.2527  0.2634
 5346TIP3    H115983   2.131   6.740   1.457  1.0222 -2.4268 -0.6125
 5346TIP3    H215984   2.222   6.859   1.476 -2.0496 -0.2446  0.9783
 5347TIP3   OH215985   3.728   5.490   4.749  0.0810  0.3589 -0.3302
 5347TIP3    H115986   3.742   5.400   4.777  2.6308  0.3040 -1.6131
 5347TIP3    H215987   3.806   5.512   4.698 -0.4978  3.2918 -0.0609
 5348TIP3   OH215988   8.352   3.107   6.701  0.0668  0.1524  0.0778
 5348TIP3    H115989   8.400   3.165   6.761 -0.1320  0.4689 -0.0656
 5348TIP3    H215990   8.284   3.163   6.663 -0.6645 -0.3927  0.5718
 5349TIP3   OH215991   2.317   4.434   2.384 -0.1939 -0.2081  0.2465
 5349TIP3    H115992   2.226   4.428   2.411 -0.4072  1.2272 -0.0979
 5349TIP3    H215993   2.328   4.525   2.357  1.4142 -0.2865  0.5653
 5350TIP3   OH215994   4.507   7.844   0.205 -0.1490 -0.5227 -0.1121
 5350TIP3    H115995   4.599   7.817   0.200  0.1391  0.4655 -0.2795
 5350TIP3    H215996   4.474   7.833   0.116  1.2464  4.0532 -1.3301
 5351TIP3   OH215997   5.305   0.646   2.052 -0.2651  0.1784  0.1430
 5351TIP3    H115998   5.300   0.732   2.092  1.2595 -0.4216  1.6936
 5351TIP3    H215999   5.289   0.585   2.124 -0.9831 -0.8508 -0.8675
 5352TIP3   OH216000   2.821   6.572   0.319  0.1584 -0.3270  0.4488
 5352TIP3    H116001   2.806   6.666   0.317  1.2576 -0.1813 -1.2138
 5352TIP3    H216002   2.741   6.536   0.358 -0.8902  1.1533 -0.2920
 5353TIP3   OH216003   5.180   1.374   0.945 -0.5148  0.1886 -0.7385
 5353TIP3    H116004   5.263   1.342   0.982 -1.2504 -0.0108  0.7635
 5353TIP3    H216005   5.132   1.408   1.020 -2.2451 -0.6574 -1.4311
 5354TIP3   OH216006   5.731   0.646   1.359 -0.0905  0.8416 -0.1605
 5354TIP3    H116007   5.796   0.700   1.404 -1.4851  1.7773  0.7937
 5354TIP3    H216008   5.676   0.710   1.312 -0.5920  0.1140 -0.5726
 5355TIP3   OH216009   7.438   4.149   6.358 -1.0589 -0.3254 -0.2942
 5355TIP3    H116010   7.461   4.056   6.369 -0.7159 -0.3036 -0.7887
 5355TIP3    H216011   7.392   4.172   6.438  0.7237 -0.3705  0.7804
 5356TIP3   OH216012   3.881   7.118   0.941 -0.0520 -0.2591  0.7327
 5356TIP3    H116013   3.829   7.066   0.881  0.1943  0.0998  0.1964
 5356TIP3    H216014   3.824   7.191   0.966 -1.0079 -1.6747  2.8293
 5357TIP3   OH216015   6.246   3.894   6.731 -0.1349 -0.3424  0.0809
 5357TIP3    H116016   6.248   3.894   6.636  1.1194  1.7666  0.0653
 5357TIP3    H216017   6.205   3.811   6.755  1.2531 -1.7459 -2.2526
 5358TIP3   OH216018   3.639   6.503   2.543 -0.2955  0.2834 -0.3838
 5358TIP3    H116019   3.715   6.556   2.522  0.1052  0.1903  0.8286
 5358TIP3    H216020   3.564   6.558   2.520  0.1183  1.2615  0.6010
 5359TIP3   OH216021   1.905   7.521   3.868 -0.1091 -0.2624  0.1781
 5359TIP3    H116022   1.841   7.450   3.873  0.4085 -0.6624  1.1572
 5359TIP3    H216023   1.920   7.547   3.959  1.2792 -0.3223 -0.0220
 5360TIP3   OH216024   3.837   5.843   3.250  0.6554  0.2496 -0.0761
 5360TIP3    H116025   3.813   5.899   3.324  2.8013  1.5032 -0.2742
 5360TIP3    H216026   3.901   5.782   3.286 -1.3337 -1.8504  0.0302
 5361TIP3   OH216027   3.943   0.294   2.454  0.4032  0.4149 -0.1121
 5361TIP3    H116028   4.018   0.354   2.459  0.4439  0.3935 -0.4704
 5361TIP3    H216029   3.962   0.238   2.379  0.2218  0.1427  0.0435
 5362TIP3   OH216030   1.924   7.023   2.098 -0.7574 -0.1125  0.1750
 5362TIP3    H116031   1.895   6.932   2.105 -2.2006  0.3921  1.0689
 5362TIP3    H216032   2.013   7.018   2.064 -0.5175 -1.8929  1.0235
 5363TIP3   OH216033   2.142   6.747   3.746  0.6730 -0.1993 -0.3000
 5363TIP3    H116034   2.141   6.762   3.841 -0.4268 -1.8840 -0.0232
 5363TIP3    H216035   2.051   6.726   3.724  0.3445  2.8850 -2.2126
 5364TIP3   OH216036   1.306   6.578   1.058  0.0215 -0.0596 -0.6133
 5364TIP3    H116037   1.315   6.664   1.018 -1.1761 -0.4559 -1.7585
 5364TIP3    H216038   1.357   6.519   1.003  1.6937  0.0620  0.7495
 5365TIP3   OH216039   2.656   7.826   3.091  0.3453  0.1819 -0.2560
 5365TIP3    H116040   2.748   7.847   3.077  0.9155 -1.6777  0.5798
 5365TIP3    H216041   2.633   7.871   3.172  0.4012  0.9138 -0.6343
 5366TIP3   OH216042   5.027   6.508   0.889  0.2190  0.5097 -0.0862
 5366TIP3    H116043   5.008   6.501   0.982  1.2408  2.8066  0.3300
 5366TIP3    H216044   5.072   6.426   0.868  0.2617  0.1039  1.5107
 5367TIP3   OH216045   2.398   7.574   3.192  0.3909 -0.2979  0.1439
 5367TIP3    H116046   2.364   7.553   3.279  0.1179 -0.0082  0.1048
 5367TIP3    H216047   2.355   7.655   3.168 -0.5166 -1.0532 -0.8190
 5368TIP3   OH216048   2.935   4.492   2.591  0.0968 -0.3335 -0.7425
 5368TIP3    H116049   2.967   4.522   2.506  0.6789  1.2074  0.0066
 5368TIP3    H216050   2.983   4.545   2.655 -2.4314  0.5682  0.4672
 5369TIP3   OH216051   2.032   6.266   3.514 -0.3440 -0.0104  0.1454
 5369TIP3    H116052   2.047   6.325   3.588  0.5799 -0.5935  0.4339
 5369TIP3    H216053   2.119   6.241   3.485 -0.7146 -0.3996 -0.6545
 5370TIP3   OH216054   3.431   7.604   2.585 -0.3412  0.1826 -0.0192
 5370TIP3    H116055   3.403   7.693   2.566 -0.6143  0.0696 -0.1476
 5370TIP3    H216056   3.483   7.578   2.509 -1.8508 -0.4489 -0.8672
 5371TIP3   OH216057   2.363   7.463   0.765  0.2716 -0.4933  0.3594
 5371TIP3    H116058   2.350   7.503   0.851  1.7363  0.4637  0.1411
 5371TIP3    H216059   2.377   7.370   0.784 -2.3983 -0.8248  0.9225
 5372TIP3   OH216060   0.802   0.217   2.988 -0.0518  0.3942 -0.2475
 5372TIP3    H116061   0.888   0.258   2.982 -1.0267  2.4604 -0.3975
 5372TIP3    H216062   0.821   0.125   3.006  2.1828  0.8179 -0.2907
 5373TIP3   OH216063   2.836   5.567   6.605 -0.2269 -0.3120  0.1529
 5373TIP3    H116064   2.858   5.547   6.696 -0.8958  0.3866  0.4844
 5373TIP3    H216065   2.767   5.505   6.583  0.3517 -0.8773 -0.0791
 5374TIP3   OH216066   1.745   6.163   1.664 -0.0349  0.8070 -0.3098
 5374TIP3    H116067   1.792   6.083   1.641  0.7077  0.9828  0.5589
 5374TIP3    H216068   1.652   6.139   1.659  0.1881 -0.5297  1.3340
 5375TIP3   OH216069   3.752   7.577   1.926  0.1072  0.4755  0.4007
 5375TIP3    H116070   3.750   7.517   2.000  1.2017 -1.1291 -0.8151
 5375TIP3    H216071   3.833   7.555   1.880 -1.7799 -0.3838 -2.7076
 5376TIP3   OH216072   5.557   3.886   6.517 -0.1338  0.3744 -0.6315
 5376TIP3    H116073   5.606   3.967   6.505  0.4374  0.2762  0.8687
 5376TIP3    H216074   5.465   3.911   6.505  0.2503  0.4663 -3.9161
 5377TIP3   OH216075   1.811   7.303   1.640 -0.5931  0.1286 -0.1505
 5377TIP3    H116076   1.830   7.355   1.718  3.3637 -2.1209  0.4896
 5377TIP3    H216077   1.770   7.224   1.673 -0.0931 -0.2642 -0.4638
 5378TIP3   OH216078   3.056   7.377   0.540 -0.2647 -0.3583  0.0294
 5378TIP3    H116079   3.027   7.286   0.545  0.2358 -0.5555 -0.5485
 5378TIP3    H216080   2.985   7.428   0.581 -1.0993 -0.8914 -0.7342
 5379TIP3   OH216081   3.519   6.515   1.952  0.2544  0.3117 -0.0425
 5379TIP3    H116082   3.447   6.497   1.892  0.1353 -0.2353  0.2698
 5379TIP3    H216083   3.478   6.529   2.037  0.5619 -0.6197  0.2628
 5380TIP3   OH216084   2.990   7.269   3.212 -0.1652 -0.2458 -0.4358
 5380TIP3    H116085   2.945   7.191   3.245  0.6369  0.3460  2.1246
 5380TIP3    H216086   3.060   7.285   3.274 -0.7657  2.9597 -0.5012
 5381TIP3   OH216087   1.244   0.803   5.959 -0.3690 -0.1196  0.6097
 5381TIP3    H116088   1.158   0.822   5.997  1.0403  0.1630  3.7895
 5381TIP3    H216089   1.283   0.889   5.945 -0.2243 -0.2783  0.0193
 5382TIP3   OH216090   2.148   5.120   2.138  0.1274 -0.1527 -0.1676
 5382TIP3    H116091   2.139   5.207   2.178  0.7757  0.0601 -0.4799
 5382TIP3    H216092   2.060   5.099   2.107  0.2709  1.0736 -1.4701
 5383TIP3   OH216093   6.532   0.098   0.562 -0.8521  0.4726  0.2362
 5383TIP3    H116094   6.503   0.066   0.477 -1.8587  1.0680  0.3519
 5383TIP3    H216095   6.535   0.021   0.618 -1.0554  0.2259 -0.0954
 5384TIP3   OH216096   2.505   7.831   4.120 -0.0807 -0.0207 -0.5215
 5384TIP3    H116097   2.472   7.914   4.088  1.3892  0.0639 -1.8287
 5384TIP3    H216098   2.600   7.842   4.123 -0.0123 -0.9210  1.3496
 5385TIP3   OH216099   2.079   6.346   2.701  0.2546 -0.2419 -0.2151
 5385TIP3    H116100   2.072   6.440   2.685  1.0119 -0.0817  0.3392
 5385TIP3    H216101   2.037   6.333   2.786  1.7364 -0.1088  0.5642
 5386TIP3   OH216102   5.405   7.791   3.702 -0.3569 -0.7145 -0.5496
 5386TIP3    H116103   5.484   7.815   3.751  0.7064 -1.4215 -1.8655
 5386TIP3    H216104   5.388   7.700   3.727 -1.0515 -0.4016  0.1183
 5387TIP3   OH216105   0.634   1.283   6.625  0.0424  0.2737 -0.3059
 5387TIP3    H116106   0.598   1.280   6.714  0.9035 -0.0220  0.0349
 5387TIP3    H216107   0.606   1.368   6.591  1.9423  1.5630  1.2135
 5388TIP3   OH216108   4.199   0.331   0.255  0.3979  0.2375  0.2611
 5388TIP3    H116109   4.157   0.371   0.179 -2.7171 -0.9228  1.2629
 5388TIP3    H216110   4.153   0.369   0.330  1.2271 -0.9807  1.4165
 5389TIP3   OH216111   7.057   3.906   6.730 -0.5040 -0.2945  0.6522
 5389TIP3    H116112   7.066   3.822   6.775  1.1201 -0.2448  0.4455
 5389TIP3    H216113   7.130   3.959   6.763 -0.4917  0.4372 -0.5093
 5390TIP3   OH216114   7.081   0.337   0.330  0.5850  0.4495  0.3195
 5390TIP3    H116115   7.071   0.242   0.338  1.5728  0.3001 -0.1238
 5390TIP3    H216116   7.159   0.348   0.276 -0.8105  1.4795 -1.5875
 5391TIP3   OH216117   1.388   6.607   1.914  0.2408  0.5435  0.1643
 5391TIP3    H116118   1.402   6.662   1.837  0.3215  1.6737  0.9741
 5391TIP3    H216119   1.464   6.624   1.970  0.1775 -0.2650  0.5108
 5392TIP3   OH216120   1.547   6.295   2.339 -0.1205  0.1527  0.5884
 5392TIP3    H116121   1.489   6.224   2.312  0.3089 -0.9647  2.4822
 5392TIP3    H216122   1.631   6.252   2.357  0.6974  1.4371 -0.1202
 5393TIP3   OH216123   3.485   7.961   0.888 -0.2151  0.3408  0.2744
 5393TIP3    H116124   3.554   7.919   0.836 -0.7668  0.9512 -0.9695
 5393TIP3    H216125   3.470   8.044   0.844 -0.0871  1.2568  1.9304
 5394TIP3   OH216126   5.215   0.222   3.076 -0.3057  0.2610  0.0922
 5394TIP3    H116127   5.232   0.129   3.083  1.0167  0.5686  1.2524
 5394TIP3    H216128   5.121   0.229   3.060 -0.5246 -1.2318  0.7049
 5395TIP3   OH216129   6.705   0.287   0.769  0.4655 -0.4961 -0.6960
 5395TIP3    H116130   6.643   0.350   0.804  2.2547  1.7096 -1.3411
 5395TIP3    H216131   6.651   0.220   0.727 -1.4946  0.0574  0.8926
 5396TIP3   OH216132   4.006   7.206   4.156 -0.4300  0.0230 -0.3208
 5396TIP3    H116133   3.997   7.233   4.065 -0.1154 -1.5909 -0.8582
 5396TIP3    H216134   4.019   7.111   4.151  1.5361  0.1689  1.2751
 5397TIP3   OH216135   2.082   4.408   1.020 -0.6977 -0.6062  0.1161
 5397TIP3    H116136   2.148   4.473   0.995  0.6803 -1.2161  2.0149
 5397TIP3    H216137   1.999   4.455   1.015 -0.0440  0.4209 -1.5203
 5398TIP3   OH216138   1.112   5.126   1.752  0.0640  0.7962 -0.1316
 5398TIP3    H116139   1.075   5.114   1.839  1.1432 -1.9320  0.0159
 5398TIP3    H216140   1.036   5.130   1.694 -0.6282  1.6600  0.8228
 5399TIP3   OH216141   7.755   3.815   6.922  0.3741  0.5491 -0.4956
 5399TIP3    H116142   7.844   3.790   6.896  0.8190  0.9505  0.6006
 5399TIP3    H216143   7.752   3.909   6.907 -0.7388  0.1380 -3.0082
 5400TIP3   OH216144   0.172   4.636   5.417 -0.4305 -0.4247 -0.0470
 5400TIP3    H116145   0.137   4.713   5.462 -2.6482 -1.6354  0.3823
 5400TIP3    H216146   0.095   4.594   5.379  0.6481 -2.8451  0.3673
 5401TIP3   OH216147   1.213   5.245   1.161 -0.3161 -0.4411  0.0330
 5401TIP3    H116148   1.179   5.161   1.193  0.1962 -0.1539  1.3540
 5401TIP3    H216149   1.298   5.222   1.123 -1.1454 -0.8635 -1.6097
 5402TIP3   OH216150   3.399   6.640   0.964 -0.1925 -0.4088 -0.2476
 5402TIP3    H116151   3.322   6.689   0.936 -0.1445  0.4959  1.1473
 5402TIP3    H216152   3.464   6.655   0.895  0.7808  3.8576  1.4022
 5403TIP3   OH216153   1.752   5.277   3.610  0.3730 -0.0298  0.2895
 5403TIP3    H116154   1.664   5.308   3.631  0.5686 -1.3152  3.2138
 5403TIP3    H216155   1.808   5.316   3.676  1.6901 -0.9331 -0.2664
 5404TIP3   OH216156   1.151   6.730   2.053 -0.5241  0.0652 -0.2113
 5404TIP3    H116157   1.243   6.741   2.030 -1.0421 -0.4648 -2.6414
 5404TIP3    H216158   1.150   6.652   2.109  0.7690  1.4274  1.7677
 5405TIP3   OH216159   3.827   7.806   1.385  0.1973 -0.4147  0.2081
 5405TIP3    H116160   3.888   7.741   1.421 -1.0485 -1.6964  0.0362
 5405TIP3    H216161   3.744   7.787   1.427  0.1662  2.1141  1.3575
 5406TIP3   OH216162   4.549   6.936   2.115  0.1178 -0.2933 -0.2868
 5406TIP3    H116163   4.622   6.927   2.177  0.8466 -0.1723 -1.1285
 5406TIP3    H216164   4.483   6.985   2.164 -0.1567 -2.0269  1.1313
 5407TIP3   OH216165   7.182   6.943   1.142 -0.1510  0.6556  0.1896
 5407TIP3    H116166   7.107   6.920   1.087  1.2505 -1.3214 -1.0046
 5407TIP3    H216167   7.157   6.916   1.230 -0.3215 -1.3432 -0.4399
 5408TIP3   OH216168   3.936   7.430   1.084  0.1521 -0.1904 -0.1036
 5408TIP3    H116169   3.861   7.474   1.044  1.4069  1.0130 -1.1921
 5408TIP3    H216170   4.010   7.489   1.067  1.1653 -0.8805  1.8194
 5409TIP3   OH216171   5.191   7.418   3.100 -0.8184  0.0112 -0.2416
 5409TIP3    H116172   5.125   7.488   3.101 -1.1177 -0.2471 -1.5673
 5409TIP3    H216173   5.159   7.357   3.035 -0.5314 -1.3619  0.8864
 5410TIP3   OH216174   6.684   0.970   1.224 -0.9138 -0.4123  1.1882
 5410TIP3    H116175   6.655   0.919   1.148 -0.4341  2.1065 -0.7718
 5410TIP3    H216176   6.617   1.037   1.235  0.8172  1.4651  0.6853
 5411TIP3   OH216177   6.346   1.641   0.231 -0.2929 -0.0916  0.0943
 5411TIP3    H116178   6.419   1.579   0.245  0.1524  0.2949 -0.4828
 5411TIP3    H216179   6.273   1.603   0.279 -0.7638 -2.4131 -2.3048
 5412TIP3   OH216180   4.362   7.115   3.445  0.2660 -0.0176  0.2963
 5412TIP3    H116181   4.359   7.040   3.504 -1.8456 -1.9477 -2.1317
 5412TIP3    H216182   4.453   7.144   3.448  0.2585 -0.2158  4.2237
 5413TIP3   OH216183   0.615   1.109   2.033  0.7403  0.3207 -0.0437
 5413TIP3    H116184   0.628   1.174   2.102  1.0893  0.3178 -0.1071
 5413TIP3    H216185   0.623   1.024   2.077 -0.7924  0.3171  0.2453
 5414TIP3   OH216186   5.140   6.249   1.878  0.0377  0.4228 -0.4106
 5414TIP3    H116187   5.204   6.268   1.946  0.2746 -2.3342  0.1901
 5414TIP3    H216188   5.153   6.156   1.857 -2.0699  0.4435 -2.0609
 5415TIP3   OH216189   4.558   7.956   1.483  0.6535 -0.4572 -0.1378
 5415TIP3    H116190   4.591   7.946   1.573  1.4864 -2.1274 -0.6094
 5415TIP3    H216191   4.523   7.870   1.461  0.7792 -0.1460 -1.5507
 5416TIP3   OH216192   2.731   2.379   6.622 -0.6335 -0.1343 -0.0658
 5416TIP3    H116193   2.822   2.375   6.590  0.0260 -1.7471  1.9522
 5416TIP3    H216194   2.682   2.415   6.548  1.6548  0.8712 -1.1617
 5417TIP3   OH216195   2.782   3.098   6.806 -0.1621 -0.8740  0.5310
 5417TIP3    H116196   2.840   3.028   6.836 -0.8886 -0.9462  1.7826
 5417TIP3    H216197   2.714   3.053   6.756  0.0960 -0.9243  0.2224
 5418TIP3   OH216198   6.007   6.469   2.432 -1.0674  0.5572  0.0236
 5418TIP3    H116199   6.001   6.383   2.390 -1.3939  1.1791 -1.2183
 5418TIP3    H216200   5.934   6.470   2.494 -1.6501  0.2971 -0.6409
 5419TIP3   OH216201   6.621   1.066   1.725 -0.0314 -0.7350 -0.0005
 5419TIP3    H116202   6.694   1.103   1.676 -0.4252  0.1230  0.0396
 5419TIP3    H216203   6.559   1.139   1.733 -1.6973 -1.9166 -1.6144
 5420TIP3   OH216204   3.620   0.451   6.457 -0.2456  0.2099  0.7042
 5420TIP3    H116205   3.570   0.441   6.376 -2.1271  0.9409  1.7310
 5420TIP3    H216206   3.709   0.427   6.433 -1.1561 -1.6004 -1.0861
 5421TIP3   OH216207   6.632   1.078   2.359  0.4410 -0.5262  0.3026
 5421TIP3    H116208   6.684   0.998   2.373  2.3177  1.0656  2.9384
 5421TIP3    H216209   6.686   1.130   2.300  0.2920 -0.2833  0.3832
 5422TIP3   OH216210   2.304   5.294   5.812 -0.5333 -0.0124 -0.6371
 5422TIP3    H116211   2.214   5.312   5.784 -0.9354 -2.2443 -0.9144
 5422TIP3    H216212   2.301   5.205   5.846  1.3660  0.2801  0.3584
 5423TIP3   OH216213   0.988   0.451   0.084  0.4232  0.2941  0.1793
 5423TIP3    H116214   1.035   0.443   0.167 -0.1407  1.5762  0.6433
 5423TIP3    H216215   0.905   0.406   0.099  0.5407  0.0618  0.1333
 5424TIP3   OH216216   0.307   0.494   2.003  0.0417  0.2416  0.4870
 5424TIP3    H116217   0.387   0.446   1.980  0.0375  0.8608 -0.8117
 5424TIP3    H216218   0.236   0.440   1.970  0.0685  1.5710 -1.8035
 5425TIP3   OH216219   4.345   7.071   3.145  0.1301 -0.1442  0.0190
 5425TIP3    H116220   4.323   7.033   3.230  1.7595  0.5713  0.7829
 5425TIP3    H216221   4.427   7.029   3.121  1.0929  1.6489  0.0921
 5426TIP3   OH216222   5.457   6.542   2.717  0.1472  0.2957  0.2740
 5426TIP3    H116223   5.477   6.490   2.795 -0.7097  0.1110  0.3740
 5426TIP3    H216224   5.414   6.481   2.657 -0.1056  0.6809  0.0570
 5427TIP3   OH216225   7.783   4.955   6.333 -0.0436  0.2539  0.2549
 5427TIP3    H116226   7.741   4.955   6.247  0.0799  1.5407  0.1794
 5427TIP3    H216227   7.863   5.005   6.320  0.4360 -0.3398  0.9113
 5428TIP3   OH216228   5.747   6.786   1.285  0.2648 -0.1849 -0.5132
 5428TIP3    H116229   5.744   6.846   1.359 -0.1506 -1.0289  0.1660
 5428TIP3    H216230   5.663   6.797   1.242  0.5257  0.3423 -0.8910
 5429TIP3   OH216231   4.521   6.964   1.085  0.2019 -0.5537  0.1517
 5429TIP3    H116232   4.440   6.913   1.071 -0.6050  0.7509 -0.0298
 5429TIP3    H216233   4.550   6.986   0.997 -0.6771  1.1609  0.2631
 5430TIP3   OH216234   1.499   2.117   1.581  0.0337  0.1649 -0.0489
 5430TIP3    H116235   1.407   2.100   1.560  0.3853 -0.7014 -0.9009
 5430TIP3    H216236   1.528   2.041   1.630  0.2086  0.5983  0.5348
 5431TIP3   OH216237   5.957   7.619   1.158  0.0134  0.3983 -0.3531
 5431TIP3    H116238   6.010   7.697   1.146  0.9856 -0.1209  0.5007
 5431TIP3    H216239   5.875   7.651   1.195  1.0959  0.8354  1.7142
 5432TIP3   OH216240   4.112   7.295   2.407  0.6424  0.0788 -0.3209
 5432TIP3    H116241   4.067   7.215   2.432  0.4311 -0.3844 -2.0900
 5432TIP3    H216242   4.108   7.351   2.485  0.1197 -1.3232  0.6692
 5433TIP3   OH216243   5.055   7.462   1.423 -0.5972 -0.1114 -0.1974
 5433TIP3    H116244   5.078   7.497   1.509  2.9220  1.0089 -1.5149
 5433TIP3    H216245   5.042   7.368   1.438 -1.6806  0.3337  1.8128
 5434TIP3   OH216246   4.973   7.903   3.897 -0.2312  0.0920  0.0256
 5434TIP3    H116247   4.990   7.939   3.984 -0.9441 -2.8404  1.4219
 5434TIP3    H216248   4.882   7.873   3.901  0.0512 -0.9833 -1.4112
 5435TIP3   OH216249   7.845   0.233   0.297 -0.3680  0.0599  0.3120
 5435TIP3    H116250   7.757   0.219   0.262 -0.2569 -0.0006  0.0635
 5435TIP3    H216251   7.863   0.154   0.348 -1.8954  1.5305  3.3279
 5436TIP3   OH216252   5.966   0.039   3.006  0.0482 -0.1051  0.2081
 5436TIP3    H116253   5.936   0.110   3.064 -1.0602 -0.1352 -0.3244
 5436TIP3    H216254   5.900   0.034   2.938  0.5287 -1.1456 -0.1902
 5437TIP3   OH216255   4.589   7.599   3.484  0.0879 -0.5345  0.8782
 5437TIP3    H116256   4.543   7.632   3.562 -1.0750  0.2660 -0.1186
 5437TIP3    H216257   4.519   7.570   3.426  0.8708  0.1572 -0.4329
 5438TIP3   OH216258   6.113   7.367   3.187 -0.3728  0.0494  0.6418
 5438TIP3    H116259   6.196   7.416   3.188  0.1045 -0.7575  0.9707
 5438TIP3    H216260   6.102   7.337   3.277 -0.9045 -0.0573  0.5416
 5439TIP3   OH216261   2.829   6.606   0.048  0.4259  0.2470 -0.3659
 5439TIP3    H116262   2.775   6.531   0.021  1.3010 -0.4496 -0.2253
 5439TIP3    H216263   2.814   6.613   0.142  0.7199 -0.0684 -0.2930
 5440TIP3   OH216264   6.202   0.414   0.787  0.5472 -0.3758  0.2381
 5440TIP3    H116265   6.237   0.376   0.706 -0.8117 -0.5498 -0.2806
 5440TIP3    H216266   6.172   0.338   0.837  1.0180 -0.2348  0.7391
 5441TIP3   OH216267   4.251   6.690   3.021 -0.2856 -0.2644 -0.3529
 5441TIP3    H116268   4.237   6.768   2.967 -3.0248 -1.5567 -1.5754
 5441TIP3    H216269   4.296   6.723   3.099 -0.0301  2.2892 -1.5307
 5442TIP3   OH216270   4.499   4.785   5.440  0.6437 -0.0618 -0.2759
 5442TIP3    H116271   4.512   4.692   5.456  0.8729  0.1892  1.0341
 5442TIP3    H216272   4.405   4.794   5.425  0.5445 -0.4253  0.1222
 5443TIP3   OH216273   6.998   1.410   1.784  0.5197 -0.7066  0.0538
 5443TIP3    H116274   6.962   1.413   1.695 -0.4722 -1.1261  0.4372
 5443TIP3    H216275   6.972   1.324   1.817  0.4015 -0.3278  0.9502
 5444TIP3   OH216276   7.201   0.556   3.282  0.1888 -0.2522  0.1114
 5444TIP3    H116277   7.147   0.585   3.355  2.6591  2.4094  0.9392
 5444TIP3    H216278   7.263   0.494   3.321  0.2152 -0.3724 -0.1203
 5445TIP3   OH216279   0.082   0.180   2.202  0.1627  0.3065 -0.8173
 5445TIP3    H116280   0.176   0.199   2.201  0.1901  0.1946 -0.4770
 5445TIP3    H216281   0.071   0.120   2.276 -0.4539  1.7303  0.2724
 5446TIP3   OH216282   0.881   1.779   1.964  0.3206 -0.0311 -0.1434
 5446TIP3    H116283   0.794   1.742   1.952 -0.0314 -0.5563  3.3753
 5446TIP3    H216284   0.940   1.704   1.958  0.5423  0.2913 -2.3007
 5447TIP3   OH216285   8.154   0.446   1.508  0.1045 -0.2858  0.2783
 5447TIP3    H116286   8.223   0.497   1.465 -0.9935  0.3773 -0.7273
 5447TIP3    H216287   8.092   0.511   1.541 -0.3217 -0.8935  0.6907
 5448TIP3   OH216288   4.380   5.234   0.061 -0.0016  0.2893  0.5926
 5448TIP3    H116289   4.338   5.310   0.101 -0.1701  0.8923 -0.6999
 5448TIP3    H216290   4.332   5.220  -0.020  0.7157 -0.5402  0.3001
 5449TIP3   OH216291   6.592   1.209   0.737 -0.1271 -0.7816 -0.4680
 5449TIP3    H116292   6.627   1.285   0.784 -0.5783 -1.3057  0.7365
 5449TIP3    H216293   6.665   1.149   0.730 -0.0716 -0.7235 -0.3906
 5450TIP3   OH216294   5.604   6.768   1.936 -0.1248  0.2727  0.6234
 5450TIP3    H116295   5.651   6.818   2.003 -2.0098  0.3319  1.9314
 5450TIP3    H216296   5.673   6.722   1.888  1.4778  2.4446  0.7668
 5451TIP3   OH216297   6.397   7.647   2.228 -0.8500 -0.3146  0.1177
 5451TIP3    H116298   6.364   7.737   2.235 -0.5577 -0.0680 -1.5798
 5451TIP3    H216299   6.322   7.598   2.194 -0.2800 -0.2562 -1.2278
 5452TIP3   OH216300   5.495   6.550   1.157  0.6270  0.0887 -0.0844
 5452TIP3    H116301   5.588   6.528   1.160 -0.0098 -2.6325  1.6074
 5452TIP3    H216302   5.472   6.545   1.064  1.6579 -1.7153 -0.2781
 5453TIP3   OH216303   3.299   5.051   0.344 -0.2406  0.0701 -0.2408
 5453TIP3    H116304   3.277   5.056   0.436 -0.8506  0.0147 -0.3863
 5453TIP3    H216305   3.395   5.050   0.343 -0.2020  2.4827  0.2471
 5454TIP3   OH216306   5.524   7.508   1.675 -0.1770 -0.0762  0.1240
 5454TIP3    H116307   5.477   7.444   1.621  0.5475  1.1992 -2.0841
 5454TIP3    H216308   5.456   7.566   1.708 -0.6608 -1.0255  0.8107
 5455TIP3   OH216309   5.004   7.578   2.238 -0.3960 -0.2932  0.1286
 5455TIP3    H116310   4.910   7.559   2.239 -0.2478 -1.1482 -1.3254
 5455TIP3    H216311   5.035   7.549   2.324 -0.9457 -2.7843 -0.4722
 5456TIP3   OH216312   3.466   6.972   2.793 -0.1627 -0.0989  0.1774
 5456TIP3    H116313   3.408   6.904   2.826  0.6352 -0.8029  0.1291
 5456TIP3    H216314   3.551   6.952   2.832 -0.8688  3.5523  4.0193
 5457TIP3   OH216315   4.481   6.307   3.267  0.2455  0.1240 -0.3691
 5457TIP3    H116316   4.574   6.287   3.276  0.3725  0.8048 -0.2003
 5457TIP3    H216317   4.454   6.337   3.354 -0.1211 -0.0249 -0.4306
 5458TIP3   OH216318   0.821   4.699   5.399  0.4028  0.9128 -0.0588
 5458TIP3    H116319   0.886   4.639   5.361  0.2220  0.5233  0.2482
 5458TIP3    H216320   0.784   4.650   5.472  0.8811  1.7325  0.7389
 5459TIP3   OH216321   2.779   6.244   0.134 -0.5050  0.4311 -0.0637
 5459TIP3    H116322   2.846   6.244   0.065 -0.2777  0.1719  0.1560
 5459TIP3    H216323   2.825   6.212   0.212 -0.9460  0.0115  0.0255
 5460TIP3   OH216324   1.342   5.692   6.254  0.1603 -0.2021  0.0101
 5460TIP3    H116325   1.335   5.776   6.210 -2.4038 -0.4509 -0.1486
 5460TIP3    H216326   1.267   5.641   6.221 -0.1233 -1.4224  2.4254
 5461TIP3   OH216327   1.948   4.015   5.861 -0.5973  0.1375  0.0686
 5461TIP3    H116328   1.907   3.976   5.939  0.7946 -0.6943  0.3881
 5461TIP3    H216329   1.914   3.964   5.788 -0.2005 -0.4969  0.3265
 5462TIP3   OH216330   6.603   6.668   2.161  0.4708  0.0940  0.1524
 5462TIP3    H116331   6.530   6.653   2.221 -0.0913 -2.4110 -1.0743
 5462TIP3    H216332   6.681   6.641   2.210  0.3478  0.7527  0.7203
 5463TIP3   OH216333   4.178   7.058   2.022 -0.2199 -0.3981  0.3219
 5463TIP3    H116334   4.128   7.001   2.081 -0.6307  1.2543  1.5828
 5463TIP3    H216335   4.119   7.130   2.002  0.6092  0.0334 -0.5827
 5464TIP3   OH216336   2.208   4.677   6.913 -0.8234  0.4356 -0.4598
 5464TIP3    H116337   2.202   4.590   6.952 -2.8472  0.4369 -0.7044
 5464TIP3    H216338   2.170   4.667   6.826 -0.0393  1.3239 -0.9154
 5465TIP3   OH216339   3.510   6.700   1.412  0.0807  0.4279 -0.1938
 5465TIP3    H116340   3.583   6.760   1.421 -0.2140  0.7373  0.1334
 5465TIP3    H216341   3.536   6.640   1.342  0.5240  0.7122 -0.2675
 5466TIP3   OH216342   0.736   2.630   6.129 -0.7009  0.2193  0.3213
 5466TIP3    H116343   0.818   2.587   6.155 -0.6771  0.1328  0.1040
 5466TIP3    H216344   0.668   2.567   6.152 -0.8887  1.1291  2.4391
 5467TIP3   OH216345   7.962   0.368   0.496 -0.2553 -0.0659 -0.4202
 5467TIP3    H116346   7.918   0.444   0.533 -0.4718 -1.6218  2.6351
 5467TIP3    H216347   7.899   0.332   0.432 -1.1584  0.8680 -0.0561
 5468TIP3   OH216348   7.108  -0.023   1.559 -0.1672  0.6228 -0.2437
 5468TIP3    H116349   7.040   0.043   1.549  0.1913  1.1440  0.6349
 5468TIP3    H216350   7.182   0.012   1.509  0.5742  1.7134  1.5314
 5469TIP3   OH216351   1.190   5.428   6.627  0.1714 -0.1360 -0.5091
 5469TIP3    H116352   1.120   5.433   6.561 -2.1103 -0.5994  1.8036
 5469TIP3    H216353   1.268   5.458   6.581 -1.6415  0.8841 -3.0391
 5470TIP3   OH216354   5.503   6.529   1.785  0.3414  0.1257  0.5969
 5470TIP3    H116355   5.549   6.558   1.706  1.8960 -0.3929  1.3010
 5470TIP3    H216356   5.547   6.575   1.857 -1.9802  1.7043  1.0758
 5471TIP3   OH216357   4.455   6.479   1.885  0.5513  0.3082  0.3488
 5471TIP3    H116358   4.527   6.420   1.863  0.6591  0.5501  0.0441
 5471TIP3    H216359   4.409   6.493   1.802 -2.2814 -3.0082  1.2496
 5472TIP3   OH216360   5.215   7.258   1.725  0.0848  0.0697  0.0071
 5472TIP3    H116361   5.133   7.260   1.675 -0.6569  0.3141  1.2144
 5472TIP3    H216362   5.280   7.296   1.666 -0.9972  1.3647 -0.3784
 5473TIP3   OH216363   6.039   7.624   1.871  0.3637 -0.9216  0.0142
 5473TIP3    H116364   6.062   7.563   1.941  2.2123 -0.4113 -0.1193
 5473TIP3    H216365   6.013   7.568   1.798  0.9259 -1.5065  0.2608
 5474TIP3   OH216366   3.798   6.655   3.043  0.5783 -0.3569  0.2758
 5474TIP3    H116367   3.770   6.729   3.096  0.8521 -0.3815  0.4588
 5474TIP3    H216368   3.838   6.695   2.965 -0.7157 -0.3338 -0.3793
 5475TIP3   OH216369   7.565   0.490   0.085  0.2671  0.1423  1.0323
 5475TIP3    H116370   7.624   0.464   0.014 -3.2121 -1.8368 -1.2694
 5475TIP3    H216371   7.579   0.424   0.153  1.2351  0.1229  0.8220
 5476TIP3   OH216372   8.135   1.090   0.824  0.2474 -0.3042  0.1231
 5476TIP3    H116373   8.154   1.057   0.912  0.0226 -1.3620 -0.2162
 5476TIP3    H216374   8.142   1.013   0.768  1.1450  0.5202 -0.9009
 5477TIP3   OH216375   4.855   6.614   1.968  0.4282 -0.4370 -0.5166
 5477TIP3    H116376   4.912   6.552   2.015  1.5897  0.3638 -0.8567
 5477TIP3    H216377   4.772   6.610   2.015  0.6446 -1.8987 -0.2399
 5478TIP3   OH216378   6.843   1.155   1.344  0.5467 -0.1558  0.4070
 5478TIP3    H116379   6.878   1.208   1.272  0.2116 -1.0777 -0.4405
 5478TIP3    H216380   6.774   1.102   1.304  0.1634 -0.4808  1.4653
 5479TIP3   OH216381   5.197   6.733   0.747 -1.0604 -0.3544 -0.2253
 5479TIP3    H116382   5.278   6.730   0.696 -0.3515  0.8017  0.7973
 5479TIP3    H216383   5.161   6.645   0.739  0.0940 -0.7803 -1.0146
 5480TIP3   OH216384   1.557   0.096   1.145 -0.4286 -0.4845 -0.4912
 5480TIP3    H116385   1.597   0.167   1.095 -2.0465 -0.1610 -1.3675
 5480TIP3    H216386   1.557   0.127   1.236  1.1952 -0.4577 -0.4925
 5481TIP3   OH216387   0.484   1.505   0.407 -0.4503 -0.0501  0.3934
 5481TIP3    H116388   0.419   1.472   0.345  0.2789  0.5386 -0.7217
 5481TIP3    H216389   0.563   1.455   0.388  0.1931  1.1394 -0.1764
 5482TIP3   OH216390   1.193   4.065   5.092  0.3298  0.1680 -0.4162
 5482TIP3    H116391   1.102   4.059   5.122  0.1762 -0.3118 -0.9615
 5482TIP3    H216392   1.187   4.071   4.997  0.8920 -0.5529 -0.5050
 5483TIP3   OH216393   1.635   2.685   6.564 -0.0293 -0.2617  0.4111
 5483TIP3    H116394   1.577   2.612   6.546 -0.0368  0.2608 -1.8752
 5483TIP3    H216395   1.587   2.739   6.627 -1.2418 -0.7584 -0.0729
 5484TIP3   OH216396   2.003   4.138   6.501  0.0287  0.1783 -0.2135
 5484TIP3    H116397   2.008   4.234   6.511  1.6153  0.1286 -0.3675
 5484TIP3    H216398   2.011   4.124   6.407  2.9886 -0.2414  0.0508
 5485TIP3   OH216399   6.137   7.417   1.524  0.1540 -0.3217 -0.4726
 5485TIP3    H116400   6.202   7.461   1.471 -0.1669 -0.3267 -0.8687
 5485TIP3    H216401   6.056   7.465   1.509  0.4548  0.8740  1.4834
 5486TIP3   OH216402   3.810   5.343   0.922 -0.4474  0.0797 -0.1651
 5486TIP3    H116403   3.781   5.297   1.001 -0.6988  1.4033  0.5231
 5486TIP3    H216404   3.906   5.336   0.923 -0.3450  1.5151  1.1425
 5487TIP3   OH216405   2.653   3.079   6.280  0.1015 -0.1696  0.3810
 5487TIP3    H116406   2.621   3.079   6.371  0.3166  1.7133  0.4629
 5487TIP3    H216407   2.692   3.165   6.268 -2.8152  0.8357 -2.5355
 5488TIP3   OH216408   7.391   0.988   1.067  0.2703  0.1358  0.0040
 5488TIP3    H116409   7.382   0.898   1.035  0.0359 -0.1756  0.9269
 5488TIP3    H216410   7.338   0.990   1.147 -1.2218  1.5949 -0.9856
 5489TIP3   OH216411   5.383   7.203   2.039  0.1919  0.4241  0.4010
 5489TIP3    H116412   5.306   7.153   2.012  0.8848 -0.4531  0.0025
 5489TIP3    H216413   5.349   7.289   2.063 -0.9575 -0.0727  0.5944
 5490TIP3   OH216414   5.238   7.299   3.520 -0.0386  0.4206 -0.1416
 5490TIP3    H116415   5.266   7.241   3.449  0.4012  1.2956 -0.6821
 5490TIP3    H216416   5.175   7.359   3.479 -1.5402 -0.5280  0.7191
 5491TIP3   OH216417   4.774   7.815   3.392 -0.0250  0.4179  0.2672
 5491TIP3    H116418   4.757   7.757   3.466  0.1972  1.2213  0.9495
 5491TIP3    H216419   4.868   7.811   3.379  0.0155  0.7953  0.4489
 5492TIP3   OH216420   4.889   6.714   0.722  0.4394  0.4061 -0.2838
 5492TIP3    H116421   4.941   6.650   0.673  0.3433  0.0741  0.0403
 5492TIP3    H216422   4.907   6.693   0.814  0.2052  0.6813 -0.1752
 5493TIP3   OH216423   6.534   1.000   0.211 -0.6385 -0.3015 -0.5697
 5493TIP3    H116424   6.576   0.926   0.167 -2.4521 -0.6009 -1.8202
 5493TIP3    H216425   6.590   1.075   0.191  0.4739 -1.0711 -0.4073
 5494TIP3   OH216426   5.078   7.598   1.650 -0.5186  0.1791 -0.7643
 5494TIP3    H116427   5.083   7.559   1.738  0.8622 -2.6038 -2.0032
 5494TIP3    H216428   5.141   7.670   1.653 -1.7190  1.2007  1.0180
 5495TIP3   OH216429   5.880   0.835   1.924 -0.6872 -0.1365  0.3631
 5495TIP3    H116430   5.935   0.790   1.988 -0.1733  0.6254  0.4707
 5495TIP3    H216431   5.800   0.784   1.920 -1.4482  0.8014  2.9068
 5496TIP3   OH216432   7.432   6.750   2.171  0.2849 -0.5626  0.2223
 5496TIP3    H116433   7.415   6.701   2.091  0.4790 -0.8750  0.3722
 5496TIP3    H216434   7.525   6.734   2.190  0.3533 -0.1305  0.2639
 5497TIP3   OH216435   1.309   0.229   1.414 -0.4491  0.5622 -0.1561
 5497TIP3    H116436   1.396   0.190   1.412 -0.7828 -0.2737  1.3863
 5497TIP3    H216437   1.313   0.295   1.483 -0.4495  1.9474 -1.4623
 5498TIP3   OH216438   6.294   7.194   2.139 -0.7530  0.1548  0.1762
 5498TIP3    H116439   6.370   7.252   2.145 -2.4414  2.4612  0.1604
 5498TIP3    H216440   6.327   7.115   2.096  1.5837  1.1368  0.0644
 5499TIP3   OH216441   6.949   5.878   1.032 -0.1518 -0.2488 -0.1585
 5499TIP3    H116442   6.911   5.943   0.973 -1.2921  0.6121  1.4870
 5499TIP3    H216443   7.040   5.905   1.041 -0.2228  0.2036 -0.7143
 5500TIP3   OH216444   5.397   7.652   1.301  0.3610  0.1072 -0.7063
 5500TIP3    H116445   5.407   7.582   1.365 -0.4325  0.1186 -0.5736
 5500TIP3    H216446   5.377   7.608   1.219 -0.9655  0.2110 -0.4512
 5501TIP3   OH216447   5.965   4.572   3.243 -0.2757  0.4885  0.2613
 5501TIP3    H116448   5.933   4.573   3.333  0.0053  1.0907  0.3516
 5501TIP3    H216449   5.916   4.641   3.199  1.0024  1.5140  0.4307
 5502TIP3   OH216450   0.638   2.127   1.265 -0.0583  0.5858  0.0923
 5502TIP3    H116451   0.597   2.073   1.197  0.7385  1.7980 -1.3890
 5502TIP3    H216452   0.642   2.070   1.342 -1.6642 -0.5639 -0.6442
 5503TIP3   OH216453   5.138   6.862   1.191 -0.9157  0.0738  0.1248
 5503TIP3    H116454   5.145   6.784   1.246 -2.2451 -0.3979 -0.3483
 5503TIP3    H216455   5.226   6.899   1.191 -0.7425 -0.2924  2.0010
 5504TIP3   OH216456   4.738   5.953   1.447 -0.1323  0.5913 -0.6587
 5504TIP3    H116457   4.720   5.948   1.353  1.4690  0.5629 -0.9903
 5504TIP3    H216458   4.829   5.983   1.452 -1.1041  3.4678  0.9370
 5505TIP3   OH216459   3.691   7.021   2.945 -0.1874  0.0347  0.3191
 5505TIP3    H116460   3.737   6.954   2.997 -0.9147 -0.6245  0.1280
 5505TIP3    H216461   3.755   7.051   2.881 -0.3113 -1.5842 -0.5863
 5506TIP3   OH216462   6.251   7.329   1.217  0.2268  0.2921 -0.6720
 5506TIP3    H116463   6.254   7.416   1.255 -2.1412  0.5284 -0.9437
 5506TIP3    H216464   6.275   7.270   1.289  0.7609  1.0868 -0.1975
 5507TIP3   OH216465   1.218   4.397   6.348 -0.3162  0.3158 -0.1324
 5507TIP3    H116466   1.302   4.374   6.308 -0.1498  1.7546 -0.6077
 5507TIP3    H216467   1.176   4.312   6.364  1.9064 -0.4963  1.6173
 5508TIP3   OH216468   3.605   4.958   1.177 -0.9363 -0.9042  0.1936
 5508TIP3    H116469   3.636   4.867   1.177  3.1201  0.3845 -1.2734
 5508TIP3    H216470   3.604   4.982   1.270  2.7100 -1.0160  0.3393
 5509TIP3   OH216471   7.480   0.466   2.992 -0.5606 -0.1306  0.0219
 5509TIP3    H116472   7.548   0.510   3.044 -0.8807 -0.4943  0.7667
 5509TIP3    H216473   7.445   0.400   3.051 -1.7750  0.2564 -0.2469
 5510TIP3   OH216474   1.834   1.579   6.185  0.0092 -0.5521  0.1857
 5510TIP3    H116475   1.901   1.511   6.190 -0.0353 -0.4264  3.8432
 5510TIP3    H216476   1.819   1.605   6.276 -2.2251  2.1626 -0.8706
 5511TIP3   OH216477   2.857   5.065   6.042 -0.6351 -0.1016  0.1842
 5511TIP3    H116478   2.823   5.100   6.125 -0.3298 -0.3256  0.4031
 5511TIP3    H216479   2.874   5.143   5.989 -0.5656  0.0567  0.4352
 5512TIP3   OH216480   7.815   1.061   1.587  0.3700 -0.5113  0.4065
 5512TIP3    H116481   7.764   1.001   1.533  0.8803 -0.9207  0.3698
 5512TIP3    H216482   7.813   1.144   1.540 -1.0180 -0.2763  0.8658
 5513TIP3   OH216483   6.951   1.406   1.522  0.1833 -0.6549  0.5056
 5513TIP3    H116484   7.042   1.410   1.493  0.2628  1.1300  0.9425
 5513TIP3    H216485   6.906   1.473   1.470 -0.5891 -0.5480  1.2961
 5514TIP3   OH216486   2.866   4.386   6.632 -0.2386 -0.4993  0.0355
 5514TIP3    H116487   2.892   4.431   6.712  1.0136 -1.0065 -0.0805
 5514TIP3    H216488   2.847   4.296   6.659 -0.9411 -0.3812 -0.0463
 5515TIP3   OH216489   4.434   7.412   1.568  0.4884  0.2228  0.0499
 5515TIP3    H116490   4.457   7.380   1.481  3.2285  0.1119  0.7916
 5515TIP3    H216491   4.343   7.384   1.580 -0.0762  0.6592 -2.9399
 5516TIP3   OH216492   7.210   1.581   2.681 -0.0537 -0.7444  0.7185
 5516TIP3    H116493   7.272   1.638   2.727 -1.4058 -0.6442  2.4939
 5516TIP3    H216494   7.223   1.495   2.721 -1.4155 -0.6046  1.4969
 5517TIP3   OH216495   7.974   0.086   1.642 -0.0501 -0.0075  0.0688
 5517TIP3    H116496   8.001   0.120   1.557  0.4638  2.8352  1.3245
 5517TIP3    H216497   7.885   0.054   1.628 -0.0752  0.6911 -1.4664
 5518TIP3   OH216498   6.894   5.539   0.047 -0.1601  0.6283 -0.0916
 5518TIP3    H116499   6.982   5.533   0.011  1.1253  0.5991  2.8571
 5518TIP3    H216500   6.876   5.633   0.052 -0.9029  0.6003 -2.0398
 5519TIP3   OH216501   7.067   6.145   3.206  0.9462  0.8148 -0.7387
 5519TIP3    H116502   7.121   6.088   3.261  0.2551 -0.1569 -1.0542
 5519TIP3    H216503   7.100   6.233   3.223  0.2855  0.6105  1.7694
 5520TIP3   OH216504   0.832   0.194   2.418  0.4764  0.0515 -0.7470
 5520TIP3    H116505   0.814   0.200   2.512 -1.1500  0.8277 -1.0842
 5520TIP3    H216506   0.766   0.250   2.377  0.8658 -0.6420 -2.3883
 5521TIP3   OH216507   4.237   7.463   2.023  0.1656 -0.3868 -0.0134
 5521TIP3    H116508   4.333   7.473   2.021  0.3135 -1.7693 -0.0931
 5521TIP3    H216509   4.205   7.531   1.963  1.0224  0.8372  0.8903
 5522TIP3   OH216510   1.703   0.344   1.704 -0.5607 -0.1999  0.1401
 5522TIP3    H116511   1.743   0.291   1.774  0.1199 -0.0780 -0.1496
 5522TIP3    H216512   1.772   0.353   1.639 -0.8448  0.6020 -0.0555
 5523TIP3   OH216513   5.781   6.656   0.960  0.4087 -0.7389  0.3058
 5523TIP3    H116514   5.866   6.692   0.983  1.4057 -1.3918 -2.1824
 5523TIP3    H216515   5.765   6.588   1.026  0.5910  1.1088  2.3090
 5524TIP3   OH216516   4.185   5.628   1.358  0.4456 -0.1368  0.3244
 5524TIP3    H116517   4.195   5.712   1.315 -1.1032 -0.6847 -1.1816
 5524TIP3    H216518   4.110   5.587   1.314  0.1577 -1.6167  2.1088
 5525TIP3   OH216519   1.268   1.867   1.171 -0.4557 -0.0171 -0.0742
 5525TIP3    H116520   1.218   1.816   1.234  0.0582  0.5909  0.8313
 5525TIP3    H216521   1.285   1.950   1.215  0.5136  0.1486 -0.7415
 5526TIP3   OH216522   6.829   0.881   3.239 -0.0936 -0.8844  0.1323
 5526TIP3    H116523   6.873   0.924   3.165 -1.1898  0.5892  0.3082
 5526TIP3    H216524   6.762   0.826   3.200 -1.6586  1.0304  0.0570
 5527TIP3   OH216525   5.130   6.251   2.461  0.2372  0.4147  0.7279
 5527TIP3    H116526   5.123   6.206   2.377  1.8920  0.2967  0.6268
 5527TIP3    H216527   5.057   6.217   2.513 -0.9682  0.7167 -0.7595
 5528TIP3   OH216528   4.550   5.835   3.383 -0.3658 -0.2501 -0.7260
 5528TIP3    H116529   4.469   5.826   3.433 -0.4761 -0.7150 -0.9876
 5528TIP3    H216530   4.559   5.752   3.336  0.9465 -0.7615  0.3510
 5529TIP3   OH216531   1.820   3.464   6.691 -0.0827 -0.3815  0.0157
 5529TIP3    H116532   1.905   3.454   6.648  0.2673  1.1856  0.3141
 5529TIP3    H216533   1.824   3.405   6.767  1.7633  1.6524  1.5397
 5530TIP3   OH216534   1.918   3.243   6.864 -0.0268  0.1063 -0.0255
 5530TIP3    H116535   1.940   3.168   6.810 -1.0997 -0.7334  0.6781
 5530TIP3    H216536   1.972   3.232   6.943 -0.9035 -0.4679  0.5037
 5531TIP3   OH216537   3.414   4.518   6.057 -0.4301 -0.2012  0.4406
 5531TIP3    H116538   3.330   4.478   6.077 -1.4716  1.0034 -1.3480
 5531TIP3    H216539   3.419   4.516   5.961 -0.6196  4.0327  0.2704
 5532TIP3   OH216540   5.601   5.324   1.895 -0.4118 -0.0809 -0.0910
 5532TIP3    H116541   5.528   5.269   1.866  0.3541 -0.3985 -1.4506
 5532TIP3    H216542   5.638   5.360   1.814  0.8099  0.2362  0.5995
 5533TIP3   OH216543   4.930   6.346   2.045  0.3804  0.0905 -0.0683
 5533TIP3    H116544   5.006   6.344   1.987  0.6049  0.2420  0.2175
 5533TIP3    H216545   4.881   6.267   2.023  0.2937  0.3087 -0.6853
 5534TIP3   OH216546   5.065   7.434   0.793  0.0202  0.4556  0.2336
 5534TIP3    H116547   5.094   7.463   0.706 -1.3291  1.1443 -0.0115
 5534TIP3    H216548   5.096   7.502   0.853  0.5670  0.2065  0.2372
 5535TIP3   OH216549   7.501   6.482   3.534 -0.0323  0.2382 -0.2334
 5535TIP3    H116550   7.553   6.557   3.505  0.6865 -0.2755 -0.2890
 5535TIP3    H216551   7.552   6.406   3.506 -0.4683 -0.2633  0.3387
 5536TIP3   OH216552   0.644   1.748   6.355  0.3091 -0.1303  0.3668
 5536TIP3    H116553   0.687   1.665   6.377 -0.3300 -0.8650 -1.0543
 5536TIP3    H216554   0.577   1.758   6.423  1.1588 -0.1719  1.2269
 5537TIP3   OH216555   3.278   6.088   1.598  0.1481  0.1956 -0.3768
 5537TIP3    H116556   3.227   6.142   1.657 -1.2762  1.2414 -2.4944
 5537TIP3    H216557   3.364   6.081   1.639 -0.0105  3.0821  0.5041
 5538TIP3   OH216558   0.370   2.643   6.687  0.2365 -0.3631  0.0774
 5538TIP3    H116559   0.375   2.737   6.674 -3.0395  0.0339  1.3981
 5538TIP3    H216560   0.456   2.619   6.722  1.5007  1.9136 -1.3829
 5539TIP3   OH216561   3.960   4.889   1.305  0.1217  0.0844 -0.2866
 5539TIP3    H116562   3.880   4.837   1.307  1.1191 -1.4828 -0.1310
 5539TIP3    H216563   3.948   4.955   1.373 -0.8732 -0.3840 -0.0029
 5540TIP3   OH216564   2.537   4.709   0.071  0.2959 -0.0781  0.0255
 5540TIP3    H116565   2.470   4.742   0.131  0.6181  0.2895  0.1883
 5540TIP3    H216566   2.563   4.785   0.020  0.4612 -0.2591 -0.1614
 5541TIP3   OH216567   7.134   7.102   2.518  0.1072 -0.0947 -0.0354
 5541TIP3    H116568   7.131   7.194   2.493  2.4031 -0.2708 -1.0948
 5541TIP3    H216569   7.144   7.055   2.435 -3.6428 -1.5307  0.2206
 5542TIP3   OH216570   6.815   7.855   2.386  0.4451 -0.2915 -0.2286
 5542TIP3    H116571   6.741   7.795   2.378 -0.2312  0.4966  0.0030
 5542TIP3    H216572   6.855   7.856   2.299  0.3479 -0.9332 -0.2806
 5543TIP3   OH216573   3.573   4.674   6.794 -0.3735  0.0977  0.1127
 5543TIP3    H116574   3.662   4.707   6.780 -0.8871  2.4821  2.1281
 5543TIP3    H216575   3.525   4.700   6.715  0.6851 -1.2355 -0.9996
 5544TIP3   OH216576   0.405   1.551   2.076 -0.0296  0.2054  0.1182
 5544TIP3    H116577   0.392   1.486   2.007  0.4057  0.3330 -0.0916
 5544TIP3    H216578   0.319   1.588   2.092  0.2135  1.6603 -1.8403
 5545TIP3   OH216579   1.378   5.322   6.836 -0.4210  0.3715  0.0148
 5545TIP3    H116580   1.427   5.242   6.817 -0.0808  0.8079 -1.0140
 5545TIP3    H216581   1.347   5.352   6.750  0.4407  1.9593  0.2214
 5546TIP3   OH216582   0.165   0.409   3.142 -0.0884 -0.5572 -0.0301
 5546TIP3    H116583   0.258   0.431   3.128 -0.5434 -0.0852 -2.5592
 5546TIP3    H216584   0.146   0.344   3.074 -1.8833  0.1586 -0.2252
 5547TIP3   OH216585   7.937   2.233   2.092  0.6618 -0.1017  0.0745
 5547TIP3    H116586   7.921   2.140   2.108  0.5459  0.1566  1.5942
 5547TIP3    H216587   7.851   2.274   2.101  0.7600  0.1914 -0.3099
 5548TIP3   OH216588   1.473   2.651   0.334 -0.1809  0.7461 -0.1777
 5548TIP3    H116589   1.567   2.667   0.334 -0.2465  1.2472  1.9546
 5548TIP3    H216590   1.434   2.736   0.312 -0.1110  0.0337 -3.3119
 5549TIP3   OH216591   5.747   7.320   1.265 -0.4980  0.3715 -0.0377
 5549TIP3    H116592   5.823   7.343   1.212  0.0020  1.5206  1.1539
 5549TIP3    H216593   5.783   7.299   1.351 -1.2429 -2.0454 -0.2634
 5550TIP3   OH216594   0.468   0.081   4.058 -0.2490 -0.0490 -0.1081
 5550TIP3    H116595   0.474   0.134   3.978 -0.3690  1.8160  1.0965
 5550TIP3    H216596   0.376   0.088   4.084  0.4719  2.0971  2.0031
 5551TIP3   OH216597   4.414   6.934   6.610 -0.0375 -0.0825 -0.2413
 5551TIP3    H116598   4.372   6.858   6.569 -0.4577  0.1706 -0.2847
 5551TIP3    H216599   4.342   6.980   6.654 -0.3824  2.0787 -2.9545
 5552TIP3   OH216600   1.174   1.431   0.993  0.4181  0.1945  0.0781
 5552TIP3    H116601   1.191   1.474   0.909  1.6401  0.2889  0.3601
 5552TIP3    H216602   1.226   1.350   0.989  0.9612  0.4926  0.9767
 5553TIP3   OH216603   6.422   7.100   0.708  0.1251 -0.4814  0.0978
 5553TIP3    H116604   6.335   7.139   0.703  1.1414  1.8125 -0.6021
 5553TIP3    H216605   6.432   7.051   0.627  0.3064  1.0937 -0.8512
 5554TIP3   OH216606   6.040   6.531   1.195  0.4444  0.3551 -0.4307
 5554TIP3    H116607   6.038   6.626   1.185 -1.6370  0.4913  1.0589
 5554TIP3    H216608   6.091   6.517   1.275  0.1249  0.2423 -0.2485
 5555TIP3   OH216609   0.737   0.602   2.190 -0.1637  0.8739 -0.1512
 5555TIP3    H116610   0.737   0.571   2.100  0.5022  0.8329 -0.1452
 5555TIP3    H216611   0.827   0.634   2.203  0.0762 -0.1726  0.8525
 5556TIP3   OH216612   4.617   7.607   0.910 -0.4720  0.2064 -0.2875
 5556TIP3    H116613   4.586   7.656   0.833 -1.5830 -0.6226 -0.3711
 5556TIP3    H216614   4.631   7.674   0.977 -0.2183  0.8484 -0.9807
 5557TIP3   OH216615   7.063   7.332   4.571 -0.1973  0.2399  0.1873
 5557TIP3    H116616   7.027   7.411   4.613  2.1946  0.5702  1.7095
 5557TIP3    H216617   7.101   7.282   4.643 -1.1452 -2.0365 -0.8672
 5558TIP3   OH216618   5.676   7.799   1.587  0.0478 -0.9198  0.5503
 5558TIP3    H116619   5.716   7.832   1.668 -1.0287 -0.4203  0.8922
 5558TIP3    H216620   5.613   7.733   1.616 -0.4733 -0.6103  0.1402
 5559TIP3   OH216621   1.628   6.436   1.783 -0.1919 -0.0865  0.3532
 5559TIP3    H116622   1.605   6.344   1.795  1.1672 -0.3745  0.8469
 5559TIP3    H216623   1.563   6.484   1.835 -0.0028 -0.8505  1.3119
 5560TIP3   OH216624   2.816   5.211   6.611  0.4639 -0.2113 -0.1485
 5560TIP3    H116625   2.730   5.251   6.625  0.6211  0.1325 -0.1360
 5560TIP3    H216626   2.869   5.245   6.683  0.6838 -0.2034 -0.3137
 5561TIP3   OH216627   0.816   1.888   2.466 -0.5610 -0.5155  0.1555
 5561TIP3    H116628   0.802   1.970   2.513 -1.4025 -0.6104  0.0757
 5561TIP3    H216629   0.902   1.857   2.496 -1.0839 -0.5655  1.6010
 5562TIP3   OH216630   7.012   7.387   1.035  0.1126  0.1098  0.4690
 5562TIP3    H116631   7.057   7.393   1.120  1.3936  0.5239 -0.2366
 5562TIP3    H216632   7.036   7.467   0.989 -0.3812 -0.2332 -0.3853
 5563TIP3   OH216633   5.858   7.253   3.154 -0.1595  0.2060  0.0088
 5563TIP3    H116634   5.951   7.273   3.143 -0.0865 -0.3271 -0.3799
 5563TIP3    H216635   5.847   7.245   3.248 -0.0492  1.3755  0.1296
 5564TIP3   OH216636   0.393   0.038   2.410 -0.2665  0.6166 -0.0075
 5564TIP3    H116637   0.408  -0.023   2.483  0.8636  2.3212  1.2070
 5564TIP3    H216638   0.326   0.099   2.443  0.9315  1.9646 -0.0390
 5565TIP3   OH216639   2.527   0.666   2.237  0.6121 -0.5170 -0.2940
 5565TIP3    H116640   2.482   0.605   2.296  1.0184  0.4222  1.0184
 5565TIP3    H216641   2.595   0.613   2.195  0.5457 -1.1205  0.3483
 5566TIP3   OH216642   6.067   7.785   1.436 -1.0895 -0.2232 -0.4156
 5566TIP3    H116643   6.063   7.872   1.397  0.4345 -0.5442 -1.2981
 5566TIP3    H216644   6.109   7.800   1.521  1.0880 -0.3631 -1.4286
 5567TIP3   OH216645   5.472   6.570   0.871 -0.5370 -0.3843  0.6463
 5567TIP3    H116646   5.521   6.565   0.789  0.8773  0.5397  1.4081
 5567TIP3    H216647   5.465   6.664   0.888  0.7043 -0.5975  2.4580
 5568TIP3   OH216648   3.690   3.171   6.896  0.1376 -0.1120  0.5028
 5568TIP3    H116649   3.603   3.168   6.857 -0.0873 -0.4658  1.0312
 5568TIP3    H216650   3.707   3.082   6.925  0.4810  0.0567  0.8252
 5569TIP3   OH216651   5.167   6.123   1.244  0.4642  0.2874  0.2635
 5569TIP3    H116652   5.175   6.217   1.229 -0.7797  0.3159 -0.2626
 5569TIP3    H216653   5.211   6.083   1.169 -0.6821  0.4584 -0.5237
 5570TIP3   OH216654   7.069   6.487   2.851  0.3632 -0.4975 -0.4433
 5570TIP3    H116655   7.001   6.478   2.784 -0.4903  0.7549  0.2379
 5570TIP3    H216656   7.089   6.397   2.877 -1.1344 -0.8654 -0.5436
 5571TIP3   OH216657   3.645   0.709   5.810 -0.6660  0.2396  0.2023
 5571TIP3    H116658   3.652   0.658   5.891 -0.8225  1.4699  1.0020
 5571TIP3    H216659   3.708   0.780   5.822 -0.5633  0.3202 -0.8361
 5572TIP3   OH216660   6.609   6.821   1.723  0.1404  0.1805 -0.4365
 5572TIP3    H116661   6.546   6.790   1.789  0.9439  1.0411  0.7473
 5572TIP3    H216662   6.564   6.807   1.639 -1.5926  0.6680  0.3828
 5573TIP3   OH216663   5.348   7.801   1.620 -0.1679 -0.1993 -0.5747
 5573TIP3    H116664   5.318   7.857   1.692 -0.2033  0.6873 -1.2769
 5573TIP3    H216665   5.321   7.847   1.541  1.0310 -0.5357 -1.1788
 5574TIP3   OH216666   1.857   1.506   6.534  0.3995  0.2281 -0.1807
 5574TIP3    H116667   1.904   1.422   6.540 -0.7741 -0.3915  0.5431
 5574TIP3    H216668   1.784   1.488   6.475 -1.2351  0.0694  1.8303
 5575TIP3   OH216669   2.618   3.844   1.932 -0.5750  0.1489  0.0238
 5575TIP3    H116670   2.628   3.757   1.894 -1.0990  0.3332 -0.5361
 5575TIP3    H216671   2.621   3.830   2.027 -0.7174 -0.4818 -0.0677
 5576TIP3   OH216672   3.877   1.033   5.402 -0.2303 -0.0587 -0.4266
 5576TIP3    H116673   3.868   0.946   5.362  1.7792 -0.6995  0.4842
 5576TIP3    H216674   3.961   1.030   5.447 -0.5986  2.0490  0.4261
 5577TIP3   OH216675   0.968   0.732   5.773  0.6791  0.3387 -0.3835
 5577TIP3    H116676   1.014   0.804   5.729  1.0954 -0.4359 -1.2365
 5577TIP3    H216677   1.030   0.659   5.769  0.1639 -0.1375  0.2638
 5578TIP3   OH216678   1.642   1.490   5.434  0.0461  0.3998 -0.2723
 5578TIP3    H116679   1.592   1.519   5.358 -0.2329  0.5653 -0.0294
 5578TIP3    H216680   1.712   1.555   5.443  0.9750 -0.4448 -1.2725
 5579TIP3   OH216681   5.095   2.926   0.877  0.3460  0.1296 -0.4576
 5579TIP3    H116682   5.023   2.914   0.940  1.0025 -1.9818 -0.0591
 5579TIP3    H216683   5.103   2.841   0.834  0.6013  1.2590 -2.6888
 5580TIP3   OH216684   0.833   6.790   2.711  0.6712  0.3346  0.0542
 5580TIP3    H116685   0.885   6.716   2.743 -0.2068  0.4142  1.7820
 5580TIP3    H216686   0.745   6.771   2.743  0.1103  1.3176 -0.9097
 5581TIP3   OH216687   6.239   7.543   5.774 -0.3367 -0.3558 -0.3234
 5581TIP3    H116688   6.254   7.534   5.869 -1.0745  1.6814  0.0075
 5581TIP3    H216689   6.223   7.453   5.744  2.5538 -1.3751  1.0136
 5582TIP3   OH216690   2.202   1.037   5.584 -0.3030 -0.1287  0.2265
 5582TIP3    H116691   2.264   1.028   5.656  1.5414 -0.8689 -1.4277
 5582TIP3    H216692   2.145   1.109   5.611  2.2654  1.6625  1.0750
 5583TIP3   OH216693   6.804   7.730   3.868 -0.6330 -0.1225  0.0160
 5583TIP3    H116694   6.824   7.656   3.810 -0.3770 -0.0168 -0.0290
 5583TIP3    H216695   6.811   7.807   3.812  0.6335  0.0678  0.4274
 5584TIP3   OH216696   2.381   3.114   0.333  0.1713 -0.2216  0.2692
 5584TIP3    H116697   2.346   3.083   0.416  0.1773  1.2573  0.8324
 5584TIP3    H216698   2.315   3.087   0.268  0.1017 -1.2568  0.7609
 5585TIP3   OH216699   4.535   4.954   0.208  0.3998  0.8260 -0.0022
 5585TIP3    H116700   4.594   4.958   0.283  1.2504 -0.6627 -0.5683
 5585TIP3    H216701   4.593   4.957   0.132 -0.0109 -2.7450 -0.5684
 5586TIP3   OH216702   0.505   0.049   5.018 -0.3731 -0.6997 -0.0848
 5586TIP3    H116703   0.595   0.020   5.000 -0.1875  0.9685 -2.0267
 5586TIP3    H216704   0.513   0.142   5.037 -1.7561 -0.4348 -0.7587
 5587TIP3   OH216705   3.539   2.768   6.376 -0.0653  0.3403  0.0768
 5587TIP3    H116706   3.612   2.823   6.349  0.3778 -0.2526  0.0522
 5587TIP3    H216707   3.464   2.800   6.325  0.7922 -0.8614 -2.0314
 5588TIP3   OH216708   1.585   0.576   6.225  0.5265 -0.0074  0.4244
 5588TIP3    H116709   1.572   0.481   6.219 -2.8727  0.4457 -0.4377
 5588TIP3    H216710   1.569   0.597   6.317 -1.7388  0.0906  0.0293
 5589TIP3   OH216711   0.820   0.248   4.861 -0.0854  0.4968 -0.2115
 5589TIP3    H116712   0.767   0.285   4.790  0.6040  1.1460 -0.3830
 5589TIP3    H216713   0.760   0.244   4.935 -0.9530 -0.6148 -0.9482
 5590TIP3   OH216714   7.913   7.668   4.115 -0.5230 -1.1048 -0.2189
 5590TIP3    H116715   7.956   7.671   4.200  0.4483  1.8354 -0.7570
 5590TIP3    H216716   7.985   7.659   4.052 -0.9090  0.6135 -0.9369
 5591TIP3   OH216717   8.410   0.470   5.058 -0.1641 -0.5644  0.2169
 5591TIP3    H116718   8.443   0.536   4.997  0.8827 -1.4161 -0.1632
 5591TIP3    H216719   8.377   0.520   5.132  0.6562  0.3949 -0.0497
 5592TIP3   OH216720   5.186   6.572   0.059  0.2676 -0.5103  0.0129
 5592TIP3    H116721   5.270   6.535   0.034  0.5246  0.7281 -0.9805
 5592TIP3    H216722   5.126   6.546  -0.011  0.1435 -0.1806 -0.0029
 5593TIP3   OH216723   4.938   3.354   1.375  0.4819 -0.0594 -0.2000
 5593TIP3    H116724   4.877   3.304   1.321  1.4633 -0.0995 -1.2742
 5593TIP3    H216725   4.972   3.290   1.438 -0.4676 -0.0675  0.3205
 5594TIP3   OH216726   0.563   0.571   4.540 -0.3207  0.3703  0.2311
 5594TIP3    H116727   0.628   0.630   4.577 -0.7596 -0.6818  2.7697
 5594TIP3    H216728   0.492   0.569   4.605 -0.7269 -2.2041 -0.2215
 5595TIP3   OH216729   1.652   1.192   4.943 -0.1471  0.1581 -0.0414
 5595TIP3    H116730   1.732   1.233   4.910 -0.0793 -1.1894 -1.6186
 5595TIP3    H216731   1.683   1.123   5.001 -0.1780 -0.1410 -0.3822
 5596TIP3   OH216732   0.941   1.432   4.494 -0.2289 -0.1841 -0.2178
 5596TIP3    H116733   0.857   1.442   4.448 -0.7544  0.1692  0.8089
 5596TIP3    H216734   0.992   1.374   4.438 -0.4514  1.1128 -1.8057
 5597TIP3   OH216735   4.506   4.214   0.378  0.2741  0.6824  0.3000
 5597TIP3    H116736   4.556   4.134   0.360  0.4145  0.2290  2.6064
 5597TIP3    H216737   4.571   4.277   0.408  0.2150  1.8053 -1.8317
 5598TIP3   OH216738   1.102   6.631   3.802 -0.0067 -0.1330  0.6248
 5598TIP3    H116739   1.056   6.556   3.839  1.1552 -0.8096  0.7147
 5598TIP3    H216740   1.148   6.671   3.876  0.8943 -0.4470  0.2488
 5599TIP3   OH216741   1.625   1.934   5.541  0.0793  0.5352 -0.2742
 5599TIP3    H116742   1.602   1.914   5.451  0.6688 -0.4831 -0.2018
 5599TIP3    H216743   1.719   1.919   5.546 -0.0229  0.1746  0.6213
 5600TIP3   OH216744   3.261   0.164   4.444  0.1798 -0.2142  0.1196
 5600TIP3    H116745   3.171   0.191   4.461 -0.3342 -1.3434 -0.7426
 5600TIP3    H216746   3.311   0.245   4.447 -0.6218  0.2439  2.1396
 5601TIP3   OH216747   0.127   1.059   6.381  0.0292  0.2334  0.5022
 5601TIP3    H116748   0.082   1.038   6.299 -0.0402  1.5398  0.1967
 5601TIP3    H216749   0.184   0.984   6.397 -0.3703 -0.2757 -0.4559
 5602TIP3   OH216750   2.851   4.256   6.897 -0.2152  0.0129 -0.3910
 5602TIP3    H116751   2.810   4.180   6.940 -1.0930  0.8792  0.3359
 5602TIP3    H216752   2.889   4.306   6.969 -0.7414  0.9102 -0.7282
 5603TIP3   OH216753   1.076   0.683   4.121 -0.1800 -0.8740  0.3225
 5603TIP3    H116754   1.049   0.763   4.165 -1.1334 -0.6285 -0.6782
 5603TIP3    H216755   1.126   0.635   4.187 -1.8390 -0.6653  1.7614
 5604TIP3   OH216756   4.994   4.041   0.236  0.4062  0.0318  0.2350
 5604TIP3    H116757   5.045   4.080   0.165 -0.1974 -0.9037 -0.7335
 5604TIP3    H216758   5.021   3.948   0.235 -1.8690 -0.6484 -0.8154
 5605TIP3   OH216759   1.121   1.835   6.366 -0.5477  0.0304 -0.0599
 5605TIP3    H116760   1.124   1.751   6.411  0.6472  0.3548  0.4600
 5605TIP3    H216761   1.155   1.816   6.278 -0.9126 -0.1600 -0.1638
 5606TIP3   OH216762   8.322   0.208   5.091  0.0768 -0.2868 -0.1047
 5606TIP3    H116763   8.354   0.296   5.071  0.9964 -0.7953 -0.9282
 5606TIP3    H216764   8.356   0.188   5.177 -0.4700  0.3166  0.2578
 5607TIP3   OH216765   7.657   0.830   5.099  0.9769  0.2645  0.5259
 5607TIP3    H116766   7.695   0.746   5.125  0.9616 -0.5455 -1.8978
 5607TIP3    H216767   7.575   0.835   5.148  0.0582 -2.0363 -0.6862
 5608TIP3   OH216768   1.862   0.927   6.440 -0.2296  0.2459 -0.1889
 5608TIP3    H116769   1.859   0.879   6.357 -2.9094  0.7198 -0.4164
 5608TIP3    H216770   1.955   0.931   6.462  0.2304 -3.2244 -1.1986
 5609TIP3   OH216771   7.325   7.670   3.737  0.4582 -0.0579  0.1798
 5609TIP3    H116772   7.352   7.634   3.652 -3.7297  0.0954 -1.3551
 5609TIP3    H216773   7.359   7.759   3.737 -1.0591  0.5878 -2.2374
 5610TIP3   OH216774   1.377   0.468   6.559  0.1193 -0.6503  0.0415
 5610TIP3    H116775   1.363   0.507   6.645 -1.9330  0.4969 -0.7550
 5610TIP3    H216776   1.441   0.526   6.517  0.6321 -0.8401  0.5614
 5611TIP3   OH216777   6.255   7.204   4.408  0.5622  0.5133 -0.6778
 5611TIP3    H116778   6.330   7.224   4.463  0.5405 -0.4216 -0.3000
 5611TIP3    H216779   6.286   7.218   4.318  1.3681 -0.4401 -0.5553
 5612TIP3   OH216780   4.360   4.202   0.607 -0.3581  0.0882 -0.3446
 5612TIP3    H116781   4.431   4.216   0.544  0.1156  0.4685  0.2671
 5612TIP3    H216782   4.373   4.270   0.673 -0.7790 -0.3767  0.2268
 5613TIP3   OH216783   5.321   7.432   4.189 -0.7332  0.1852  0.3472
 5613TIP3    H116784   5.293   7.383   4.266 -1.4372  0.4893  0.2886
 5613TIP3    H216785   5.408   7.465   4.212  0.2076 -1.9746 -0.0246
 5614TIP3   OH216786   5.014   5.196   0.625 -0.1525 -0.4276 -0.1388
 5614TIP3    H116787   4.921   5.173   0.623 -0.1436 -0.6207  1.0464
 5614TIP3    H216788   5.049   5.163   0.542 -1.2447  0.1392 -0.8429
 5615TIP3   OH216789   8.071   1.204   2.531 -0.5453  0.0029  0.1553
 5615TIP3    H116790   8.124   1.125   2.535  0.3731  0.6383  0.6462
 5615TIP3    H216791   8.036   1.205   2.442 -0.3085 -0.7765  0.0474
 5616TIP3   OH216792   1.764   0.624   3.550  0.2279 -0.5559  0.3298
 5616TIP3    H116793   1.801   0.707   3.519  1.6906  0.0479  3.4738
 5616TIP3    H216794   1.825   0.557   3.517  0.9882 -0.0566  0.6995
 5617TIP3   OH216795   4.108   1.745   5.845  0.0899  0.6781 -0.1689
 5617TIP3    H116796   4.035   1.684   5.831  0.6512 -0.2490  0.8540
 5617TIP3    H216797   4.159   1.705   5.915  2.9374  0.0388 -2.4870
 5618TIP3   OH216798   1.696   0.149   6.877  0.2889 -0.2113 -0.2107
 5618TIP3    H116799   1.651   0.068   6.902 -0.8140  0.6574  0.6843
 5618TIP3    H216800   1.640   0.218   6.910  2.9823  0.9234  2.2538
 5619TIP3   OH216801   5.191   5.147   0.181  0.4935 -0.6007  0.0542
 5619TIP3    H116802   5.118   5.200   0.151  0.7571  0.1957  0.8063
 5619TIP3    H216803   5.177   5.139   0.276  1.8353  0.2756  0.3354
 5620TIP3   OH216804   1.535   2.739   4.721  0.7389 -0.6838 -0.2241
 5620TIP3    H116805   1.517   2.762   4.630  0.2397  0.4921  0.1626
 5620TIP3    H216806   1.527   2.644   4.723 -1.7501 -0.5300 -0.8939
 5621TIP3   OH216807   7.740   4.416   1.753  0.2364 -0.0493 -0.1300
 5621TIP3    H116808   7.764   4.355   1.684 -0.9056 -2.3810  1.4814
 5621TIP3    H216809   7.651   4.391   1.778 -0.6435  2.8834 -0.0514
 5622TIP3   OH216810   2.933   1.505   6.279 -0.3571 -0.1655 -0.3257
 5622TIP3    H116811   2.990   1.455   6.221  0.1402 -0.7902  0.7041
 5622TIP3    H216812   2.938   1.595   6.245  1.3562 -0.1850 -0.1607
 5623TIP3   OH216813   8.372   0.967   5.150  0.1522 -0.1769  0.3929
 5623TIP3    H116814   8.371   0.987   5.056 -1.0813  0.0749  0.4566
 5623TIP3    H216815   8.290   0.920   5.165  0.9184 -1.3195  1.1128
 5624TIP3   OH216816   2.172   0.773   3.978 -0.4109 -0.4168  0.3831
 5624TIP3    H116817   2.184   0.859   3.937 -1.6934  0.8500  2.5933
 5624TIP3    H216818   2.258   0.751   4.012 -0.2406  0.3387  0.4658
 5625TIP3   OH216819   1.115   0.346   6.531  0.2982  0.3863  0.0273
 5625TIP3    H116820   1.195   0.395   6.548 -0.7970  2.0763  0.3696
 5625TIP3    H216821   1.045   0.401   6.567 -1.0069 -1.1262 -0.1567
 5626TIP3   OH216822   6.097   5.022   0.146  0.1262  0.0218 -0.4560
 5626TIP3    H116823   6.182   4.989   0.176  0.6091  0.3157 -1.4754
 5626TIP3    H216824   6.100   5.011   0.051 -1.1178 -0.2817 -0.4650
 5627TIP3   OH216825   0.970   1.097   6.352  0.1506 -0.4146 -0.0024
 5627TIP3    H116826   0.935   1.072   6.437 -2.0306 -0.9762 -1.0091
 5627TIP3    H216827   1.050   1.046   6.341 -1.8448 -3.6294 -0.1103
 5628TIP3   OH216828   3.871   2.463   5.035 -0.2543  0.1167 -0.3422
 5628TIP3    H116829   3.954   2.468   4.988  0.0890  1.7331  0.4108
 5628TIP3    H216830   3.808   2.507   4.978 -0.2277  0.4455 -0.1167
 5629TIP3   OH216831   6.279   6.789   0.315 -0.4260 -0.7304 -0.1727
 5629TIP3    H116832   6.366   6.828   0.324 -0.4580 -0.1937 -1.9237
 5629TIP3    H216833   6.255   6.762   0.404  0.6254  1.0285  0.6742
 5630TIP3   OH216834   6.283   5.979   0.210 -0.3417  1.1490 -0.2126
 5630TIP3    H116835   6.230   5.937   0.278  0.2434  0.5346 -0.1353
 5630TIP3    H216836   6.286   6.071   0.236  1.4742  0.6025  1.6707
 5631TIP3   OH216837   1.330   1.603   6.339 -0.2154  0.2148 -0.1105
 5631TIP3    H116838   1.268   1.597   6.412 -0.3149 -2.2560 -0.3782
 5631TIP3    H216839   1.282   1.648   6.270 -0.9620  0.2840  0.4478
 5632TIP3   OH216840   0.453   2.448   5.734  0.7103 -0.0713 -0.3791
 5632TIP3    H116841   0.398   2.525   5.718  0.9797  0.5618  1.6153
 5632TIP3    H216842   0.527   2.481   5.784  0.8718 -1.5970  0.4402
 5633TIP3   OH216843   1.486   1.091   6.332  0.1295  0.1462  0.3198
 5633TIP3    H116844   1.575   1.126   6.340  0.0820 -0.0742  1.8956
 5633TIP3    H216845   1.497   0.996   6.335 -0.1946  0.1267  0.9403
 5634TIP3   OH216846   0.052   2.684   4.507  0.6885  0.3428 -0.1871
 5634TIP3    H116847   0.071   2.754   4.569 -0.8949  0.4446  0.2110
 5634TIP3    H216848   0.045   2.605   4.560 -2.2868  0.6917  0.0489
 5635TIP3   OH216849   0.170   0.407   5.281  0.0816 -0.8115 -0.3672
 5635TIP3    H116850   0.196   0.464   5.208  0.4736  3.2741  2.7648
 5635TIP3    H216851   0.253   0.371   5.314  0.4647  1.1696  0.9531
 5636TIP3   OH216852   4.373   6.281   1.252  0.0605 -0.2019  0.3128
 5636TIP3    H116853   4.377   6.227   1.173 -1.5246 -0.3136  0.2806
 5636TIP3    H216854   4.431   6.354   1.234 -1.3515  0.5117 -1.5526
 5637TIP3   OH216855   7.875   0.073   4.091 -0.4554  0.3353  0.2431
 5637TIP3    H116856   7.952   0.120   4.059  0.8711 -0.6488  1.9052
 5637TIP3    H216857   7.908   0.017   4.162 -2.7576  0.1564  1.2348
 5638TIP3   OH216858   2.516   0.951   6.701  0.6724  0.5910 -0.3173
 5638TIP3    H116859   2.512   0.856   6.709 -1.7506  0.6826  0.1967
 5638TIP3    H216860   2.544   0.981   6.787  1.2834  0.3653 -0.4324
 5639TIP3   OH216861   2.833   1.737   4.888  0.6670  0.0717 -0.5975
 5639TIP3    H116862   2.801   1.761   4.975  0.4069 -1.4291 -0.2672
 5639TIP3    H216863   2.768   1.773   4.827  2.1161  3.3263 -0.3701
 5640TIP3   OH216864   1.392   6.710   6.152 -0.1787  0.7024 -0.7504
 5640TIP3    H116865   1.424   6.707   6.061 -1.4622  1.8492 -1.2593
 5640TIP3    H216866   1.436   6.636   6.195 -1.0382 -1.0561 -2.8007
 5641TIP3   OH216867   4.394   1.486   5.973  0.2031  0.6894 -0.0964
 5641TIP3    H116868   4.369   1.527   6.055  0.8331  0.1190  0.3838
 5641TIP3    H216869   4.312   1.477   5.925 -0.2697  0.3549  0.7688
 5642TIP3   OH216870   3.580   1.751   6.456 -0.3450 -0.2234 -0.0416
 5642TIP3    H116871   3.516   1.693   6.497 -0.4142  0.1739  0.4144
 5642TIP3    H216872   3.547   1.839   6.474  1.7032  0.0718  2.4762
 5643TIP3   OH216873   4.395   0.617   5.548  0.3992  0.5323 -0.0254
 5643TIP3    H116874   4.425   0.645   5.635 -0.8457 -0.6245  0.7938
 5643TIP3    H216875   4.300   0.626   5.552  0.0794 -2.4750 -0.1960
 5644TIP3   OH216876   0.976   8.003   2.294 -0.3803 -0.6687 -0.4093
 5644TIP3    H116877   1.007   7.917   2.265 -0.6302 -1.4547  1.5002
 5644TIP3    H216878   0.945   7.987   2.384  1.4063  1.8211  0.7070
 5645TIP3   OH216879   3.966   5.005   1.924 -0.6446 -0.1427 -0.0433
 5645TIP3    H116880   4.029   5.019   1.995  0.4773 -0.6455 -0.9445
 5645TIP3    H216881   4.003   4.934   1.872  0.3872  2.6510 -3.2595
 5646TIP3   OH216882   3.323   0.483   5.987  0.1680  0.6480 -0.2346
 5646TIP3    H116883   3.306   0.572   6.017  0.5454  0.7015 -0.1892
 5646TIP3    H216884   3.369   0.441   6.060 -0.8524  0.1334  0.1285
 5647TIP3   OH216885   4.177   1.135   5.805 -0.3365  0.1425 -0.4218
 5647TIP3    H116886   4.225   1.164   5.883 -0.7726 -1.0919  0.3149
 5647TIP3    H216887   4.146   1.047   5.827 -1.0776  0.0679 -1.7211
 5648TIP3   OH216888   4.116   0.128   5.514 -0.7344 -0.6671 -0.4678
 5648TIP3    H116889   4.075   0.182   5.581 -1.5599 -1.8490 -0.0137
 5648TIP3    H216890   4.191   0.088   5.558  1.2366  1.8337 -1.4131
 5649TIP3   OH216891   6.848   5.746   0.303 -0.2595  0.2991 -0.0736
 5649TIP3    H116892   6.822   5.788   0.220 -1.9166  1.2714  0.8937
 5649TIP3    H216893   6.769   5.702   0.333  0.8176 -1.5114  0.1403
 5650TIP3   OH216894   3.100   6.490   4.096 -0.1609 -0.1941 -0.1587
 5650TIP3    H116895   3.070   6.544   4.023 -0.5000 -2.4839 -1.7700
 5650TIP3    H216896   3.173   6.439   4.060 -0.0789 -1.0584  1.1921
 5651TIP3   OH216897   7.811   3.589   0.129 -0.1413 -0.4994  0.5735
 5651TIP3    H116898   7.758   3.644   0.071 -1.9545 -2.0577  0.7193
 5651TIP3    H216899   7.833   3.646   0.202  0.0152  0.7271 -0.4063
 5652TIP3   OH216900   3.235   0.691   4.247 -0.2875  0.1156  0.2030
 5652TIP3    H116901   3.265   0.780   4.227 -3.5424  0.8174 -1.9293
 5652TIP3    H216902   3.279   0.636   4.182 -2.0137  0.8660 -1.6420
 5653TIP3   OH216903   1.116   7.201   3.326 -0.0997 -0.1609 -0.0549
 5653TIP3    H116904   1.066   7.239   3.253  1.9501  0.8200 -1.0015
 5653TIP3    H216905   1.114   7.268   3.394  2.1680  1.0678 -1.1262
 5654TIP3   OH216906   2.997   3.653   6.680  0.5532  0.5769  0.2780
 5654TIP3    H116907   2.978   3.717   6.611  0.4017  0.3843  0.1437
 5654TIP3    H216908   3.046   3.584   6.637  1.0021  0.7582  0.4939
 5655TIP3   OH216909   2.955   1.945   6.302  0.1717  0.0768  0.0642
 5655TIP3    H116910   3.022   1.883   6.331  0.6643  0.0213 -1.1481
 5655TIP3    H216911   2.887   1.891   6.263 -0.0249  0.2043  0.2315
 5656TIP3   OH216912   8.142   5.021   0.316 -0.1943  0.1308  0.3347
 5656TIP3    H116913   8.225   5.019   0.363 -0.3681 -0.5378  0.6164
 5656TIP3    H216914   8.150   4.951   0.251  0.2416  1.3707 -0.9698
 5657TIP3   OH216915   3.802   2.624   6.479 -0.5399  0.4523 -0.1052
 5657TIP3    H116916   3.717   2.643   6.440  0.1901  2.1071 -0.9496
 5657TIP3    H216917   3.866   2.651   6.413  0.6569 -0.6769  0.5516
 5658TIP3   OH216918   2.473   0.967   4.557 -0.6888 -0.7293  0.0001
 5658TIP3    H116919   2.498   0.993   4.645  0.6356 -1.3493 -0.1709
 5658TIP3    H216920   2.511   0.879   4.546 -0.0709 -0.3048 -1.4794
 5659TIP3   OH216921   4.892   2.232   3.326 -0.5192  0.1089  0.4259
 5659TIP3    H116922   4.878   2.327   3.336 -1.8648  0.2833 -2.5589
 5659TIP3    H216923   4.987   2.221   3.331 -0.3647  1.6050  1.0392
 5660TIP3   OH216924   4.654   2.206   5.174  0.2527 -0.1198 -0.0457
 5660TIP3    H116925   4.685   2.280   5.122 -1.1158  0.1736 -0.4381
 5660TIP3    H216926   4.601   2.154   5.114 -0.6830 -0.1985  0.8438
 5661TIP3   OH216927   4.807   0.903   5.452 -0.7989 -0.2371  0.7715
 5661TIP3    H116928   4.752   0.838   5.408 -0.0382 -0.1488 -0.3303
 5661TIP3    H216929   4.755   0.983   5.451 -1.0355 -0.3913  0.5722
 5662TIP3   OH216930   1.924   6.572   5.199 -0.3133  0.4897 -0.0705
 5662TIP3    H116931   1.831   6.576   5.177  0.3157  1.3100 -2.7593
 5662TIP3    H216932   1.954   6.489   5.161  0.1310  0.3462  0.5717
 5663TIP3   OH216933   3.964   0.089   4.799  0.2136 -0.0228  0.6461
 5663TIP3    H116934   4.024   0.051   4.864  0.1383  0.1316  0.8078
 5663TIP3    H216935   4.009   0.168   4.769  1.2140 -1.2001 -1.0565
 5664TIP3   OH216936   8.016   6.312   4.014 -0.0373  0.0195  0.0795
 5664TIP3    H116937   8.039   6.259   3.938 -1.6048  1.7784 -1.6711
 5664TIP3    H216938   8.099   6.349   4.044  0.5301 -0.3238 -1.0566
 5665TIP3   OH216939   2.595   2.176   6.252  0.0659 -1.1740 -0.0013
 5665TIP3    H116940   2.505   2.173   6.221 -0.3996 -0.7134  1.3066
 5665TIP3    H216941   2.646   2.203   6.175 -1.1508  0.5648 -0.2077
 5666TIP3   OH216942   3.033   0.520   4.644 -0.0965  0.3853 -0.0006
 5666TIP3    H116943   3.076   0.602   4.669  1.2060  0.3434 -1.9972
 5666TIP3    H216944   3.078   0.453   4.695 -0.5255  0.7860  0.9242
 5667TIP3   OH216945   4.859   1.234   6.463  0.6455  0.5373 -0.4095
 5667TIP3    H116946   4.858   1.172   6.537 -0.8567  0.1401 -0.7557
 5667TIP3    H216947   4.805   1.307   6.492 -0.4658  0.0968 -1.3529
 5668TIP3   OH216948   8.301   7.269   0.486  0.2188 -0.6074  0.6107
 5668TIP3    H116949   8.242   7.342   0.471  0.6982 -0.2283  0.5830
 5668TIP3    H216950   8.253   7.211   0.545  0.2667  0.2559  1.5046
 5669TIP3   OH216951   2.332   2.192   6.167 -0.0691  0.2778 -0.1410
 5669TIP3    H116952   2.261   2.154   6.219  0.3696  0.5675  0.6894
 5669TIP3    H216953   2.326   2.149   6.082 -0.2964 -0.8020  0.4091
 5670TIP3   OH216954   4.449   2.768   6.640 -0.0155  0.0414  1.0438
 5670TIP3    H116955   4.404   2.809   6.714 -0.7543  1.9520 -0.4200
 5670TIP3    H216956   4.381   2.715   6.597 -0.0070  0.2165  0.8117
 5671TIP3   OH216957   3.720   0.684   4.108  0.2773 -0.4120  0.0730
 5671TIP3    H116958   3.672   0.765   4.126  0.2189 -0.7733  1.5818
 5671TIP3    H216959   3.687   0.655   4.023  0.9087  1.5812 -0.8776
 5672TIP3   OH216960   2.362   1.178   5.374 -0.7981 -0.0052  0.6429
 5672TIP3    H116961   2.312   1.147   5.450  0.3177 -1.1852  0.9100
 5672TIP3    H216962   2.380   1.270   5.392  0.2552 -0.5170  2.2480
 5673TIP3   OH216963   6.349   4.342   0.042 -0.6387 -0.2496  0.1149
 5673TIP3    H116964   6.411   4.294  -0.013 -0.5417 -2.1334  1.8179
 5673TIP3    H216965   6.400   4.414   0.079 -0.1911 -0.1912 -0.6005
 5674TIP3   OH216966   3.998   0.034   6.001 -0.3165 -0.3992 -0.2252
 5674TIP3    H116967   4.084  -0.007   5.990  0.4980  1.0998  0.4006
 5674TIP3    H216968   3.941  -0.014   5.941  0.6205 -2.3611  0.4056
 5675TIP3   OH216969   3.163   3.105   6.405  0.0799  0.4288 -0.0664
 5675TIP3    H116970   3.084   3.051   6.397 -0.5339  1.4658 -1.1929
 5675TIP3    H216971   3.157   3.167   6.332  2.0441  0.3918 -0.2798
 5676TIP3   OH216972   2.696   1.860   4.584 -0.0002  0.4763  0.3544
 5676TIP3    H116973   2.691   1.765   4.576  0.9946  0.4092  0.4620
 5676TIP3    H216974   2.696   1.892   4.494  0.6668  0.3174  0.2970
 5677TIP3   OH216975   3.447   1.799   4.268  0.4510 -0.4362  0.4025
 5677TIP3    H116976   3.537   1.831   4.272  0.2276  0.3683 -0.6882
 5677TIP3    H216977   3.394   1.869   4.306  0.2108 -0.5819  0.3365
 5678TIP3   OH216978   3.660   2.887   6.719  0.1045  0.0820  0.4902
 5678TIP3    H116979   3.622   2.813   6.765  0.2620 -0.9186 -0.9691
 5678TIP3    H216980   3.584   2.938   6.689 -0.0887 -1.1423 -1.1679
 5679TIP3   OH216981   3.561   1.766   5.839 -0.0319  0.5729  0.4894
 5679TIP3    H116982   3.645   1.774   5.886  1.1009 -2.9796 -0.7333
 5679TIP3    H216983   3.498   1.744   5.908  0.8058 -0.5019  0.9330
 5680TIP3   OH216984   7.194   5.924   0.699  0.1100  0.0162 -0.6933
 5680TIP3    H116985   7.250   5.979   0.753  1.4269 -1.4370 -0.5133
 5680TIP3    H216986   7.225   5.835   0.716 -2.3760 -0.8395 -0.4887
 5681TIP3   OH216987   3.128   0.818   4.746  0.0441 -0.0096 -0.1261
 5681TIP3    H116988   3.036   0.808   4.720 -0.1290 -0.5114  0.6884
 5681TIP3    H216989   3.131   0.902   4.793  0.4886  1.2514 -2.3066
 5682TIP3   OH216990   2.023   0.815   4.257 -0.2243 -0.1559  0.1103
 5682TIP3    H116991   1.928   0.809   4.242  0.1705 -0.6497 -2.3679
 5682TIP3    H216992   2.062   0.782   4.176  2.0826  2.1503  0.2314
 5683TIP3   OH216993   1.500   0.868   6.143  0.6216 -0.7045 -0.7647
 5683TIP3    H116994   1.408   0.844   6.131  0.4673 -1.4815  1.7114
 5683TIP3    H216995   1.546   0.784   6.148  1.0573 -0.3857  0.8276
 5684TIP3   OH216996   4.398   1.663   5.176 -0.3055  0.0667  0.5148
 5684TIP3    H116997   4.444   1.747   5.164 -1.0413  0.4896  0.5963
 5684TIP3    H216998   4.460   1.597   5.146  0.2835  0.6480  0.4428
 5685TIP3   OH216999   2.546   1.567   5.189  0.8417  0.7813  0.1724
 5685TIP3    H117000   2.609   1.599   5.125  1.6397 -1.1393 -0.0385
 5685TIP3    H217001   2.586   1.587   5.274  0.5525  1.8306  0.0664
 5686TIP3   OH217002   7.804   3.198   0.248  0.5925 -0.0189  0.6474
 5686TIP3    H117003   7.779   3.233   0.162  1.0517  1.1629  0.9845
 5686TIP3    H217004   7.845   3.272   0.292 -0.8099 -0.2428  2.3786
 5687TIP3   OH217005   2.615   0.460   4.390 -0.1672 -0.5138 -0.3899
 5687TIP3    H117006   2.660   0.495   4.314 -1.8051 -1.4927 -1.8388
 5687TIP3    H217007   2.543   0.407   4.354 -0.4455 -1.6985  1.7977
 5688TIP3   OH217008   4.589   0.024   3.134  0.0551  0.1505 -0.2941
 5688TIP3    H117009   4.552   0.095   3.082 -0.2627  1.6117  1.8446
 5688TIP3    H217010   4.515  -0.009   3.186  0.7446 -0.0746  0.5526
 5689TIP3   OH217011   8.022   7.479   3.454  0.3627 -0.3967  0.0914
 5689TIP3    H117012   7.975   7.531   3.519  0.4746  1.0022 -0.9437
 5689TIP3    H217013   7.963   7.476   3.379  0.6730 -1.1586 -0.1272
 5690TIP3   OH217014   2.084   2.339   3.821 -0.1136  0.0666  0.1092
 5690TIP3    H117015   2.097   2.300   3.734  1.7211  0.9393 -0.0342
 5690TIP3    H217016   2.032   2.274   3.868 -2.1399  0.0900 -1.9968
 5691TIP3   OH217017   4.737   1.283   3.802 -0.5661  0.3679  0.4812
 5691TIP3    H117018   4.678   1.258   3.873  0.1497  1.5963  1.5174
 5691TIP3    H217019   4.825   1.278   3.840 -0.0279 -0.7386 -0.8437
 5692TIP3   OH217020   4.531   0.423   4.303  0.1244  0.2854  0.8178
 5692TIP3    H117021   4.575   0.492   4.352  0.2025  0.5182  0.4193
 5692TIP3    H217022   4.600   0.386   4.247  0.0458 -0.0093  0.9116
 5693TIP3   OH217023   0.880   4.820   6.312 -0.6484  1.0384 -0.1250
 5693TIP3    H117024   0.865   4.898   6.259 -1.3035 -0.6926 -2.5995
 5693TIP3    H217025   0.937   4.765   6.258  1.0649  0.4474  2.2228
 5694TIP3   OH217026   6.112   0.933   3.989  0.7306  0.4119  0.3203
 5694TIP3    H117027   6.043   0.986   3.950  0.2748  0.8838  1.7365
 5694TIP3    H217028   6.193   0.969   3.952  0.2426 -0.1728 -1.3823
 5695TIP3   OH217029   1.123   1.077   5.390  0.0530 -0.5113  0.2238
 5695TIP3    H117030   1.148   1.003   5.334 -0.5992 -0.8960  0.4335
 5695TIP3    H217031   1.031   1.062   5.409 -0.9957  2.1620 -2.4596
 5696TIP3   OH217032   4.523   0.610   3.926 -0.4047  0.0269 -0.5230
 5696TIP3    H117033   4.490   0.548   3.861 -0.7628  0.5411 -0.8457
 5696TIP3    H217034   4.472   0.690   3.910  1.0554  0.8679 -1.0944
 5697TIP3   OH217035   3.089   7.746   5.882 -0.1153 -0.1033 -0.1738
 5697TIP3    H117036   3.024   7.713   5.819 -0.4396 -0.4014  0.3074
 5697TIP3    H217037   3.152   7.674   5.890 -2.0473 -1.5654  2.5956
 5698TIP3   OH217038   1.130   1.310   5.558  0.3606  0.1476 -0.3536
 5698TIP3    H117039   1.138   1.228   5.509 -1.2490 -1.1137  1.4245
 5698TIP3    H217040   1.048   1.301   5.607  0.3295  2.6848  0.1349
 5699TIP3   OH217041   5.694   5.615   2.033  0.0767  0.6174  0.3920
 5699TIP3    H117042   5.614   5.571   2.007 -0.6767  1.4659  1.2350
 5699TIP3    H217043   5.755   5.599   1.961 -1.1126  0.6861 -0.6487
 5700TIP3   OH217044   8.050   7.824   2.528 -0.0454  0.2087 -0.1030
 5700TIP3    H117045   7.961   7.791   2.539 -0.9628  3.3345  2.6962
 5700TIP3    H217046   8.105   7.762   2.577 -0.6043 -1.8390 -2.0064
 5701TIP3   OH217047   5.541   0.730   5.147  0.6977  0.2689 -0.1114
 5701TIP3    H117048   5.614   0.721   5.210  1.1913 -1.1625 -0.8866
 5701TIP3    H217049   5.525   0.642   5.115  1.4842  1.1806 -3.1776
 5702TIP3   OH217050   0.473   6.980   2.688  0.1763  0.3777  0.3767
 5702TIP3    H117051   0.388   7.002   2.727 -0.1089  0.6229 -0.3707
 5702TIP3    H217052   0.492   6.892   2.722  0.2627  0.8631  1.6048
 5703TIP3   OH217053   8.369   7.467   4.266  0.4770 -0.0491 -0.2517
 5703TIP3    H117054   8.439   7.413   4.301  0.2415  1.7068  3.2355
 5703TIP3    H217055   8.413   7.538   4.220  0.9161 -0.5569 -0.6073
 5704TIP3   OH217056   3.286   7.294   5.552 -0.1127 -0.0210  0.4594
 5704TIP3    H117057   3.317   7.288   5.642  2.0123  0.4099 -0.1965
 5704TIP3    H217058   3.268   7.204   5.526  1.0413 -0.3364  0.7417
 5705TIP3   OH217059   3.962   0.212   5.133  0.0628  0.1079 -0.1370
 5705TIP3    H117060   4.047   0.176   5.109  0.0992 -0.0803  0.2764
 5705TIP3    H217061   3.900   0.141   5.117  0.0230  0.1405 -0.1306
 5706TIP3   OH217062   5.587   3.816   0.384 -0.0842  0.4456  0.2543
 5706TIP3    H117063   5.668   3.773   0.412 -0.8173 -1.4288 -0.3870
 5706TIP3    H217064   5.547   3.753   0.324 -0.9206  2.3049 -1.1736
 5707TIP3   OH217065   3.293   0.594   4.916  0.3381 -0.6800  0.1292
 5707TIP3    H117066   3.388   0.611   4.916  0.6199 -2.1507 -0.3520
 5707TIP3    H217067   3.256   0.662   4.972  1.6447  0.1101  0.0583
 5708TIP3   OH217068   3.970  -0.006   6.608 -0.3995  0.0376 -0.5345
 5708TIP3    H117069   4.062   0.018   6.606 -0.0906 -1.0467  0.2904
 5708TIP3    H217070   3.929   0.058   6.667 -0.6176  1.9315 -2.6706
 5709TIP3   OH217071   7.484   4.882   3.900 -0.4415  0.3403  0.2692
 5709TIP3    H117072   7.410   4.825   3.880  0.1783 -0.1159 -0.7883
 5709TIP3    H217073   7.561   4.830   3.878  0.2243  0.5830  1.9548
 5710TIP3   OH217074   4.433   1.227   6.643  0.0400 -0.2268 -0.2037
 5710TIP3    H117075   4.473   1.217   6.729 -0.5487  0.9781  0.2144
 5710TIP3    H217076   4.480   1.299   6.602 -0.1626 -0.3183 -0.6025
 5711TIP3   OH217077   4.144   0.322   5.298 -1.0819  0.5434  0.2185
 5711TIP3    H117078   4.071   0.291   5.245 -1.3149  0.6943  0.4512
 5711TIP3    H217079   4.139   0.270   5.378  0.2266 -0.8132 -0.5591
 5712TIP3   OH217080   3.734   1.537   6.561 -0.5896 -0.5908 -0.1954
 5712TIP3    H117081   3.712   1.548   6.653 -0.8543 -2.2432 -0.0458
 5712TIP3    H217082   3.692   1.455   6.536  3.2651 -2.5067 -0.6017
 5713TIP3   OH217083   6.595   3.645   0.140 -0.1957 -0.1808  0.0509
 5713TIP3    H117084   6.569   3.733   0.167 -0.3285 -0.0287 -0.5772
 5713TIP3    H217085   6.534   3.587   0.187 -0.2488  0.0721  0.2928
 5714TIP3   OH217086   5.593   0.458   6.883 -0.1758 -0.1491  0.1986
 5714TIP3    H117087   5.620   0.387   6.824 -0.6406  0.0750 -0.2822
 5714TIP3    H217088   5.540   0.516   6.828  0.3453  0.6617  0.5519
 5715TIP3   OH217089   0.575   7.927   4.486 -0.3358  0.6326 -0.1535
 5715TIP3    H117090   0.532   8.012   4.477 -2.8721 -0.8361 -2.7168
 5715TIP3    H217091   0.519   7.879   4.548 -0.8318 -0.2990 -1.3092
 5716TIP3   OH217092   7.448   4.003   0.926 -0.7668  0.2150 -0.1458
 5716TIP3    H117093   7.534   3.975   0.895 -1.2753 -0.8310 -0.6426
 5716TIP3    H217094   7.461   4.019   1.019 -0.3863 -1.5067  0.1284
 5717TIP3   OH217095   4.840   4.628   0.606  0.2149 -0.0670  0.1588
 5717TIP3    H117096   4.873   4.593   0.689 -1.4651 -0.7269  0.5785
 5717TIP3    H217097   4.763   4.679   0.631 -0.3067 -0.2739 -0.9959
 5718TIP3   OH217098   3.327   0.968   4.210 -0.0215  0.4086  0.3647
 5718TIP3    H117099   3.359   0.945   4.297  1.1751  1.4013  0.1978
 5718TIP3    H217100   3.265   1.039   4.226  0.2018  0.5948  0.4130
 5719TIP3   OH217101   6.061   6.391   6.281 -0.2330  0.1193 -0.1159
 5719TIP3    H117102   6.059   6.408   6.375 -1.9703 -1.8918  0.2580
 5719TIP3    H217103   6.135   6.331   6.269  0.6031  1.1513 -0.1954
 5720TIP3   OH217104   2.402   0.660   3.119 -0.3172  0.2582  0.0875
 5720TIP3    H117105   2.354   0.742   3.112  1.1049  1.0560 -0.4676
 5720TIP3    H217106   2.442   0.648   3.033  1.0757 -0.0048  0.7518
 5721TIP3   OH217107   4.482   0.411   4.726 -0.1555  0.3788 -0.2835
 5721TIP3    H117108   4.440   0.418   4.640 -1.4867 -0.6599  0.2703
 5721TIP3    H217109   4.557   0.353   4.711 -0.5549 -0.0370 -0.6955
 5722TIP3   OH217110   4.147   0.569   4.926  0.0669 -0.3115 -0.1668
 5722TIP3    H117111   4.240   0.546   4.918  0.7219  2.2382 -0.4646
 5722TIP3    H217112   4.140   0.605   5.014 -0.4764  0.2482 -0.4411
 5723TIP3   OH217113   1.137   7.610   6.521  0.0614 -0.6365 -0.2911
 5723TIP3    H117114   1.083   7.659   6.583  0.9581 -1.3802  1.0971
 5723TIP3    H217115   1.077   7.550   6.478 -0.5250 -0.2572 -0.0011
 5724TIP3   OH217116   4.054   1.172   5.570 -0.0052 -0.1193  0.0976
 5724TIP3    H117117   4.106   1.249   5.547 -0.0899  0.0199  0.3727
 5724TIP3    H217118   4.084   1.146   5.657 -1.8921  1.2723  1.2098
 5725TIP3   OH217119   7.982   3.631   1.249 -0.2469  0.0337  0.8073
 5725TIP3    H117120   8.023   3.705   1.205 -1.4665 -0.0272 -0.4547
 5725TIP3    H217121   8.002   3.645   1.342  0.8704  1.0866  0.4260
 5726TIP3   OH217122   4.115   0.767   5.614 -0.0098 -0.5226  0.3261
 5726TIP3    H117123   4.036   0.713   5.620 -1.1160  1.2444  2.6876
 5726TIP3    H217124   4.116   0.817   5.696  3.1065  0.1436 -0.0349
 5727TIP3   OH217125   4.464   0.381   6.652  0.0583 -0.0963 -0.2963
 5727TIP3    H117126   4.555   0.384   6.624 -0.3921  0.9964 -1.6966
 5727TIP3    H217127   4.430   0.468   6.631 -0.8030  0.1624  1.9699
 5728TIP3   OH217128   3.176   1.310   3.827 -0.0721  0.1508  0.3195
 5728TIP3    H117129   3.140   1.303   3.739  0.2720  0.7812  0.1289
 5728TIP3    H217130   3.235   1.235   3.835 -0.4775 -0.1878  0.2000
 5729TIP3   OH217131   3.132   1.130   5.809  0.3749  0.2036  0.0663
 5729TIP3    H117132   3.200   1.135   5.876  0.7235 -1.8777 -0.0842
 5729TIP3    H217133   3.116   1.036   5.798 -0.4025  0.5445 -2.0229
 5730TIP3   OH217134   3.657   1.785   3.899 -0.0143 -0.3159 -0.0815
 5730TIP3    H117135   3.651   1.799   3.805  0.9518  1.0964  0.0557
 5730TIP3    H217136   3.693   1.697   3.909  1.0648  0.0127 -1.0462
 5731TIP3   OH217137   2.336   7.452   3.766  0.2099  0.0269  0.1506
 5731TIP3    H117138   2.426   7.481   3.749 -0.1596  1.8403  1.1385
 5731TIP3    H217139   2.343   7.357   3.776  2.2341  0.2818  1.5134
 5732TIP3   OH217140   3.035   2.472   6.703 -0.2012 -0.3741 -0.4125
 5732TIP3    H117141   3.071   2.473   6.614  1.6835  1.8134  0.2981
 5732TIP3    H217142   3.092   2.411   6.751 -0.0159 -0.0817 -0.2591
 5733TIP3   OH217143   8.372   7.953   4.395  0.4890 -0.4258 -0.1583
 5733TIP3    H117144   8.347   8.023   4.456 -1.7646 -0.9361 -0.4497
 5733TIP3    H217145   8.400   7.881   4.452  1.3086  0.1370  0.1740
 5734TIP3   OH217146   7.393   7.990   2.307  0.0911 -0.0696  0.3041
 5734TIP3    H117147   7.423   7.900   2.313  1.2174  0.3678  1.4600
 5734TIP3    H217148   7.473   8.042   2.301 -0.5164  0.9171  0.5819
 5735TIP3   OH217149   2.392   7.021   6.544  0.1887 -0.4109 -0.1020
 5735TIP3    H117150   2.301   7.029   6.517  0.4876 -1.5549 -1.5193
 5735TIP3    H217151   2.396   6.937   6.589  0.3752  0.0367  0.7344
 5736TIP3   OH217152   3.115   2.351   5.881  0.1943  0.1829 -0.0013
 5736TIP3    H117153   3.066   2.430   5.901  0.9891  0.3021  1.5648
 5736TIP3    H217154   3.168   2.335   5.959  0.5076 -1.5416 -0.5392
 5737TIP3   OH217155   2.698   1.002   6.252  0.0877 -0.0253 -0.2533
 5737TIP3    H117156   2.651   1.074   6.293  1.1944  0.5925 -0.0331
 5737TIP3    H217157   2.657   0.923   6.287 -0.4645  0.5016  0.3011
 5738TIP3   OH217158   3.906   4.925   0.216  0.3135  0.0316  0.3313
 5738TIP3    H117159   3.884   5.006   0.171 -0.1364 -0.6632 -0.7178
 5738TIP3    H217160   3.844   4.860   0.182  2.0603 -1.2720 -0.4546
 5739TIP3   OH217161   7.796   6.707   4.871  0.4092  0.2544 -0.1380
 5739TIP3    H117162   7.718   6.660   4.840  0.5151 -0.2481  0.3559
 5739TIP3    H217163   7.761   6.772   4.933  0.5561 -1.3152  1.6442
 5740TIP3   OH217164   1.811   2.143   6.274 -0.3729 -0.6913 -0.3756
 5740TIP3    H117165   1.768   2.094   6.203  0.3627 -1.6598 -0.1715
 5740TIP3    H217166   1.895   2.099   6.285 -0.0620  0.0931  0.4195
 5741TIP3   OH217167   1.435   2.468   4.778 -0.0678 -0.6522 -0.2062
 5741TIP3    H117168   1.469   2.499   4.861  0.4929 -0.5681 -0.4647
 5741TIP3    H217169   1.442   2.373   4.783  0.3589 -0.6252 -0.3283
 5742TIP3   OH217170   3.292   1.169   5.583  0.5059  0.0976 -0.1508
 5742TIP3    H117171   3.374   1.191   5.626  0.1469 -0.2953  0.7351
 5742TIP3    H217172   3.230   1.151   5.654 -0.9128  2.3494 -0.7722
 5743TIP3   OH217173   6.609   2.406   0.582 -0.2391 -0.8845 -0.0717
 5743TIP3    H117174   6.547   2.446   0.643 -0.3145  0.0373 -0.7491
 5743TIP3    H217175   6.559   2.391   0.502 -0.0073 -1.6390 -0.0881
 5744TIP3   OH217176   0.544   7.967   3.939 -0.1444  0.2849  0.1370
 5744TIP3    H117177   0.622   8.023   3.942  0.4185 -0.4773 -0.3203
 5744TIP3    H217178   0.547   7.926   3.853 -0.8536 -0.0240  0.2607
 5745TIP3   OH217179   4.314   4.099   1.741  0.4493  0.1851 -0.7609
 5745TIP3    H117180   4.228   4.115   1.704  0.9142  2.0072 -1.0807
 5745TIP3    H217181   4.337   4.011   1.711 -0.1526  0.7385 -2.9366
 5746TIP3   OH217182   4.001   1.116   3.287 -0.1922  0.1392  0.0848
 5746TIP3    H117183   3.993   1.172   3.364 -0.6034  0.5538 -0.2500
 5746TIP3    H217184   4.086   1.075   3.295 -0.1502  0.3390  0.6591
 5747TIP3   OH217185   7.621   4.749   1.129  0.0533 -0.0987  0.2362
 5747TIP3    H117186   7.528   4.729   1.135 -0.0058  0.0309 -0.2115
 5747TIP3    H217187   7.644   4.728   1.038  0.4193  0.0438  0.2933
 5748TIP3   OH217188   0.604   2.172   3.462 -0.0256  0.0812 -0.0400
 5748TIP3    H117189   0.686   2.165   3.510  0.3198 -1.4927 -0.8190
 5748TIP3    H217190   0.537   2.148   3.526  0.3486 -1.0890 -0.0826
 5749TIP3   OH217191   5.209   4.324   0.359  1.1048 -0.7799  0.0187
 5749TIP3    H117192   5.286   4.271   0.341  0.2732 -2.6364  1.7273
 5749TIP3    H217193   5.243   4.413   0.371  2.8564 -1.4298 -0.0032
 5750TIP3   OH217194   2.058   6.850   4.870  0.3018 -0.3864 -0.2989
 5750TIP3    H117195   2.113   6.775   4.849  1.1426 -0.1725  1.0501
 5750TIP3    H217196   2.038   6.840   4.963  1.5268  1.7264  0.2259
 5751TIP3   OH217197   1.656   7.625   3.775 -0.0091  0.0535  0.1705
 5751TIP3    H117198   1.682   7.677   3.699  1.3497  1.4826  1.5784
 5751TIP3    H217199   1.673   7.681   3.850  2.6863 -2.8038  1.8544
 5752TIP3   OH217200   4.267   2.152   0.772  0.4525 -0.2491 -0.7480
 5752TIP3    H117201   4.271   2.109   0.687  1.6580 -1.1382 -0.2598
 5752TIP3    H217202   4.350   2.199   0.780  0.2830 -0.0349 -0.1343
 5753TIP3   OH217203   7.697   7.576   3.480 -0.0277 -0.3795  0.2930
 5753TIP3    H117204   7.760   7.621   3.536  2.2159 -2.5360 -0.4094
 5753TIP3    H217205   7.743   7.565   3.396 -2.0260 -0.3548 -0.8389
 5754TIP3   OH217206   4.418   0.721   5.842  0.7289  0.1277 -0.7795
 5754TIP3    H117207   4.442   0.672   5.920  0.2204  1.9848  0.5954
 5754TIP3    H217208   4.488   0.786   5.833 -0.7083  1.8077 -0.1331
 5755TIP3   OH217209   8.014   7.896   3.320  0.4381  0.0853  0.1492
 5755TIP3    H117210   7.998   7.878   3.413  1.0893 -0.3753  0.1798
 5755TIP3    H217211   8.086   7.837   3.297  0.0585 -0.0316 -0.7325
 5756TIP3   OH217212   0.864   3.074  -0.029 -0.0355  0.2650 -0.6521
 5756TIP3    H117213   0.792   3.051   0.030  0.2595  0.2878 -0.2808
 5756TIP3    H217214   0.939   3.090   0.029 -0.2865  2.3947 -0.8847
 5757TIP3   OH217215   2.301   7.165   3.806 -0.6324  0.5844  0.0750
 5757TIP3    H117216   2.227   7.104   3.816 -1.3089  1.5934  1.5332
 5757TIP3    H217217   2.365   7.135   3.871  0.1525 -0.1221 -1.0004
 5758TIP3   OH217218   3.360   1.569   6.550 -0.1731  0.0087 -0.4275
 5758TIP3    H117219   3.298   1.511   6.506  1.7024 -1.4957 -1.1133
 5758TIP3    H217220   3.334   1.565   6.642 -1.7866  0.2780 -0.8458
 5759TIP3   OH217221   3.934   0.763   6.347  0.1024 -0.1620  0.4440
 5759TIP3    H117222   3.910   0.855   6.335  0.3750 -0.0400  0.8519
 5759TIP3    H217223   4.030   0.764   6.353 -0.0378 -0.1525  3.2270
 5760TIP3   OH217224   1.838   7.962   5.054 -0.2678  0.6086 -0.2141
 5760TIP3    H117225   1.839   7.874   5.092  0.1523  1.0970  0.9426
 5760TIP3    H217226   1.914   8.006   5.093 -0.9434  1.7375 -0.1371
 5761TIP3   OH217227   1.836   7.726   5.379  0.3809  0.2320  0.0919
 5761TIP3    H117228   1.809   7.719   5.287 -1.6352  0.9105  0.6234
 5761TIP3    H217229   1.844   7.635   5.408 -0.9746  0.0162 -0.1811
 5762TIP3   OH217230   0.271   7.004   4.647 -0.0953 -0.0900 -0.0865
 5762TIP3    H117231   0.356   7.012   4.603  0.1037 -0.0361  0.3085
 5762TIP3    H217232   0.292   6.971   4.734 -0.6000 -1.4247 -0.4638
 5763TIP3   OH217233   2.329   1.643   5.016  0.3864 -0.1339  0.2999
 5763TIP3    H117234   2.384   1.617   5.090 -2.1988  1.0191  2.7239
 5763TIP3    H217235   2.326   1.738   5.020 -1.9215 -0.1634  0.3789
 5764TIP3   OH217236   1.664   2.801   3.123 -0.2804  0.0833  0.4901
 5764TIP3    H117237   1.662   2.818   3.029 -0.4592  0.1345  0.5046
 5764TIP3    H217238   1.755   2.820   3.148 -0.4175  0.7791  0.4627
 5765TIP3   OH217239   1.941   2.012   5.797  0.1967  0.3065  0.0556
 5765TIP3    H117240   1.884   2.089   5.789 -2.5754 -1.7351 -0.8589
 5765TIP3    H217241   1.932   1.985   5.888  1.1364  1.0232  0.3658
 5766TIP3   OH217242   4.157   0.480   6.171 -0.0919  0.4443 -0.0752
 5766TIP3    H117243   4.200   0.394   6.170 -1.0535 -0.0404 -0.1750
 5766TIP3    H217244   4.078   0.467   6.223  0.3695  1.5800  0.9190
 5767TIP3   OH217245   3.841   0.600   3.342  0.3935  0.0923  0.4425
 5767TIP3    H117246   3.758   0.580   3.299  0.1015 -2.8910  2.2509
 5767TIP3    H217247   3.834   0.692   3.366 -2.0018  0.1267 -0.2552
 5768TIP3   OH217248   7.945   4.142   0.475  0.1926 -0.2656  0.1832
 5768TIP3    H117249   7.983   4.091   0.403 -0.8574  1.0309 -1.3560
 5768TIP3    H217250   8.017   4.158   0.535  1.4345 -0.1542 -1.3171
 5769TIP3   OH217251   7.783   3.346   0.021  0.3090 -0.0916 -0.2068
 5769TIP3    H117252   7.800   3.428   0.068  0.3016 -0.4532  0.4279
 5769TIP3    H217253   7.824   3.358  -0.065 -1.1519  1.2510 -0.7388
 5770TIP3   OH217254   2.591   6.728   4.941 -0.1042  0.7029  0.6587
 5770TIP3    H117255   2.678   6.701   4.913 -1.0328 -1.6222 -0.1333
 5770TIP3    H217256   2.595   6.729   5.037  0.5585 -0.1721  0.6393
 5771TIP3   OH217257   8.117   3.644   0.676 -0.3668 -0.6486  0.1027
 5771TIP3    H117258   8.178   3.615   0.745 -2.6700 -0.6323  2.2295
 5771TIP3    H217259   8.051   3.575   0.673 -1.0439  0.0501 -1.1318
 5772TIP3   OH217260   5.053   0.123   6.196  0.0044  0.7317 -0.2710
 5772TIP3    H117261   5.073   0.215   6.182  1.4146  0.5208  0.2533
 5772TIP3    H217262   5.001   0.098   6.119  1.2970  1.4704 -1.4204
 5773TIP3   OH217263   3.921   1.036   6.430  0.1396 -0.3034  0.4725
 5773TIP3    H117264   3.994   1.096   6.416  0.6905 -0.8949  0.8100
 5773TIP3    H217265   3.931   1.006   6.521 -0.8143  0.0029  0.6923
 5774TIP3   OH217266   0.080   7.494   4.727  0.1486  0.4408  0.4022
 5774TIP3    H117267  -0.012   7.497   4.700  0.0392  0.3281  0.7603
 5774TIP3    H217268   0.105   7.586   4.736  0.4790  0.5043 -1.0642
 5775TIP3   OH217269   8.308   6.487   3.371 -0.1327  0.1089  0.0416
 5775TIP3    H117270   8.313   6.486   3.466  0.1883  1.1011  0.0396
 5775TIP3    H217271   8.321   6.579   3.347 -0.4942 -0.0875 -0.9406
 5776TIP3   OH217272   8.243   5.590   5.435 -0.3740 -0.1944  0.3983
 5776TIP3    H117273   8.332   5.558   5.420  0.1010  0.0848  2.4428
 5776TIP3    H217274   8.220   5.635   5.354  1.3375 -0.2740 -0.1659
 5777TIP3   OH217275   5.983   4.486   0.736  0.2125 -0.3514 -0.3260
 5777TIP3    H117276   5.899   4.460   0.774  0.2639  0.5452  0.4250
 5777TIP3    H217277   5.960   4.523   0.651 -0.3559  1.4414  0.5694
 5778TIP3   OH217278   2.483   7.974   6.780  0.0683 -0.1899 -0.0513
 5778TIP3    H117279   2.572   7.947   6.759 -0.6496 -1.6408 -1.3933
 5778TIP3    H217280   2.492   8.058   6.825  2.1619 -0.8847  0.8453
 5779TIP3   OH217281   5.196   0.489   5.950  0.7089  0.2741  0.3313
 5779TIP3    H117282   5.253   0.445   6.012  2.2749  1.9481  0.1119
 5779TIP3    H217283   5.175   0.573   5.991  1.4372  1.2356 -1.1889
 5780TIP3   OH217284   1.482   7.713   5.049 -0.0040 -0.1159  0.1469
 5780TIP3    H117285   1.502   7.622   5.070  1.3256  1.0023  4.3699
 5780TIP3    H217286   1.387   7.718   5.055  0.0672 -0.7548  2.4339
 5781TIP3   OH217287   1.649   7.482   4.902  0.2658  0.2987 -0.1374
 5781TIP3    H117288   1.721   7.422   4.885  0.6610 -0.6239  4.1878
 5781TIP3    H217289   1.572   7.438   4.865  1.0310 -1.4883  0.3394
 5782TIP3   OH217290   0.324   7.603   4.176 -0.5146 -0.2846 -0.1723
 5782TIP3    H117291   0.316   7.508   4.174 -0.7547 -0.2522 -1.0544
 5782TIP3    H217292   0.275   7.630   4.253  0.4431 -0.9537  0.6780
 5783TIP3   OH217293   3.851   5.275   0.652  0.3655 -0.2429  0.7307
 5783TIP3    H117294   3.943   5.288   0.632  0.4823 -0.7911  0.8885
 5783TIP3    H217295   3.835   5.328   0.731  0.6011 -0.3257  0.8331
 5784TIP3   OH217296   8.457   6.196   4.084 -0.1471 -0.0166 -0.3096
 5784TIP3    H117297   8.462   6.114   4.135  0.4069  0.4002  0.3151
 5784TIP3    H217298   8.487   6.172   3.997  3.7697  0.3427  0.8641
 5785TIP3   OH217299   2.159   7.284   4.463 -0.2837  0.3613 -0.0761
 5785TIP3    H117300   2.155   7.228   4.541 -0.6687  0.5972  0.0736
 5785TIP3    H217301   2.141   7.225   4.390 -1.3057  0.3937  0.1333
 5786TIP3   OH217302   3.612   4.906   1.487 -0.3255  0.5886  0.1068
 5786TIP3    H117303   3.536   4.848   1.476  0.1723 -0.1182  0.3426
 5786TIP3    H217304   3.659   4.869   1.562  0.2750  1.0056 -0.0651
 5787TIP3   OH217305   2.970   4.032   6.752  0.2478  0.6303  0.3975
 5787TIP3    H117306   3.004   4.060   6.668 -0.3054  0.7018  0.1987
 5787TIP3    H217307   2.983   4.108   6.810  0.6594  0.5674  0.3908
 5788TIP3   OH217308   6.947   2.671   0.015  0.3188 -0.2994 -0.2114
 5788TIP3    H117309   6.952   2.763   0.043 -0.4289  0.0867 -1.3456
 5788TIP3    H217310   6.872   2.636   0.062 -0.1021 -0.0205 -0.6768
 5789TIP3   OH217311   4.427   0.333   5.155  0.4218  0.6428 -0.1037
 5789TIP3    H117312   4.469   0.362   5.236  0.9332 -0.4681  0.0498
 5789TIP3    H217313   4.348   0.287   5.185  0.5373  0.3556 -0.2395
 5790TIP3   OH217314   3.870   0.750   5.387 -0.1612  0.4607 -0.1948
 5790TIP3    H117315   3.871   0.721   5.478 -0.4800 -1.5142 -0.7933
 5790TIP3    H217316   3.783   0.725   5.355 -0.8584  3.1102 -0.4336
 5791TIP3   OH217317   3.596   1.105   6.108 -0.9341  0.2855  0.0248
 5791TIP3    H117318   3.502   1.116   6.100 -1.0662  0.7227  1.8690
 5791TIP3    H217319   3.633   1.166   6.044 -1.8941 -0.2364 -1.0395
 5792TIP3   OH217320   1.090   7.780   4.743 -0.5022 -0.0417  0.1800
 5792TIP3    H117321   1.047   7.862   4.766  0.3421  0.3887  0.2530
 5792TIP3    H217322   1.144   7.802   4.668  1.5744  0.0584  1.6654
 5793TIP3   OH217323   4.345   0.285   6.096  0.1258 -0.3225 -0.6504
 5793TIP3    H117324   4.371   0.219   6.032 -0.2225 -1.0031 -0.0921
 5793TIP3    H217325   4.297   0.236   6.163  0.6830  0.3479  0.2492
 5794TIP3   OH217326   3.606   1.935   5.506 -0.0276 -0.1822  0.1643
 5794TIP3    H117327   3.597   2.001   5.437 -0.2833  0.0533  0.4187
 5794TIP3    H217328   3.579   1.980   5.586  3.0385  0.3942  0.9064
 5795TIP3   OH217329   3.069   1.019   3.365 -0.1271 -0.6536 -0.5416
 5795TIP3    H117330   3.146   1.017   3.309  0.8018  1.0257  0.6139
 5795TIP3    H217331   3.029   0.933   3.355  2.4614 -1.9058 -0.3835
 5796TIP3   OH217332   5.459   1.611   5.057  0.2765  0.3758  0.0449
 5796TIP3    H117333   5.408   1.692   5.060  0.9835  0.8668 -0.7688
 5796TIP3    H217334   5.546   1.639   5.027  1.1728 -0.3736  1.9047
 5797TIP3   OH217335   4.288   2.788   4.852 -0.2075 -0.1548 -0.3804
 5797TIP3    H117336   4.316   2.877   4.875  0.1558 -0.5869  0.8775
 5797TIP3    H217337   4.193   2.788   4.869 -0.2673  0.0966 -0.7169
 5798TIP3   OH217338   3.527   5.696   1.286 -0.8831  0.8906 -0.2726
 5798TIP3    H117339   3.441   5.699   1.246 -1.6104 -1.1009  1.0578
 5798TIP3    H217340   3.578   5.639   1.228 -0.5164  1.8554 -0.9151
 5799TIP3   OH217341   3.966   1.515   4.502 -0.5094  0.6614 -0.1848
 5799TIP3    H117342   3.986   1.601   4.539 -0.1285  0.8689 -0.8681
 5799TIP3    H217343   3.910   1.473   4.568 -0.0688  1.1327  0.4929
 5800TIP3   OH217344   1.200   1.720   6.126 -0.5820 -0.2350  0.0393
 5800TIP3    H117345   1.108   1.716   6.101 -0.6448 -0.6048  0.3174
 5800TIP3    H217346   1.248   1.706   6.044 -0.7495  1.4595 -0.3640
 5801TIP3   OH217347   2.134   5.060   1.673 -0.1679  0.3740 -0.0479
 5801TIP3    H117348   2.183   5.106   1.741 -0.2945  0.5990 -0.1075
 5801TIP3    H217349   2.146   4.967   1.693 -2.0916  0.4679  1.5961
 5802TIP3   OH217350   2.856   0.041   1.991 -0.2723 -0.0840 -0.1865
 5802TIP3    H117351   2.848  -0.020   1.918  1.4828  0.4147 -0.8276
 5802TIP3    H217352   2.911  -0.005   2.054  2.6585  1.4785 -1.4757
 5803TIP3   OH217353   6.010   1.027   5.923  0.9540 -0.2952 -0.5110
 5803TIP3    H117354   5.992   0.937   5.897  0.6334 -0.4568  0.2422
 5803TIP3    H217355   5.926   1.073   5.912  0.3036 -0.7961  1.9649
 5804TIP3   OH217356   4.815   0.763   5.827 -0.0017 -0.4402  0.7970
 5804TIP3    H117357   4.746   0.819   5.792  0.3259 -0.6769 -0.2803
 5804TIP3    H217358   4.819   0.783   5.920  0.9016  2.1987  0.2413
 5805TIP3   OH217359   5.848   1.305   4.418 -0.0852  0.3745  0.4007
 5805TIP3    H117360   5.794   1.374   4.455 -1.5283  0.6084 -2.0223
 5805TIP3    H217361   5.805   1.224   4.444  0.0617  0.4722  0.9478
 5806TIP3   OH217362   3.352   2.333   6.563 -0.2583  0.0971 -0.0670
 5806TIP3    H117363   3.291   2.405   6.551 -0.4124  0.0334  0.3261
 5806TIP3    H217364   3.349   2.313   6.657  0.6880  0.3832  0.0335
 5807TIP3   OH217365   3.920   0.343   3.370  0.1252  0.7922  0.8398
 5807TIP3    H117366   3.906   0.438   3.364  2.3584  1.2295  2.1443
 5807TIP3    H217367   3.844   0.305   3.325 -0.5722  3.1956 -0.0964
 5808TIP3   OH217368   3.977   0.068   4.334  0.5825 -0.1597  0.1712
 5808TIP3    H117369   3.883   0.053   4.346 -0.0589  1.0246 -2.8738
 5808TIP3    H217370   4.001   0.128   4.405 -1.1034  0.0235  0.6155
 5809TIP3   OH217371   3.737   1.125   4.867 -0.0390 -0.0033  0.2746
 5809TIP3    H117372   3.810   1.131   4.928  1.8029 -3.5611 -1.4256
 5809TIP3    H217373   3.662   1.104   4.923  1.1573 -0.9532  1.5650
 5810TIP3   OH217374   4.591   3.445   6.199 -0.1486  0.4486 -0.0081
 5810TIP3    H117375   4.626   3.519   6.149  0.5612  0.2439  0.1870
 5810TIP3    H217376   4.509   3.478   6.237  1.2935  1.8785  1.9675
 5811TIP3   OH217377   5.009   1.174   3.929  0.4853 -0.3117 -0.0104
 5811TIP3    H117378   5.084   1.206   3.979  0.2927 -0.1014  0.1424
 5811TIP3    H217379   5.043   1.098   3.882  1.3788  1.0039 -1.5617
 5812TIP3   OH217380   4.099   0.276   4.662 -0.4857 -0.1727  0.2691
 5812TIP3    H117381   4.193   0.260   4.676 -0.6420 -2.3658 -0.9349
 5812TIP3    H217382   4.094   0.316   4.575 -0.4941  2.3851  1.3965
 5813TIP3   OH217383   6.674   1.799   6.008  0.4967  0.0722 -0.0559
 5813TIP3    H117384   6.601   1.808   6.069  0.0394  1.4475 -0.7729
 5813TIP3    H217385   6.633   1.770   5.926  0.7839  0.5888 -0.3822
 5814TIP3   OH217386   2.234   7.345   5.638 -0.4436  0.6115  0.6550
 5814TIP3    H117387   2.237   7.254   5.668 -0.2828  0.1969 -0.6157
 5814TIP3    H217388   2.193   7.392   5.711  0.7165 -0.2415  1.8794
 5815TIP3   OH217389   2.497   7.247   6.110  0.1720  0.4447 -0.0372
 5815TIP3    H117390   2.402   7.250   6.094  0.4011  1.0970 -1.2632
 5815TIP3    H217391   2.508   7.172   6.168 -1.1552  0.6426  0.5104
 5816TIP3   OH217392   7.779   0.808   5.522  0.2562  0.1086  0.3296
 5816TIP3    H117393   7.834   0.807   5.600  1.4094  0.8604 -0.4484
 5816TIP3    H217394   7.841   0.822   5.450 -0.8304 -0.1938 -0.6793
 5817TIP3   OH217395   0.441   6.881   1.260 -0.6657  0.0531  0.1966
 5817TIP3    H117396   0.425   6.787   1.266 -0.8228  0.1294  1.0006
 5817TIP3    H217397   0.422   6.902   1.169 -0.3301 -0.7475 -0.0689
 5818TIP3   OH217398   4.686   0.085   6.389 -0.1115  0.0399 -0.0638
 5818TIP3    H117399   4.688   0.025   6.314 -1.9942  0.6255 -0.6065
 5818TIP3    H217400   4.674   0.028   6.465 -3.0286 -0.2178 -0.6891
 5819TIP3   OH217401   3.125   0.104   3.436 -0.0332  0.0943  0.3363
 5819TIP3    H117402   3.060   0.054   3.387  0.4998 -0.6721  0.4140
 5819TIP3    H217403   3.208   0.085   3.394  0.3263  0.0137  1.0775
 5820TIP3   OH217404   5.200   0.361   6.786 -0.1330 -0.3563  0.2281
 5820TIP3    H117405   5.104   0.362   6.786 -0.1322 -0.3197  0.2778
 5820TIP3    H217406   5.224   0.387   6.875 -0.0624  0.7535 -0.1105
 5821TIP3   OH217407   2.278   0.945   1.688 -0.0143  0.3933 -0.1602
 5821TIP3    H117408   2.264   1.035   1.659 -0.3937  0.5621  0.5461
 5821TIP3    H217409   2.354   0.916   1.638 -0.2918  0.8834 -0.8758
 5822TIP3   OH217410   6.420   2.640   3.121 -0.1998 -0.0194 -0.1228
 5822TIP3    H117411   6.406   2.692   3.041 -1.9477  0.6778  0.6111
 5822TIP3    H217412   6.375   2.557   3.103 -2.2796  0.8605  0.8451
 5823TIP3   OH217413   6.081   1.558   3.060 -0.1119 -0.1771  0.5827
 5823TIP3    H117414   6.076   1.513   3.145  0.4113  0.0011  0.7109
 5823TIP3    H217415   6.156   1.517   3.016 -0.2675 -0.1400  0.2840
 5824TIP3   OH217416   6.834   1.560   5.410 -0.7288  0.2639  0.2630
 5824TIP3    H117417   6.879   1.495   5.356 -0.3946  0.6269  0.1021
 5824TIP3    H217418   6.757   1.585   5.359  0.0477  1.2450 -0.4372
 5825TIP3   OH217419   6.570   1.793   6.377 -0.1837 -0.2989 -0.3546
 5825TIP3    H117420   6.533   1.848   6.308 -0.5170 -1.0806 -0.8084
 5825TIP3    H217421   6.566   1.847   6.456  1.1533  0.9949 -1.1403
 5826TIP3   OH217422   5.373   0.799   5.850 -0.1478 -0.1206  0.0793
 5826TIP3    H117423   5.330   0.723   5.812 -1.4177  0.6694 -0.1117
 5826TIP3    H217424   5.403   0.770   5.936  0.3071 -1.1280 -0.4211
 5827TIP3   OH217425   5.109   0.665   4.957 -0.2290 -0.3973 -0.2752
 5827TIP3    H117426   5.088   0.742   4.904  0.3582  0.0640  0.1537
 5827TIP3    H217427   5.204   0.654   4.947 -0.1289 -0.3592  0.6048
 5828TIP3   OH217428   3.937   1.601   2.954  0.5454  0.1823  0.2550
 5828TIP3    H117429   3.893   1.518   2.939 -0.0051  0.2026  1.6988
 5828TIP3    H217430   3.883   1.646   3.019  0.8922  1.6291 -0.4372
 5829TIP3   OH217431   6.288   1.698   2.802  0.1794  0.1525 -0.5053
 5829TIP3    H117432   6.275   1.615   2.848 -0.9101  0.6522  0.0998
 5829TIP3    H217433   6.373   1.688   2.758  1.0396 -0.4902  1.2695
 5830TIP3   OH217434   6.125   1.032   6.194 -0.8809  0.1183  0.5065
 5830TIP3    H117435   6.098   1.029   6.102 -1.5302  0.1290  0.6985
 5830TIP3    H217436   6.074   0.963   6.237 -1.4399  0.8949  1.0903
 5831TIP3   OH217437   4.383   1.240   3.463  0.0637  0.0575 -0.2192
 5831TIP3    H117438   4.376   1.335   3.474 -0.3988 -0.1710  1.7121
 5831TIP3    H217439   4.462   1.217   3.513  0.1294 -0.5753 -0.6209
 5832TIP3   OH217440   4.618   2.638   5.834 -0.0205  0.3109 -0.0123
 5832TIP3    H117441   4.604   2.550   5.867  1.3101 -0.7282 -2.1380
 5832TIP3    H217442   4.679   2.678   5.897 -0.6076 -0.2696  0.9322
 5833TIP3   OH217443   1.968   7.276   6.296 -0.5879  0.0099 -0.1216
 5833TIP3    H117444   1.929   7.361   6.276 -1.8288 -0.9372 -1.8211
 5833TIP3    H217445   1.982   7.278   6.391 -0.2707  2.2220 -0.1804
 5834TIP3   OH217446   0.155   5.060   1.061 -0.5457 -0.6508  0.7954
 5834TIP3    H117447   0.206   4.997   1.011 -0.2791  0.4558 -0.3463
 5834TIP3    H217448   0.219   5.112   1.109 -0.4385  1.6235 -1.6710
 5835TIP3   OH217449   5.325   0.528   4.756 -0.0171 -0.0160 -0.2063
 5835TIP3    H117450   5.279   0.476   4.822 -0.5081  0.1845 -0.3976
 5835TIP3    H217451   5.407   0.480   4.742 -1.4300 -1.9750 -2.0299
 5836TIP3   OH217452   3.792   0.909   3.737 -0.2736 -0.0022 -0.5666
 5836TIP3    H117453   3.784   0.938   3.646  1.2181 -0.9308 -1.0188
 5836TIP3    H217454   3.860   0.841   3.734  0.0637  0.2274  1.2973
 5837TIP3   OH217455   1.067   7.421   3.533 -0.0472  0.3472 -0.1924
 5837TIP3    H117456   1.103   7.493   3.584  0.6918 -1.3311  1.7197
 5837TIP3    H217457   0.975   7.416   3.559 -0.5371  1.6265 -1.5775
 5838TIP3   OH217458   4.500   1.290   4.540  0.4042  0.0941  0.0442
 5838TIP3    H117459   4.442   1.343   4.595  1.7433 -0.4947  2.0602
 5838TIP3    H217460   4.440   1.235   4.489 -0.8725  1.1477  0.3867
 5839TIP3   OH217461   0.105   6.910   0.103  0.4974 -0.7813 -0.2608
 5839TIP3    H117462   0.079   6.973   0.170  0.7995 -0.0937 -0.7735
 5839TIP3    H217463   0.200   6.901   0.114  0.4991 -0.9179 -0.3867
 5840TIP3   OH217464   2.201   1.020   4.459 -0.4765 -0.1785  0.5636
 5840TIP3    H117465   2.153   0.941   4.435  0.0406 -0.2584 -0.2153
 5840TIP3    H217466   2.244   0.998   4.542 -2.3461  0.1339  1.6371
 5841TIP3   OH217467   5.641   1.211   2.234 -0.2266 -0.1183 -0.2933
 5841TIP3    H117468   5.674   1.156   2.164  0.4333 -0.8093  0.5539
 5841TIP3    H217469   5.719   1.245   2.278 -0.6243 -0.4882  0.7207
 5842TIP3   OH217470   7.287   5.649   0.696 -0.2224 -0.4226  0.4443
 5842TIP3    H117471   7.309   5.644   0.603  0.3537 -2.1845  0.6644
 5842TIP3    H217472   7.209   5.596   0.706 -0.0666 -0.5431  1.0395
 5843TIP3   OH217473   0.186   5.430   5.621 -0.5548 -0.6198  0.1352
 5843TIP3    H117474   0.160   5.367   5.689  0.3069 -3.2877 -1.9050
 5843TIP3    H217475   0.162   5.387   5.539 -0.1967  1.8821 -1.3290
 5844TIP3   OH217476   4.713   2.365   5.637  0.1304  0.5866  0.0471
 5844TIP3    H117477   4.663   2.433   5.591  0.1366  1.5321  1.3919
 5844TIP3    H217478   4.792   2.410   5.666  0.2274 -0.0540  0.7885
 5845TIP3   OH217479   6.634   1.369   5.910  0.1534 -0.4876 -0.5448
 5845TIP3    H117480   6.645   1.397   5.819 -1.5980 -1.8747 -1.2123
 5845TIP3    H217481   6.598   1.446   5.954  0.4966  0.0253 -1.1548
 5846TIP3   OH217482   6.321   3.066   3.361  0.0569 -0.1303  0.4554
 5846TIP3    H117483   6.289   3.131   3.424 -0.7562  1.1421 -1.2455
 5846TIP3    H217484   6.301   3.103   3.276  1.4728 -1.6754 -0.5827
 5847TIP3   OH217485   6.582   1.908   3.890 -0.1051  0.0719 -0.0774
 5847TIP3    H117486   6.643   1.869   3.952 -1.0061 -1.4384 -0.0970
 5847TIP3    H217487   6.582   2.001   3.911  1.9647  0.0550  0.1018
 5848TIP3   OH217488   1.524   7.002   3.467 -0.3378  0.3761 -0.4267
 5848TIP3    H117489   1.581   7.077   3.451  2.8773 -2.7406 -4.7424
 5848TIP3    H217490   1.568   6.953   3.537  0.3363 -0.0468 -1.1293
 5849TIP3   OH217491   7.274   0.833   3.567 -0.2459 -0.0308 -0.2650
 5849TIP3    H117492   7.279   0.922   3.532  0.7174 -0.5548 -1.5214
 5849TIP3    H217493   7.193   0.797   3.529 -0.0781 -0.0404 -0.6191
 5850TIP3   OH217494   5.421   0.919   4.985  0.1761  0.0440 -0.1866
 5850TIP3    H117495   5.491   0.982   4.999  1.2751 -1.2434  0.1579
 5850TIP3    H217496   5.446   0.842   5.035 -0.2602 -1.3494 -2.0231
 5851TIP3   OH217497   4.076   3.270   5.226 -0.4032 -0.1446  0.6758
 5851TIP3    H117498   4.135   3.195   5.233 -0.5368 -0.3427 -0.3032
 5851TIP3    H217499   4.133   3.347   5.230  0.3079 -0.3468 -3.4437
 5852TIP3   OH217500   4.140   7.807   5.591  0.2047  0.3823  0.1638
 5852TIP3    H117501   4.092   7.759   5.523  1.1368  0.5692 -0.6363
 5852TIP3    H217502   4.144   7.897   5.558  0.1890  0.5889  0.7259
 5853TIP3   OH217503   7.502   1.518   3.790 -0.6212  0.5880 -0.2096
 5853TIP3    H117504   7.510   1.449   3.724  1.3316 -1.1378  1.7285
 5853TIP3    H217505   7.479   1.471   3.870 -4.2639  2.7640  0.1378
 5854TIP3   OH217506   4.649   0.632   4.776  0.3181 -0.5810 -0.3667
 5854TIP3    H117507   4.610   0.707   4.730  1.0421  0.3036  0.4236
 5854TIP3    H217508   4.581   0.602   4.836  1.3532  2.0953  2.3189
 5855TIP3   OH217509   6.453   0.757   4.578  0.0628 -0.5298 -0.1328
 5855TIP3    H117510   6.384   0.701   4.614 -0.0061 -0.4454 -0.1356
 5855TIP3    H217511   6.433   0.764   4.485 -0.2842  0.0162 -0.0183
 5856TIP3   OH217512   3.602   6.171   4.531 -0.4688  0.2387 -0.0861
 5856TIP3    H117513   3.531   6.195   4.471 -0.7519 -0.8040 -0.1677
 5856TIP3    H217514   3.654   6.107   4.482  0.8331  1.3819 -0.2285
 5857TIP3   OH217515   7.067   0.349   5.194  0.0710 -0.7718  0.8848
 5857TIP3    H117516   7.065   0.260   5.159 -1.2375  0.5210 -2.5790
 5857TIP3    H217517   6.976   0.370   5.213  0.2210  0.2449  0.5186
 5858TIP3   OH217518   4.859   0.513   3.579 -0.6906  0.2164  0.1677
 5858TIP3    H117519   4.858   0.534   3.485 -1.4747 -1.7010 -0.2685
 5858TIP3    H217520   4.842   0.597   3.622 -0.1400  1.1498 -1.3992
 5859TIP3   OH217521   4.818   1.667   3.813 -0.1833  0.4852 -0.0541
 5859TIP3    H117522   4.734   1.621   3.815 -0.5958  1.2409  0.3384
 5859TIP3    H217523   4.878   1.612   3.864 -0.4448 -0.0402 -0.3100
 5860TIP3   OH217524   7.757   1.351   5.937 -0.3080  0.0922 -0.3655
 5860TIP3    H117525   7.714   1.368   5.854  1.0828 -0.2361 -1.1713
 5860TIP3    H217526   7.695   1.298   5.986 -0.9517 -0.0946 -1.3742
 5861TIP3   OH217527   4.167   0.569   5.898  0.1870 -0.2414 -0.3481
 5861TIP3    H117528   4.247   0.619   5.885  1.0984 -1.4997  0.3369
 5861TIP3    H217529   4.171   0.540   5.989 -0.5428 -1.1818 -0.6111
 5862TIP3   OH217530   2.893   2.807   5.276 -0.2490  0.3433  0.1305
 5862TIP3    H117531   2.988   2.813   5.273 -0.1510 -0.9589  0.3765
 5862TIP3    H217532   2.863   2.893   5.246  0.9956  1.8357  2.9304
 5863TIP3   OH217533   4.129   1.302   3.951  0.4368 -0.4906  0.1715
 5863TIP3    H117534   4.076   1.365   3.999  0.3826 -1.0486  0.8476
 5863TIP3    H217535   4.067   1.259   3.892  0.0095 -1.5368  1.3578
 5864TIP3   OH217536   5.478   0.276   3.411  0.1432  0.3749 -1.4725
 5864TIP3    H117537   5.400   0.332   3.417 -1.0779 -1.2090 -2.3047
 5864TIP3    H217538   5.546   0.334   3.377 -0.3641  2.0692  0.3444
 5865TIP3   OH217539   6.126   0.530   3.751 -0.3626  0.0047 -0.2411
 5865TIP3    H117540   6.067   0.469   3.795  1.0020  0.6026  2.4697
 5865TIP3    H217541   6.211   0.485   3.751  0.2542  1.1684  0.2142
 5866TIP3   OH217542   0.926   6.912   5.275 -0.3503 -0.0492  0.9527
 5866TIP3    H117543   0.897   6.851   5.208 -0.4819  1.3696 -0.3040
 5866TIP3    H217544   0.848   6.932   5.326 -0.5593  0.0202  0.6025
 5867TIP3   OH217545   4.895   0.465   5.423 -0.0250  0.8522  0.1042
 5867TIP3    H117546   4.918   0.380   5.460 -4.1077  0.0570  1.0044
 5867TIP3    H217547   4.896   0.451   5.328 -0.2265 -0.0491  0.2306
 5868TIP3   OH217548   2.362   1.390   4.689 -0.1243 -0.2799  0.6212
 5868TIP3    H117549   2.326   1.361   4.606 -0.2756 -0.9022  0.9022
 5868TIP3    H217550   2.355   1.486   4.687 -1.1424 -0.3641  0.3915
 5869TIP3   OH217551   4.578   1.343   2.840  0.1375 -0.3863 -0.5466
 5869TIP3    H117552   4.522   1.267   2.858  0.4470 -0.7110 -0.9491
 5869TIP3    H217553   4.618   1.324   2.755 -2.6598  1.9399 -2.4642
 5870TIP3   OH217554   5.075   7.485   6.596  0.5388  0.1906  0.5210
 5870TIP3    H117555   5.062   7.532   6.679 -0.8928  1.7483 -0.5420
 5870TIP3    H217556   4.991   7.493   6.551  1.1528 -1.0505 -0.8996
 5871TIP3   OH217557   4.482   0.160   2.253 -0.5869  0.0255  0.1111
 5871TIP3    H117558   4.526   0.084   2.215 -0.3728  0.0692  0.2753
 5871TIP3    H217559   4.543   0.232   2.241 -0.1077 -0.1613  1.4246
 5872TIP3   OH217560   5.231   0.168   5.411  0.1788 -0.0526 -0.6557
 5872TIP3    H117561   5.154   0.181   5.465  1.3370 -0.2299  1.0855
 5872TIP3    H217562   5.275   0.253   5.410  1.2553 -0.5751  0.4518
 5873TIP3   OH217563   5.506   0.784   3.877  0.3718 -0.3425  0.0687
 5873TIP3    H117564   5.525   0.830   3.959  1.4349 -1.8859  0.7002
 5873TIP3    H217565   5.422   0.740   3.894  0.0422  0.2274 -0.0622
 5874TIP3   OH217566   3.843   1.500   4.997  0.3108 -0.1177 -0.1241
 5874TIP3    H117567   3.853   1.593   5.014 -0.3486  0.2599 -1.7499
 5874TIP3    H217568   3.849   1.459   5.084 -0.4004  1.5105  0.7065
 5875TIP3   OH217569   5.544   0.267   2.157  0.1345  0.5067  0.1566
 5875TIP3    H117570   5.478   0.334   2.168 -0.8299 -0.3500 -0.3201
 5875TIP3    H217571   5.542   0.218   2.239 -1.0364 -0.5705 -0.4935
 5876TIP3   OH217572   0.071   4.813   0.017 -0.1389 -0.8796  0.0812
 5876TIP3    H117573   0.001   4.783   0.075  1.1204 -0.2100  2.0207
 5876TIP3    H217574   0.042   4.898  -0.015 -0.1955 -0.5630  0.9516
 5877TIP3   OH217575   3.932   0.459   6.352  0.0600  0.5084  0.1118
 5877TIP3    H117576   3.916   0.371   6.387 -0.5262  0.6018  0.0898
 5877TIP3    H217577   3.963   0.510   6.427  1.5710 -0.0285 -0.1435
 5878TIP3   OH217578   5.240   2.427   4.395 -0.4017 -0.1475  0.0430
 5878TIP3    H117579   5.160   2.471   4.367 -0.6407 -0.3520  0.3927
 5878TIP3    H217580   5.244   2.442   4.490 -0.3285 -0.6235  0.1188
 5879TIP3   OH217581   5.791   1.051   5.606 -0.0719  0.4308  0.1173
 5879TIP3    H117582   5.709   1.005   5.588 -1.2433  1.6238  2.1798
 5879TIP3    H217583   5.783   1.133   5.558  0.8859 -0.3673 -1.4421
 5880TIP3   OH217584   4.599   8.025   6.450 -0.1727  0.6438 -0.0502
 5880TIP3    H117585   4.679   8.006   6.402 -0.9730  1.4706 -1.7435
 5880TIP3    H217586   4.535   7.961   6.417 -0.3558  0.2826  0.9629
 5881TIP3   OH217587   6.588   0.789   3.799  0.2363  0.3813  0.0413
 5881TIP3    H117588   6.682   0.806   3.805 -0.0394  2.1405 -0.1402
 5881TIP3    H217589   6.573   0.714   3.855  1.2204  2.2114  2.8448
 5882TIP3   OH217590   2.244   1.198   4.847  0.8498  0.1262  0.5401
 5882TIP3    H117591   2.280   1.278   4.807 -0.9792  0.7242 -0.0083
 5882TIP3    H217592   2.231   1.221   4.939  0.6403  0.3691  0.4519
 5883TIP3   OH217593   3.852   2.813   2.141  0.0322 -0.5183 -0.1304
 5883TIP3    H117594   3.777   2.870   2.128 -0.5755 -1.1319  0.6297
 5883TIP3    H217595   3.818   2.725   2.124  0.7161 -0.7418 -0.3482
 5884TIP3   OH217596   5.070   0.736   3.088 -0.3706  0.0613  0.7510
 5884TIP3    H117597   5.127   0.665   3.117  0.4097  0.4969  0.2797
 5884TIP3    H217598   5.123   0.788   3.028 -0.2562  2.1961  2.6243
 5885TIP3   OH217599   2.744   7.678   4.573  0.1773 -0.2137 -0.1064
 5885TIP3    H117600   2.693   7.692   4.493 -0.0423 -0.8551 -0.0854
 5885TIP3    H217601   2.680   7.646   4.637  0.3216  0.4659  0.3764
 5886TIP3   OH217602   4.646   1.480   2.313  0.1942  0.8022  0.1820
 5886TIP3    H117603   4.560   1.517   2.291 -0.3285  0.4653  1.6296
 5886TIP3    H217604   4.703   1.556   2.322 -0.0162  1.0478 -0.4772
 5887TIP3   OH217605   1.844   0.447   3.843  0.1905 -0.4024  0.3262
 5887TIP3    H117606   1.879   0.528   3.805  0.7796 -0.5594  0.5225
 5887TIP3    H217607   1.916   0.413   3.896  0.3488 -1.6574 -0.6799
 5888TIP3   OH217608   5.189   2.170   3.935 -0.3307  0.3793 -0.3663
 5888TIP3    H117609   5.095   2.174   3.916 -0.0953  0.1713 -1.6246
 5888TIP3    H217610   5.230   2.218   3.862  0.5533  0.2510  0.0449
 5889TIP3   OH217611   5.038   1.068   2.201 -0.4129  0.2035 -0.2312
 5889TIP3    H117612   4.980   1.144   2.207 -0.1634  0.4227 -0.5512
 5889TIP3    H217613   5.053   1.042   2.292 -0.1099  0.8317 -0.0991
 5890TIP3   OH217614   2.937   7.645   6.918 -0.4045 -0.2512 -0.4118
 5890TIP3    H117615   2.867   7.637   6.982 -0.7965 -0.3560 -0.8519
 5890TIP3    H217616   2.909   7.715   6.860  0.6170  0.8131  0.3687
 5891TIP3   OH217617   3.134   7.882   2.656  0.2888  0.1230  0.6203
 5891TIP3    H117618   3.197   7.858   2.588  0.4715  2.9222 -0.2419
 5891TIP3    H217619   3.186   7.885   2.737  1.0816  1.5024  0.0690
 5892TIP3   OH217620   3.395   0.076   1.892  0.5985 -0.1849 -0.0851
 5892TIP3    H117621   3.481   0.119   1.901  0.0998  0.7026  0.5429
 5892TIP3    H217622   3.340   0.142   1.850 -0.0631 -0.3768  0.4847
 5893TIP3   OH217623   4.745   2.977   6.770  0.0827  0.5888  0.0578
 5893TIP3    H117624   4.808   2.907   6.751 -0.0761  0.0912  1.3203
 5893TIP3    H217625   4.751   3.036   6.694  1.9491  0.4627  0.0873
 5894TIP3   OH217626   4.510   0.798   2.858 -0.2009 -0.8030 -0.0760
 5894TIP3    H117627   4.525   0.816   2.951 -1.7954 -0.1302  0.0718
 5894TIP3    H217628   4.523   0.704   2.849  0.8608 -0.7333  0.6430
 5895TIP3   OH217629   5.545   1.312   5.799 -0.5612 -0.0858 -0.2597
 5895TIP3    H117630   5.460   1.284   5.767 -0.5956 -0.2758 -0.0048
 5895TIP3    H217631   5.552   1.404   5.774 -0.8634 -0.0567 -0.2322
 5896TIP3   OH217632   6.277   1.509   4.737  0.5861  0.0960 -0.1371
 5896TIP3    H117633   6.249   1.417   4.730  0.7482  0.0959 -0.7760
 5896TIP3    H217634   6.368   1.504   4.766  0.4699  0.0650  0.2293
 5897TIP3   OH217635   4.360   0.239   3.186 -0.1988  0.2047  0.3164
 5897TIP3    H117636   4.384   0.325   3.152 -0.7114  0.2584  0.0909
 5897TIP3    H217637   4.422   0.223   3.257  1.1541 -0.0884 -0.8919
 5898TIP3   OH217638   6.430   1.661   4.218  0.2006 -0.3648  0.6282
 5898TIP3    H117639   6.335   1.673   4.210  0.4257  0.0598 -2.2441
 5898TIP3    H217640   6.444   1.567   4.210  0.0709 -0.3270 -0.1412
 5899TIP3   OH217641   7.615   1.853   6.249  0.4380  0.5600  0.3380
 5899TIP3    H117642   7.583   1.942   6.265 -1.4212  0.3420 -1.7782
 5899TIP3    H217643   7.700   1.849   6.292  0.0771  3.0314  1.3420
 5900TIP3   OH217644   4.241   1.784   2.619 -0.1113  0.0345 -0.1876
 5900TIP3    H117645   4.290   1.850   2.570 -0.1854  0.3789  0.2045
 5900TIP3    H217646   4.264   1.701   2.576  2.8922 -0.1365  1.5964
 5901TIP3   OH217647   1.330   6.246   0.094  0.0752  0.3262 -0.5163
 5901TIP3    H117648   1.340   6.174   0.157  0.8013 -0.0608 -1.0660
 5901TIP3    H217649   1.245   6.230   0.053  1.7299 -2.2129 -3.1102
 5902TIP3   OH217650   4.666   0.738   3.311 -0.1028 -0.1476  0.2934
 5902TIP3    H117651   4.629   0.747   3.398 -0.2938 -0.6448  0.2620
 5902TIP3    H217652   4.726   0.813   3.303  1.1880 -1.0429  1.4693
 5903TIP3   OH217653   5.885   0.661   5.565  0.3908 -0.1956 -0.3633
 5903TIP3    H117654   5.943   0.588   5.542 -0.9900 -0.4055 -3.4107
 5903TIP3    H217655   5.808   0.619   5.602  0.7760 -0.1005  0.5607
 5904TIP3   OH217656   5.833   1.196   5.822 -0.4793 -0.0252  0.9537
 5904TIP3    H117657   5.825   1.117   5.769 -0.5493 -0.5955  1.8036
 5904TIP3    H217658   5.744   1.231   5.828 -0.1457  1.3101 -1.1925
 5905TIP3   OH217659   4.478   0.676   6.875  0.3770 -0.2833  0.3973
 5905TIP3    H117660   4.525   0.593   6.863  0.7452  0.1307 -1.1562
 5905TIP3    H217661   4.452   0.676   6.968  2.1462 -1.1962  0.9095
 5906TIP3   OH217662   7.159   6.356   0.783 -0.1354 -0.0864  0.3480
 5906TIP3    H117663   7.148   6.414   0.858 -0.9984 -0.3857  0.4560
 5906TIP3    H217664   7.070   6.340   0.752  0.1613 -0.6415 -0.2259
 5907TIP3   OH217665   6.235   1.480   5.141  0.0685 -0.2517 -0.2986
 5907TIP3    H117666   6.220   1.575   5.142 -0.4122 -0.2667 -3.1559
 5907TIP3    H217667   6.316   1.469   5.092  0.9241 -1.2547  1.3035
 5908TIP3   OH217668   4.578   0.901   3.100  0.2643  0.1726 -0.1380
 5908TIP3    H117669   4.653   0.943   3.140  1.5942 -1.4618 -0.8453
 5908TIP3    H217670   4.524   0.872   3.174  2.3301 -2.1611  0.5294
 5909TIP3   OH217671   4.715   1.830   4.459 -0.3171  0.0962 -0.4945
 5909TIP3    H117672   4.634   1.872   4.429  0.7157  2.8395  0.4420
 5909TIP3    H217673   4.771   1.828   4.381  0.0187  1.4345 -0.2934
 5910TIP3   OH217674   6.659   1.538   0.696 -0.2259 -0.1612 -0.8783
 5910TIP3    H117675   6.592   1.501   0.753  0.2993  0.2428  0.0159
 5910TIP3    H217676   6.617   1.613   0.655 -0.7976 -0.8080 -1.4987
 5911TIP3   OH217677   7.760   5.395   0.665 -0.4078  0.1550 -0.4781
 5911TIP3    H117678   7.674   5.378   0.626 -0.7379 -1.2103  0.7886
 5911TIP3    H217679   7.742   5.405   0.759  0.4630  2.6773 -0.5611
 5912TIP3   OH217680   3.210   7.546   4.658  0.1021 -0.3795 -0.0675
 5912TIP3    H117681   3.177   7.461   4.631 -2.1874  0.7232 -0.8415
 5912TIP3    H217682   3.183   7.606   4.588  2.4133  0.8512  0.0310
 5913TIP3   OH217683   4.013   0.921   4.579  0.8198 -0.0810 -0.5535
 5913TIP3    H117684   4.101   0.954   4.564  0.5917  1.6042  1.6079
 5913TIP3    H217685   3.960   0.964   4.512  1.4725 -0.5022 -1.3594
 5914TIP3   OH217686   2.812   1.570   3.118  0.1744 -0.4095 -0.3755
 5914TIP3    H117687   2.871   1.645   3.126 -0.5489  0.0591  0.7102
 5914TIP3    H217688   2.724   1.608   3.128 -0.1925 -1.4173  0.2981
 5915TIP3   OH217689   7.710   5.798   0.396 -0.3774 -0.2416  0.4514
 5915TIP3    H117690   7.622   5.776   0.367 -0.1904 -0.6731  0.2032
 5915TIP3    H217691   7.712   5.772   0.489 -0.4714 -0.3503  0.4225
 5916TIP3   OH217692   1.623   6.591   6.670 -0.2889 -0.6537  0.0732
 5916TIP3    H117693   1.684   6.556   6.605  1.1691  0.0735  1.0139
 5916TIP3    H217694   1.625   6.686   6.657 -1.5105 -0.6534 -0.1333
 5917TIP3   OH217695   5.605   1.925   3.708  0.0577 -0.8583  0.0072
 5917TIP3    H117696   5.651   2.004   3.738  0.8943 -0.6543 -1.7564
 5917TIP3    H217697   5.516   1.956   3.687  0.1987 -0.5039 -0.0761
 5918TIP3   OH217698   1.128   7.767   4.286 -0.2219  0.1067 -0.4985
 5918TIP3    H117699   1.215   7.781   4.325  0.0917  1.3484 -1.5854
 5918TIP3    H217700   1.090   7.855   4.281 -1.0045 -0.2655 -1.2266
 5919TIP3   OH217701   3.709   0.062   3.437  0.3775  0.5152  0.1252
 5919TIP3    H117702   3.722   0.079   3.531 -0.3053  0.8187  0.1676
 5919TIP3    H217703   3.711   0.148   3.397 -0.9953  0.5403  0.0743
 5920TIP3   OH217704   1.756   7.205   5.988 -0.0673 -0.5626 -0.7853
 5920TIP3    H117705   1.797   7.150   5.921 -1.9472 -1.2637 -1.3875
 5920TIP3    H217706   1.766   7.156   6.069 -1.8162 -1.8802 -1.3358
 5921TIP3   OH217707   2.140   6.958   1.923 -0.5490  0.2924  0.2552
 5921TIP3    H117708   2.232   6.967   1.898  0.1610 -0.2655  2.4790
 5921TIP3    H217709   2.103   6.899   1.858  1.4994 -2.0597  1.1564
 5922TIP3   OH217710   4.368   1.150   3.837  0.1254 -0.6454  0.8588
 5922TIP3    H117711   4.278   1.181   3.849 -0.0685 -1.3971  1.3919
 5922TIP3    H217712   4.420   1.203   3.897  0.2650  0.7897 -0.4907
 5923TIP3   OH217713   4.748   0.404   4.651  0.1456  0.0413 -0.3274
 5923TIP3    H117714   4.744   0.488   4.697  2.5276 -0.2919  0.5899
 5923TIP3    H217715   4.790   0.344   4.713 -0.9357 -1.6794 -1.2028
 5924TIP3   OH217716   7.524   0.269   6.544 -0.0590 -0.0984 -0.1121
 5924TIP3    H117717   7.465   0.338   6.513 -0.5576 -0.0903  0.8378
 5924TIP3    H217718   7.503   0.193   6.489 -0.1678  0.2331 -0.5297
 5925TIP3   OH217719   0.561   3.650   1.829  0.5261 -0.0568  0.5325
 5925TIP3    H117720   0.545   3.575   1.887  1.8217  0.0088  0.9999
 5925TIP3    H217721   0.474   3.680   1.804 -0.0178 -2.3049 -0.4288
 5926TIP3   OH217722   3.265   7.998   6.208 -0.3755 -0.2917  0.1453
 5926TIP3    H117723   3.270   7.930   6.275  0.7613  1.5866  1.9905
 5926TIP3    H217724   3.235   8.076   6.254  3.1163  1.7848 -0.8771
 5927TIP3   OH217725   3.915   0.676   4.534 -0.4158  0.4226  0.3715
 5927TIP3    H117726   3.921   0.633   4.619  1.1126  0.9427  0.5300
 5927TIP3    H217727   3.954   0.762   4.547 -3.4250  1.9273  0.0434
 5928TIP3   OH217728   3.342   0.467   2.413  0.2694  0.1930 -0.1348
 5928TIP3    H117729   3.341   0.511   2.497  0.2309  1.3244 -0.7236
 5928TIP3    H217730   3.250   0.449   2.393  0.3127 -0.5331  0.2927
 5929TIP3   OH217731   2.407   1.781   4.307  0.1654 -0.0096 -0.0726
 5929TIP3    H117732   2.351   1.704   4.318 -2.6779  1.4194 -3.6725
 5929TIP3    H217733   2.368   1.846   4.366 -0.2344  0.1107 -0.4699
 5930TIP3   OH217734   1.858   6.921   4.452 -0.3972  0.5112  0.0438
 5930TIP3    H117735   1.911   6.968   4.388  0.4907 -0.7225 -0.1478
 5930TIP3    H217736   1.904   6.934   4.535 -0.7823  0.9541  0.1841
 5931TIP3   OH217737   4.118   1.407   3.364  0.6788 -0.4879  0.5211
 5931TIP3    H117738   4.109   1.442   3.276 -1.3753 -0.1384  0.8457
 5931TIP3    H217739   4.212   1.408   3.381  0.8749  2.4998 -0.4316
 5932TIP3   OH217740   4.593   2.256   4.062  0.3228 -0.5860 -0.0818
 5932TIP3    H117741   4.502   2.257   4.032  0.0342 -1.2227  0.7390
 5932TIP3    H217742   4.587   2.240   4.157  1.2986 -1.0580 -0.0898
 5933TIP3   OH217743   6.815   1.339   6.503  0.7057 -0.1259  0.8046
 5933TIP3    H117744   6.757   1.305   6.434 -0.9605 -1.0364  2.6023
 5933TIP3    H217745   6.794   1.432   6.508  0.7012 -0.0927  0.2053
 5934TIP3   OH217746   1.833   7.399   4.569 -0.6185 -0.0354 -0.1789
 5934TIP3    H117747   1.922   7.430   4.551 -2.0958  3.1226 -2.4617
 5934TIP3    H217748   1.833   7.380   4.663  3.0140 -2.1391 -0.4957
 5935TIP3   OH217749   7.347   1.518   6.872  0.5279 -0.0530 -0.3865
 5935TIP3    H117750   7.442   1.525   6.866  0.9462 -1.3013  3.4222
 5935TIP3    H217751   7.332   1.441   6.927 -2.6423  1.0624  0.4426
 5936TIP3   OH217752   5.676   1.758   3.503  0.2083 -0.5041 -0.0830
 5936TIP3    H117753   5.649   1.805   3.582 -1.1045 -0.0610 -0.7807
 5936TIP3    H217754   5.723   1.823   3.451 -0.1402 -0.4145 -0.2886
 5937TIP3   OH217755   5.964   4.461   6.233  0.0988  0.2083 -0.0820
 5937TIP3    H117756   5.915   4.534   6.196  0.2141  0.0371 -0.5748
 5937TIP3    H217757   5.919   4.442   6.316 -0.1357  0.6160 -0.1146
 5938TIP3   OH217758   3.057   0.362   4.101  0.6053  0.2173 -0.3205
 5938TIP3    H117759   3.039   0.395   4.190 -0.3376 -0.5454 -0.2292
 5938TIP3    H217760   3.093   0.275   4.115 -1.5830 -0.7778 -0.7706
 5939TIP3   OH217761   2.714   6.526   3.429  0.0562 -0.2623  0.0518
 5939TIP3    H117762   2.752   6.529   3.517  1.7399  1.2308 -0.7068
 5939TIP3    H217763   2.787   6.503   3.372 -0.7424  0.0562 -1.1203
 5940TIP3   OH217764   5.369   2.596   4.183 -0.6348  0.3147  0.1114
 5940TIP3    H117765   5.339   2.563   4.268 -0.3157 -1.2921 -0.3846
 5940TIP3    H217766   5.407   2.520   4.139 -0.5140  1.1887 -1.3535
 5941TIP3   OH217767   2.453   0.257   4.320  0.0951 -0.3205  0.8859
 5941TIP3    H117768   2.369   0.286   4.355 -0.2640 -0.5032  0.1754
 5941TIP3    H217769   2.502   0.227   4.397 -0.2535  0.3605  1.3761
 5942TIP3   OH217770   7.250   2.038   6.775  0.4201  0.2286 -0.3445
 5942TIP3    H117771   7.264   1.997   6.861 -2.4718  0.2635  0.1684
 5942TIP3    H217772   7.255   1.966   6.713 -1.5917 -0.4381  0.2585
 5943TIP3   OH217773   5.109   1.126   5.151  0.2379  0.6816 -0.1755
 5943TIP3    H117774   5.114   1.098   5.243  1.0071  1.5746  0.0588
 5943TIP3    H217775   5.021   1.162   5.143 -0.1955 -0.3108 -0.0644
 5944TIP3   OH217776   4.442   1.888   4.429 -0.5823 -0.2168  0.1672
 5944TIP3    H117777   4.407   1.945   4.497 -1.8970  0.2818 -0.9065
 5944TIP3    H217778   4.368   1.832   4.404 -0.3401  0.1521 -1.4123
 5945TIP3   OH217779   5.638   1.702   5.415 -0.3604  0.1698 -0.3936
 5945TIP3    H117780   5.552   1.724   5.451 -0.6370 -1.2353 -0.1439
 5945TIP3    H217781   5.622   1.620   5.367  1.1618 -0.9473  0.9745
 5946TIP3   OH217782   7.797   0.240   3.354  0.4048  0.3571  0.2857
 5946TIP3    H117783   7.744   0.280   3.423 -0.2690 -0.9999  0.5706
 5946TIP3    H217784   7.865   0.192   3.401  1.6849  1.7982 -0.0735
 5947TIP3   OH217785   3.903   0.867   4.827  0.0406 -0.0839 -0.1019
 5947TIP3    H117786   3.945   0.855   4.741  0.3998  0.2834  0.0227
 5947TIP3    H217787   3.874   0.958   4.827 -0.6437 -0.3001 -0.1339
 5948TIP3   OH217788   3.011   6.875   5.758 -0.2143 -0.5298  0.4234
 5948TIP3    H117789   3.077   6.885   5.827 -0.9183  0.5486  0.9552
 5948TIP3    H217790   3.026   6.786   5.724  1.0474 -0.5601  1.0051
 5949TIP3   OH217791   5.355   0.126   4.298 -0.2351 -0.5639  0.3369
 5949TIP3    H117792   5.322   0.043   4.332 -1.2211 -0.9242 -1.4098
 5949TIP3    H217793   5.337   0.122   4.204  1.4752  0.8060 -0.0916
 5950TIP3   OH217794   5.072   1.807   4.374  0.0450 -0.1310 -0.2689
 5950TIP3    H117795   5.081   1.809   4.469 -0.5297 -0.9324 -0.1906
 5950TIP3    H217796   4.995   1.861   4.357 -0.6036 -1.0060 -0.1681
 5951TIP3   OH217797   8.279   6.812   0.102  0.0620  0.1794  0.2283
 5951TIP3    H117798   8.238   6.726   0.107 -2.2745  1.1860 -0.5705
 5951TIP3    H217799   8.299   6.825   0.009  1.3271  0.1005  0.4804
 5952TIP3   OH217800   5.654   2.134   6.289  0.0898 -0.4611  0.1228
 5952TIP3    H117801   5.581   2.169   6.238  0.4799  0.0603 -0.0749
 5952TIP3    H217802   5.732   2.166   6.245  0.4276  0.1803  1.1806
 5953TIP3   OH217803   3.801   3.580   4.729 -0.1217  0.3895  0.0446
 5953TIP3    H117804   3.863   3.635   4.682 -1.0034 -0.0655 -1.7040
 5953TIP3    H217805   3.855   3.521   4.782  1.0078 -0.8130 -2.3751
 5954TIP3   OH217806   3.450   0.392   3.557 -0.0185 -0.2398 -0.6824
 5954TIP3    H117807   3.361   0.419   3.582 -1.2008 -3.9964 -0.5094
 5954TIP3    H217808   3.444   0.377   3.462  0.5781 -0.0189 -0.7573
 5955TIP3   OH217809   2.034   7.911   5.731  0.5839  0.2467  0.6069
 5955TIP3    H117810   2.084   7.855   5.672  0.6958  0.6295  0.3379
 5955TIP3    H217811   2.096   7.935   5.800  0.2036 -0.9280  1.3629
 5956TIP3   OH217812   4.628   1.242   6.090 -0.7717  0.3176 -0.3159
 5956TIP3    H117813   4.711   1.217   6.048 -0.1218 -1.1549  1.7527
 5956TIP3    H217814   4.640   1.333   6.114 -0.1332  0.4037 -0.9225
 5957TIP3   OH217815   5.422   1.660   4.394 -0.1160 -0.0319  0.0240
 5957TIP3    H117816   5.371   1.599   4.340 -1.6391  0.9703  0.3127
 5957TIP3    H217817   5.420   1.622   4.482  0.8537 -0.7411 -0.2613
 5958TIP3   OH217818   6.496   1.577   6.035 -0.0944  0.4807 -0.7469
 5958TIP3    H117819   6.527   1.573   6.125 -1.3804 -1.1018 -0.3413
 5958TIP3    H217820   6.403   1.600   6.043 -0.0454  1.0260 -1.6996
 5959TIP3   OH217821   6.090   5.744   0.398  0.2213 -0.1203  0.5289
 5959TIP3    H117822   6.052   5.777   0.479  0.6942  0.8532  0.3593
 5959TIP3    H217823   6.016   5.709   0.349  0.0089 -1.2198  1.6201
 5960TIP3   OH217824   4.988   0.077   5.920  0.1294 -0.0009  0.5102
 5960TIP3    H117825   5.082   0.060   5.929  0.0805 -0.1383  0.7710
 5960TIP3    H217826   4.982   0.171   5.901  0.4434 -0.3831 -1.6146
 5961TIP3   OH217827   5.133   0.745   6.035  0.1495 -0.5122  0.1881
 5961TIP3    H117828   5.174   0.831   6.037 -0.7925 -0.0637  0.8907
 5961TIP3    H217829   5.068   0.748   6.105  0.3558 -1.9248  0.4504
 5962TIP3   OH217830   2.231   1.638   4.684 -0.8245 -0.0577  0.4597
 5962TIP3    H117831   2.138   1.660   4.687 -0.8891 -0.3343  0.5094
 5962TIP3    H217832   2.273   1.716   4.648 -1.0403  0.1745  0.7112
 5963TIP3   OH217833   3.348   1.563   5.065 -0.1178 -0.1783 -0.4066
 5963TIP3    H117834   3.422   1.522   5.021 -0.8656 -1.5277 -0.4251
 5963TIP3    H217835   3.294   1.490   5.094 -0.4875  0.7448  1.2756
 5964TIP3   OH217836   6.722   0.004   2.092 -0.0441  0.3115  0.4948
 5964TIP3    H117837   6.797  -0.027   2.143  0.5090  2.0155  0.7703
 5964TIP3    H217838   6.761   0.046   2.016 -0.8013 -0.3890 -0.2853
 5965TIP3   OH217839   4.026   0.857   5.182  0.0551  0.1512  0.5647
 5965TIP3    H117840   4.041   0.788   5.118 -1.6599 -0.3362  0.6569
 5965TIP3    H217841   3.984   0.812   5.256  2.3881  0.6096  2.2413
 5966TIP3   OH217842   8.016   5.750   0.587  0.0898  0.0493 -0.6037
 5966TIP3    H117843   8.020   5.656   0.607 -1.1475  0.1078  0.0075
 5966TIP3    H217844   8.039   5.756   0.494 -1.9635 -1.1226 -1.2450
 5967TIP3   OH217845   5.643   0.432   1.968  0.4191  0.1344  0.1657
 5967TIP3    H117846   5.648   0.369   2.040 -1.7257 -0.7035 -0.3865
 5967TIP3    H217847   5.557   0.419   1.930  1.3127  0.9160 -2.2547
 5968TIP3   OH217848   8.128   0.178   3.336  0.1496  0.1049  0.3466
 5968TIP3    H117849   8.151   0.250   3.277  0.2791  0.6852  1.1022
 5968TIP3    H217850   8.126   0.101   3.280 -0.4560  0.7701 -0.5652
 5969TIP3   OH217851   5.926   0.611   4.918 -0.4976  0.6226 -0.6675
 5969TIP3    H117852   5.897   0.693   4.959 -2.0322 -0.7045  0.9904
 5969TIP3    H217853   5.954   0.556   4.992 -0.2417 -0.6418 -1.6925
 5970TIP3   OH217854   7.577   2.321   4.599  0.5485  0.6688  0.1744
 5970TIP3    H117855   7.532   2.388   4.549 -0.8141 -0.6153 -0.3665
 5970TIP3    H217856   7.513   2.251   4.608  1.8833 -0.4945  0.8642
 5971TIP3   OH217857   8.490   0.813   5.939  0.0558 -0.6659  0.2063
 5971TIP3    H117858   8.486   0.744   5.872 -0.3430 -1.4695  1.0461
 5971TIP3    H217859   8.424   0.876   5.912 -1.0874 -1.6723  0.5800
 5972TIP3   OH217860   7.113   0.198   4.189  0.4236  0.0318 -0.0567
 5972TIP3    H117861   7.066   0.195   4.273 -1.1497  0.0916 -0.9210
 5972TIP3    H217862   7.148   0.287   4.185  2.9092 -0.8085  1.7988
 5973TIP3   OH217863   4.893   1.480   4.023 -0.3841  0.0774 -0.0764
 5973TIP3    H117864   4.835   1.476   4.099 -1.0110 -0.2323 -0.5656
 5973TIP3    H217865   4.959   1.414   4.041 -0.7582 -0.2758  0.0198
 5974TIP3   OH217866   6.746   1.622   6.607 -0.3277 -0.5475  0.0794
 5974TIP3    H117867   6.684   1.677   6.559  0.6440  1.7738  1.3938
 5974TIP3    H217868   6.719   1.629   6.698  1.1453 -0.4888  0.5207
 5975TIP3   OH217869   7.351   0.773   3.206 -0.7544 -0.1641 -0.3823
 5975TIP3    H117870   7.411   0.713   3.162  0.8874  0.4467  0.9812
 5975TIP3    H217871   7.284   0.716   3.244  0.5739 -1.1138  0.5642
 5976TIP3   OH217872   6.323   1.540   3.757 -0.1015  0.3646  1.0437
 5976TIP3    H117873   6.393   1.598   3.730  0.1548 -0.6529 -0.5050
 5976TIP3    H217874   6.264   1.596   3.809  0.6904  1.7356  0.4815
 5977TIP3   OH217875   7.129   1.392   5.503  0.2061 -0.0240 -0.3457
 5977TIP3    H117876   7.214   1.436   5.502  1.6481 -2.6935 -1.1066
 5977TIP3    H217877   7.093   1.409   5.416 -0.6275  2.0968  0.3698
 5978TIP3   OH217878   0.723   0.188   3.767  0.8133 -0.0078  0.3002
 5978TIP3    H117879   0.775   0.108   3.776  0.1783 -0.2581  1.9427
 5978TIP3    H217880   0.744   0.239   3.845 -0.9038  0.1807  0.6628
 5979TIP3   OH217881   0.846   1.187   5.266 -0.0407  0.1417 -0.0642
 5979TIP3    H117882   0.841   1.196   5.171 -2.3422 -0.8418 -0.0669
 5979TIP3    H217883   0.854   1.276   5.298  1.7653  0.4184 -1.2109
 5980TIP3   OH217884   6.304   1.712   5.830  0.3390 -0.8233  0.3816
 5980TIP3    H117885   6.360   1.740   5.758 -1.4755  1.4617 -0.2110
 5980TIP3    H217886   6.262   1.632   5.799 -1.3000  0.7539 -1.6247
 5981TIP3   OH217887   8.103   0.863   4.455 -0.7352  0.8597 -0.2725
 5981TIP3    H117888   8.119   0.815   4.373 -0.9050  0.4471 -0.0667
 5981TIP3    H217889   8.022   0.911   4.439 -0.5804  1.0608 -0.4698
 5982TIP3   OH217890   5.984   3.186   5.203  0.1212 -0.3324  0.2768
 5982TIP3    H117891   6.026   3.270   5.185  0.7262 -0.2620  1.9600
 5982TIP3    H217892   5.990   3.175   5.297  1.1370 -2.8623 -0.0403
 5983TIP3   OH217893   7.311   1.075   5.029  0.0127 -0.0587  0.3540
 5983TIP3    H117894   7.267   0.992   5.043  1.1299 -0.5512  0.9974
 5983TIP3    H217895   7.244   1.132   4.990 -0.4850 -1.5488 -1.0198
 5984TIP3   OH217896   5.708   7.873   4.888  1.0578  0.3308  0.1940
 5984TIP3    H117897   5.671   7.859   4.975  0.4067 -1.0976 -0.3050
 5984TIP3    H217898   5.774   7.804   4.878  0.7949  0.1820 -0.6242
 5985TIP3   OH217899   2.671   7.214   5.570  0.0975  0.0409 -1.0621
 5985TIP3    H117900   2.639   7.222   5.660  0.1073 -2.2517 -0.8152
 5985TIP3    H217901   2.592   7.195   5.519  0.3067 -0.1864 -1.3005
 5986TIP3   OH217902   5.421   0.217   2.653 -0.5602 -0.0433  0.2965
 5986TIP3    H117903   5.394   0.125   2.660  1.2295 -0.4964  1.6366
 5986TIP3    H217904   5.463   0.236   2.738  2.4579  0.8709 -1.3328
 5987TIP3   OH217905   8.032   2.461   3.464  0.6364  0.2310 -0.3982
 5987TIP3    H117906   7.989   2.392   3.413  1.6881 -1.1743  0.5722
 5987TIP3    H217907   8.095   2.500   3.403 -0.0788  0.4414 -1.0002
 5988TIP3   OH217908   7.231   0.472   4.153 -0.6733  0.4238 -0.0840
 5988TIP3    H117909   7.301   0.511   4.101 -0.8696  2.0420  0.8275
 5988TIP3    H217910   7.223   0.530   4.229 -1.3085 -1.1456  1.0673
 5989TIP3   OH217911   6.556   2.933   3.374  0.4480  0.1898 -0.1147
 5989TIP3    H117912   6.590   2.960   3.459 -0.6671 -0.4666  0.5367
 5989TIP3    H217913   6.486   2.995   3.355  1.8683  1.4341 -1.3823
 5990TIP3   OH217914   7.385   1.993   4.276  0.3006 -0.4144  0.0211
 5990TIP3    H117915   7.452   1.927   4.261  0.6709 -0.1195  0.3667
 5990TIP3    H217916   7.407   2.064   4.216  1.1237  0.2848  1.1404
 5991TIP3   OH217917   5.820   1.529   2.669 -0.1512 -0.5320 -0.1574
 5991TIP3    H117918   5.905   1.539   2.628 -0.1466  1.3068  0.2746
 5991TIP3    H217919   5.772   1.470   2.611  0.0890  1.4575 -2.4633
 5992TIP3   OH217920   3.209   6.251   5.437 -0.4702 -0.6827  0.1988
 5992TIP3    H117921   3.137   6.303   5.401 -0.8156 -1.2281  0.0804
 5992TIP3    H217922   3.264   6.231   5.361 -0.8185 -1.2367  0.0870
 5993TIP3   OH217923   8.018   2.333   3.693  0.6549 -0.1444  0.1742
 5993TIP3    H117924   8.103   2.292   3.674  0.8587  0.4605 -0.2193
 5993TIP3    H217925   8.009   2.401   3.626 -1.4390 -2.0808 -1.5808
 5994TIP3   OH217926   7.293   1.639   3.226 -0.4214  0.5220 -0.2762
 5994TIP3    H117927   7.203   1.658   3.253 -0.5834  0.2431 -0.6380
 5994TIP3    H217928   7.289   1.554   3.183  0.4223 -0.6741  1.9150
 5995TIP3   OH217929   7.904   3.431   5.196 -0.1713  0.5053 -0.4155
 5995TIP3    H117930   7.849   3.431   5.274  0.8397 -3.9440  0.4229
 5995TIP3    H217931   7.844   3.404   5.125  0.1889 -1.4545 -0.0181
 5996TIP3   OH217932   4.519   2.693   1.428  0.1802 -0.4834  1.2617
 5996TIP3    H117933   4.578   2.688   1.353 -2.0493 -0.5774 -0.5615
 5996TIP3    H217934   4.535   2.613   1.478  2.2118 -0.0618  1.3366
 5997TIP3   OH217935   6.059   0.216   3.843  0.9040  0.4209 -0.1871
 5997TIP3    H117936   6.004   0.175   3.776  0.7862  0.8784 -0.3707
 5997TIP3    H217937   6.000   0.224   3.919  1.1044 -0.3058  0.0470
 5998TIP3   OH217938   4.440   0.516   4.968  0.2014  0.7713 -0.4021
 5998TIP3    H117939   4.445   0.443   5.030 -1.4206  1.3218  0.4043
 5998TIP3    H217940   4.459   0.476   4.883 -0.5362 -0.5670  0.0452
 5999TIP3   OH217941   6.515   1.863   4.969 -0.0112  0.1856  0.2235
 5999TIP3    H117942   6.573   1.790   4.949  0.4756  0.5405  0.3371
 5999TIP3    H217943   6.522   1.922   4.894 -0.7867 -0.1223 -0.0966
 6000TIP3   OH217944   6.173   0.205   2.903  0.0938  0.5443 -0.2821
 6000TIP3    H117945   6.124   0.135   2.947 -1.9235  2.6945  1.0418
 6000TIP3    H217946   6.209   0.257   2.975 -0.8701  2.5098 -1.1997
 6001TIP3   OH217947   5.644   2.746   1.208 -0.0269 -0.4293 -0.3658
 6001TIP3    H117948   5.584   2.746   1.283 -0.8302 -1.4676 -1.0008
 6001TIP3    H217949   5.610   2.813   1.150  2.1130  2.2623  1.3622
 6002TIP3   OH217950   8.358   1.453   6.299 -0.4554  0.9081  0.2619
 6002TIP3    H117951   8.416   1.383   6.268  0.5478  0.9344  2.0123
 6002TIP3    H217952   8.274   1.434   6.258  0.5215  0.2694 -1.4908
 6003TIP3   OH217953   7.922   0.934   5.033 -0.0389  0.4675 -0.0208
 6003TIP3    H117954   7.842   0.898   5.071 -1.0995  1.3305 -1.3976
 6003TIP3    H217955   7.975   0.857   5.013 -1.1402 -0.1981 -0.4393
 6004TIP3   OH217956   7.180   1.935   6.283  0.0972  0.0180 -0.2887
 6004TIP3    H117957   7.205   2.023   6.256  0.9753 -0.0409  0.3310
 6004TIP3    H217958   7.260   1.897   6.318 -0.6822 -0.4295  1.0316
 6005TIP3   OH217959   2.536   7.763   4.886  0.0155  0.0504 -0.1570
 6005TIP3    H117960   2.617   7.726   4.923  0.3707  1.1376  0.1767
 6005TIP3    H217961   2.557   7.855   4.869 -1.5099  0.6626  1.0713
 6006TIP3   OH217962   6.972   1.686   2.584  0.6481  0.3461 -0.5973
 6006TIP3    H117963   6.921   1.637   2.649  1.9262 -1.2050 -0.7320
 6006TIP3    H217964   7.061   1.655   2.595  0.8720 -0.0296 -3.1518
 6007TIP3   OH217965   7.465   0.980   6.147 -0.3228 -0.1575 -0.1282
 6007TIP3    H117966   7.554   1.016   6.138 -0.1256 -0.4097  0.7848
 6007TIP3    H217967   7.407   1.055   6.135  0.0318  0.1254 -0.0760
 6008TIP3   OH217968   6.114   1.772   3.581 -0.2990 -0.4485  0.2025
 6008TIP3    H117969   6.150   1.850   3.538  0.9240 -0.2578  1.5683
 6008TIP3    H217970   6.052   1.737   3.517  0.0590  0.9354 -0.9364
 6009TIP3   OH217971   8.466   0.989   6.162  0.6614 -0.7609 -0.2509
 6009TIP3    H117972   8.511   0.951   6.086  1.4447 -0.4950  0.0783
 6009TIP3    H217973   8.399   0.924   6.185  1.7926 -1.8137  0.1229
 6010TIP3   OH217974   6.156   2.904   4.953  0.4565 -0.0688  0.1673
 6010TIP3    H117975   6.120   2.824   4.914  1.2963 -0.1703 -0.4368
 6010TIP3    H217976   6.246   2.908   4.919  0.3980  1.1757  0.1356
 6011TIP3   OH217977   6.151   1.415   4.368  0.6573  0.0180  0.0254
 6011TIP3    H117978   6.117   1.479   4.306  0.6002 -0.0984 -0.0635
 6011TIP3    H217979   6.083   1.348   4.372  0.0404  0.7043  1.2490
 6012TIP3   OH217980   5.668   2.538   3.457  0.6079 -0.2056 -0.1004
 6012TIP3    H117981   5.597   2.529   3.520  0.7424 -1.0510 -0.0549
 6012TIP3    H217982   5.636   2.493   3.379  0.6055  0.4809 -0.4967
 6013TIP3   OH217983   5.701   1.977   4.838  0.7296  0.1061  0.1812
 6013TIP3    H117984   5.712   2.045   4.905  1.5867  0.2945 -0.1421
 6013TIP3    H217985   5.734   2.017   4.757  0.2575 -0.3309 -0.2344
 6014TIP3   OH217986   5.796   3.486   2.951 -0.7004  0.3705  0.0875
 6014TIP3    H117987   5.720   3.500   3.007 -0.5858 -0.0944  0.3624
 6014TIP3    H217988   5.836   3.573   2.942  0.3540  0.1515  2.2930
 6015TIP3   OH217989   7.022   0.575   5.361 -0.2163 -0.2031 -0.5388
 6015TIP3    H117990   7.112   0.588   5.389 -0.1047 -2.7583  0.4045
 6015TIP3    H217991   7.021   0.604   5.270  0.6947  3.1154  0.4515
 6016TIP3   OH217992   6.948   1.846   3.794 -0.2157 -0.1984 -0.1251
 6016TIP3    H117993   6.920   1.928   3.753 -0.3525 -0.3653 -0.3673
 6016TIP3    H217994   7.040   1.861   3.817 -1.0094  1.0185  2.3750
 6017TIP3   OH217995   4.338   5.227   4.804  0.2022 -0.6520  0.8259
 6017TIP3    H117996   4.272   5.188   4.860  0.3668  0.2441  1.6448
 6017TIP3    H217997   4.415   5.235   4.860 -0.0229  1.4547  0.8730
 6018TIP3   OH217998   0.533   1.614   3.088  0.2219 -0.5435  0.3951
 6018TIP3    H117999   0.585   1.547   3.133 -1.5176 -0.9884  1.8175
 6018TIP3    H218000   0.461   1.632   3.148 -0.9258  0.5139 -1.2647
 6019TIP3   OH218001   7.875   1.948   4.484 -0.0880 -0.1531 -0.5741
 6019TIP3    H118002   7.891   2.014   4.416 -0.1893  0.8274  0.3390
 6019TIP3    H218003   7.950   1.955   4.543 -0.1361 -0.8107 -0.4299
 6020TIP3   OH218004   7.478   3.347  -0.004  0.0832 -0.1266  0.4165
 6020TIP3    H118005   7.450   3.438  -0.015 -2.5153 -0.7356  1.6952
 6020TIP3    H218006   7.567   3.353   0.032 -0.3947  1.9173  1.2935
 6021TIP3   OH218007   6.317   2.448   4.696  0.0771 -1.2128 -0.0178
 6021TIP3    H118008   6.226   2.463   4.669  1.0454  2.2747 -1.7523
 6021TIP3    H218009   6.321   2.479   4.786 -0.5259 -1.6435  0.1575
 6022TIP3   OH218010   8.196   2.436   6.238 -0.0888  0.3305  0.0220
 6022TIP3    H118011   8.155   2.440   6.324  0.2143  1.1444  0.1334
 6022TIP3    H218012   8.128   2.468   6.178 -0.2185 -0.0043 -0.0066
 6023TIP3   OH218013   4.239   7.500   5.307  0.2231 -1.0665  0.0271
 6023TIP3    H118014   4.201   7.484   5.221  2.1072 -2.5451 -0.5568
 6023TIP3    H218015   4.183   7.567   5.346 -1.1455 -0.9962 -2.0038
 6024TIP3   OH218016   7.545   1.616   6.048  0.3496  0.6574 -0.1832
 6024TIP3    H118017   7.462   1.582   6.081  0.6323  0.1726  0.0390
 6024TIP3    H218018   7.566   1.689   6.107 -0.2558  1.2228 -0.6593
 6025TIP3   OH218019   6.734   0.317   6.193  0.1956 -0.2126 -0.1036
 6025TIP3    H118020   6.793   0.299   6.120  0.1027 -0.8762 -0.0210
 6025TIP3    H218021   6.654   0.269   6.172 -0.5177  1.1280 -0.4794
 6026TIP3   OH218022   7.718   0.713   4.476 -0.7840 -0.0876  0.2903
 6026TIP3    H118023   7.774   0.641   4.503  0.7833  0.1208 -2.2809
 6026TIP3    H218024   7.768   0.792   4.498 -1.5516  0.1795  1.1019
 6027TIP3   OH218025   0.038   1.184   5.444  0.1129  0.3225  0.4084
 6027TIP3    H118026  -0.024   1.142   5.504 -2.0321 -1.5988 -2.9580
 6027TIP3    H218027   0.121   1.137   5.458 -0.5765 -0.6381  1.2793
 6028TIP3   OH218028   6.203   0.758   4.919 -0.5775  0.4179 -0.8712
 6028TIP3    H118029   6.198   0.672   4.877 -0.9161 -0.4607  0.9031
 6028TIP3    H218030   6.188   0.740   5.012  2.3386  2.0352 -0.0468
 6029TIP3   OH218031   5.749   0.896   1.677 -0.1614 -0.0972  0.2892
 6029TIP3    H118032   5.780   0.849   1.600  1.9618  1.6220  0.0493
 6029TIP3    H218033   5.787   0.849   1.751  1.8017  1.0617  0.0554
 6030TIP3   OH218034   3.182   1.646   3.575  0.0206  0.6089  0.1074
 6030TIP3    H118035   3.108   1.607   3.621  0.6731 -0.0732  0.5874
 6030TIP3    H218036   3.252   1.650   3.640  1.3220 -1.4507 -1.0988
 6031TIP3   OH218037   0.559   2.797   6.012 -0.0573  0.3056 -0.1024
 6031TIP3    H118038   0.570   2.822   5.920 -0.1561 -1.7581 -0.7014
 6031TIP3    H218039   0.646   2.771   6.041 -0.4241 -1.0761 -0.2390
 6032TIP3   OH218040   1.240   4.901   0.241 -0.1945 -0.8211  0.3459
 6032TIP3    H118041   1.277   4.903   0.330  0.2424  0.4207  0.1499
 6032TIP3    H218042   1.146   4.894   0.254 -0.1624 -0.2130  0.9140
 6033TIP3   OH218043   0.520   5.253   0.335 -0.5927 -0.4113  0.2959
 6033TIP3    H118044   0.544   5.344   0.314 -0.2168 -0.1804  1.6966
 6033TIP3    H218045   0.568   5.200   0.271  2.5053  0.1220  2.1062
 6034TIP3   OH218046   6.472   1.530   5.018 -0.1325  0.0025  0.0891
 6034TIP3    H118047   6.480   1.435   5.007  0.5493 -0.1370  1.6554
 6034TIP3    H218048   6.543   1.565   4.964  1.0964 -0.5026  1.3471
 6035TIP3   OH218049   8.401   1.846   5.166  0.0870 -0.2193 -0.2480
 6035TIP3    H118050   8.386   1.762   5.210 -0.6661 -0.3946 -0.8382
 6035TIP3    H218051   8.350   1.909   5.216  0.6037 -0.1243  0.1594
 6036TIP3   OH218052   6.883   0.981   2.428  0.2417 -0.1792 -0.2314
 6036TIP3    H118053   6.966   1.027   2.428  0.1564 -0.0260 -0.2686
 6036TIP3    H218054   6.880   0.937   2.513  1.8595 -2.8742 -1.4922
 6037TIP3   OH218055   5.574   1.968   2.067  0.3239 -0.0901  0.5002
 6037TIP3    H118056   5.539   2.021   1.995 -1.9025  0.7469  2.1476
 6037TIP3    H218057   5.654   2.013   2.093  0.0778  0.7331 -0.1409
 6038TIP3   OH218058   7.675   1.229   2.551  0.1137 -0.1426  0.1294
 6038TIP3    H118059   7.708   1.318   2.537 -1.8986  0.6679  0.3794
 6038TIP3    H218060   7.748   1.172   2.524  1.2396  1.5644 -0.5320
 6039TIP3   OH218061   6.748   2.964   6.201 -0.1862  0.7261  0.0181
 6039TIP3    H118062   6.822   2.904   6.210 -0.0667  0.5102 -2.1935
 6039TIP3    H218063   6.779   3.046   6.240 -0.0379 -0.3508  2.2435
 6040TIP3   OH218064   6.325   1.479   5.709 -0.3837 -0.0868 -0.1379
 6040TIP3    H118065   6.323   1.502   5.616 -3.1041 -0.1949 -0.1608
 6040TIP3    H218066   6.334   1.384   5.710 -0.2445 -0.0746 -0.2845
 6041TIP3   OH218067   1.081   1.590   4.824  0.3611  0.5936 -0.1579
 6041TIP3    H118068   1.073   1.495   4.814  0.0080  0.2641  2.8841
 6041TIP3    H218069   1.008   1.625   4.774  0.0481 -0.7847 -0.6859
 6042TIP3   OH218070   7.476   1.488   6.391 -0.6474 -0.1186 -0.3325
 6042TIP3    H118071   7.496   1.395   6.398  0.3190 -0.0056 -1.4360
 6042TIP3    H218072   7.551   1.532   6.432  0.0825  0.2333 -2.0168
 6043TIP3   OH218073   0.869   1.954   6.313  0.3630 -0.3269 -0.4577
 6043TIP3    H118074   0.948   1.903   6.328 -0.1877 -1.1184 -0.2132
 6043TIP3    H218075   0.800   1.889   6.302 -0.5166  0.3658  0.7854
 6044TIP3   OH218076   0.298   2.532   2.291  0.2386 -0.1636 -0.2412
 6044TIP3    H118077   0.341   2.450   2.314  1.2360  0.4154 -0.0247
 6044TIP3    H218078   0.368   2.596   2.289 -0.8295  1.1159  1.7057
 6045TIP3   OH218079   0.678   1.007   3.919  0.4245  0.4349  0.0854
 6045TIP3    H118080   0.759   1.033   3.963  0.4893 -0.7889  0.7177
 6045TIP3    H218081   0.631   0.955   3.984 -0.1123 -0.2448 -0.8323
 6046TIP3   OH218082   5.680   0.295   4.287 -0.4171 -0.0986  0.3744
 6046TIP3    H118083   5.672   0.206   4.321 -0.8831 -0.3368 -0.3400
 6046TIP3    H218084   5.608   0.343   4.328 -0.4250 -0.1635  0.4351
 6047TIP3   OH218085   0.759   1.697   1.667 -0.0121 -0.0173  0.1183
 6047TIP3    H118086   0.775   1.735   1.581  0.4457  0.5067  0.4287
 6047TIP3    H218087   0.846   1.682   1.703 -0.1572 -2.4714 -0.4708
 6048TIP3   OH218088   7.172   1.453   4.567 -0.3592 -0.3166 -0.4170
 6048TIP3    H118089   7.181   1.453   4.663 -1.8411 -0.6090 -0.2577
 6048TIP3    H218090   7.217   1.532   4.539  1.9282 -1.3264  0.3173
 6049TIP3   OH218091   2.259   7.135   4.690  0.2621 -1.0588  0.3620
 6049TIP3    H118092   2.212   7.053   4.704 -0.0102 -0.7649  1.1541
 6049TIP3    H218093   2.276   7.170   4.778 -0.6326  0.3166  0.0042
 6050TIP3   OH218094   4.869   6.972   5.180  0.0427  0.0122 -0.7390
 6050TIP3    H118095   4.886   6.885   5.216  0.2190 -0.4364 -1.9099
 6050TIP3    H218096   4.775   6.971   5.161  0.1279 -0.0713 -1.1530
 6051TIP3   OH218097   7.578   1.575   3.424  0.1900 -0.2568 -0.4062
 6051TIP3    H118098   7.514   1.511   3.392 -0.7800  0.5576 -0.1151
 6051TIP3    H218099   7.551   1.658   3.384 -0.1476  0.4788  1.3270
 6052TIP3   OH218100   8.397   0.711   6.424  0.1539  0.2853  0.0002
 6052TIP3    H118101   8.384   0.689   6.332  0.5247 -0.5460  0.1371
 6052TIP3    H218102   8.438   0.633   6.461 -2.6005 -0.5011  1.5212
 6053TIP3   OH218103   7.512   0.140   5.099  0.4736  0.3312  0.3189
 6053TIP3    H118104   7.435   0.087   5.079  0.5012  0.4699 -0.1720
 6053TIP3    H218105   7.489   0.187   5.178 -0.1346  0.7374 -0.0958
 6054TIP3   OH218106   5.581   0.229   1.745  0.5547  0.1696 -0.5323
 6054TIP3    H118107   5.565   0.319   1.719 -0.9079  0.3767  1.0278
 6054TIP3    H218108   5.497   0.185   1.732  0.2169 -0.0760  2.2321
 6055TIP3   OH218109   8.039   0.373   4.387  0.1045 -0.3100  0.0605
 6055TIP3    H118110   8.017   0.422   4.466 -0.2230  1.1403 -0.9121
 6055TIP3    H218111   7.955   0.341   4.355  0.1037  0.0351 -0.2901
 6056TIP3   OH218112   0.855   0.497   3.597 -0.3401 -0.5118  0.5463
 6056TIP3    H118113   0.841   0.590   3.612 -1.9138 -0.9036  1.6006
 6056TIP3    H218114   0.931   0.475   3.650  0.7140  0.3893 -0.5684
 6057TIP3   OH218115   8.089   0.813   3.746 -0.1861  0.3602  0.5423
 6057TIP3    H118116   8.093   0.733   3.799 -0.0162 -0.0818 -0.1296
 6057TIP3    H218117   8.007   0.804   3.696  0.2567  0.1996 -0.1636
 6058TIP3   OH218118   7.113   3.336   6.281  0.2870  0.0308 -0.4136
 6058TIP3    H118119   7.168   3.374   6.212 -1.5294  0.9210 -1.4099
 6058TIP3    H218120   7.029   3.382   6.273  0.3678  0.9369  3.1020
 6059TIP3   OH218121   5.307   0.521   3.650  0.0273 -0.1342  0.2363
 6059TIP3    H118122   5.254   0.482   3.581  0.6048  0.3663 -0.5066
 6059TIP3    H218123   5.342   0.447   3.700 -0.1042 -0.5104 -0.2334
 6060TIP3   OH218124   5.089   0.486   4.064 -0.2344  0.2766  0.4586
 6060TIP3    H118125   5.016   0.467   4.005 -1.4983  0.8226  1.7915
 6060TIP3    H218126   5.058   0.560   4.117  0.8102 -0.2612  1.8528
 6061TIP3   OH218127   1.443   7.867   2.481 -0.3888  0.4442 -0.2496
 6061TIP3    H118128   1.447   7.960   2.459 -1.3370  0.7936  0.9919
 6061TIP3    H218129   1.442   7.865   2.577 -1.5026 -0.7919 -0.2746
 6062TIP3   OH218130   6.567   2.449   3.813  0.2424 -0.0046  0.0372
 6062TIP3    H118131   6.512   2.427   3.738 -0.3306 -0.3418  0.5463
 6062TIP3    H218132   6.573   2.544   3.812 -2.4128  0.2252  1.3973
 6063TIP3   OH218133   0.029   0.441   4.115  0.4027 -0.0620 -0.1115
 6063TIP3    H118134   0.076   0.403   4.041 -1.0675 -0.0709 -1.0478
 6063TIP3    H218135   0.003   0.366   4.168 -1.2452 -0.2842 -1.2097
 6064TIP3   OH218136   6.172   1.989   5.599 -0.4962 -0.7706 -0.2212
 6064TIP3    H118137   6.223   2.007   5.520  0.9940 -1.3723  0.5923
 6064TIP3    H218138   6.162   1.894   5.601  1.5015 -0.9987  1.5091
 6065TIP3   OH218139   1.725   7.497   4.159  0.0323 -0.0793 -0.1107
 6065TIP3    H118140   1.758   7.525   4.245  0.4577 -1.8071  0.3065
 6065TIP3    H218141   1.635   7.530   4.156 -0.2517 -0.6657  1.3354
 6066TIP3   OH218142   6.409   3.737   3.936 -0.2980 -0.1541  0.0982
 6066TIP3    H118143   6.329   3.720   3.986 -0.8562  0.3428 -0.6229
 6066TIP3    H218144   6.430   3.828   3.955 -0.4575  0.0057 -0.5021
 6067TIP3   OH218145   7.258   1.987   3.506 -0.5696  0.0127 -0.7725
 6067TIP3    H118146   7.165   1.966   3.515 -0.7534  1.5708  1.3447
 6067TIP3    H218147   7.261   2.049   3.433 -1.3482  0.7901 -0.1598
 6068TIP3   OH218148   5.014   2.457   1.583  0.4151 -0.3331  1.2086
 6068TIP3    H118149   4.930   2.495   1.609  0.9913  0.8876  1.3220
 6068TIP3    H218150   4.990   2.381   1.530 -0.7951  1.9709 -1.6977
 6069TIP3   OH218151   6.721   0.781   2.081  0.0527  0.0600  0.3054
 6069TIP3    H118152   6.668   0.784   2.160 -0.1218 -1.8456  0.2883
 6069TIP3    H218153   6.804   0.822   2.106 -0.7948  1.5303  0.8053
 6070TIP3   OH218154   3.434   1.257   4.541 -0.3848 -0.1342  0.4208
 6070TIP3    H118155   3.437   1.261   4.446  0.3103 -1.2426  0.3857
 6070TIP3    H218156   3.370   1.189   4.561 -0.5274  0.0917  0.7422
 6071TIP3   OH218157   7.762   0.884   5.997 -0.4603 -0.1582 -0.7793
 6071TIP3    H118158   7.720   0.907   5.915 -1.2607 -1.6505 -0.7940
 6071TIP3    H218159   7.833   0.824   5.972 -1.5730 -1.7078 -0.2627
 6072TIP3   OH218160   1.523   4.761   0.451  0.0567 -0.2308  0.3375
 6072TIP3    H118161   1.560   4.753   0.539  0.3602 -0.7762  0.1617
 6072TIP3    H218162   1.543   4.677   0.409 -0.4174 -0.1149 -0.1241
 6073TIP3   OH218163   4.244   0.776   5.388  0.3846 -0.0121 -0.0042
 6073TIP3    H118164   4.329   0.751   5.423  0.5191  2.0226  1.2141
 6073TIP3    H218165   4.187   0.785   5.465  0.1189  2.4376 -0.4451
 6074TIP3   OH218166   6.213   3.960   4.300  0.2443 -0.3345 -0.3491
 6074TIP3    H118167   6.278   4.004   4.355 -0.8167  0.9265 -0.0864
 6074TIP3    H218168   6.206   4.015   4.222 -0.7603 -0.2671 -0.2185
 6075TIP3   OH218169   5.199   1.479   4.065 -0.2386 -0.2685  0.1174
 6075TIP3    H118170   5.240   1.393   4.057  0.1644  0.0396 -1.5152
 6075TIP3    H218171   5.268   1.535   4.100 -0.0353 -0.3090 -0.2075
 6076TIP3   OH218172   8.325   0.189   4.521  0.2453  0.6022  0.4920
 6076TIP3    H118173   8.349   0.125   4.453 -0.7079  0.9255 -0.1651
 6076TIP3    H218174   8.392   0.178   4.589  1.3008  0.3757 -0.5661
 6077TIP3   OH218175   6.328   0.815   4.186  0.4372 -0.0961  0.2176
 6077TIP3    H118176   6.288   0.738   4.226 -1.9111  0.9039 -0.1178
 6077TIP3    H218177   6.327   0.796   4.092  0.9781 -0.1669  0.2254
 6078TIP3   OH218178   1.870   6.153   0.868  0.4502 -0.1015 -0.2213
 6078TIP3    H118179   1.789   6.199   0.889  1.4771  2.5421 -1.7757
 6078TIP3    H218180   1.851   6.105   0.787  0.1258 -0.3609  0.0080
 6079TIP3   OH218181   7.287   2.529   5.830  0.1363  0.1600  0.1467
 6079TIP3    H118182   7.259   2.469   5.761  0.0174  0.6456 -0.2344
 6079TIP3    H218183   7.359   2.484   5.874 -0.3787 -0.5350  0.2794
 6080TIP3   OH218184   7.263   2.382   5.381 -0.3773  0.1362 -0.2589
 6080TIP3    H118185   7.358   2.367   5.376 -0.1658  1.4376 -0.4256
 6080TIP3    H218186   7.235   2.389   5.290 -0.5969 -0.0600 -0.2051
 6081TIP3   OH218187   0.457   2.118   3.719  0.2974  0.0761 -0.0798
 6081TIP3    H118188   0.408   2.198   3.741 -1.2122 -0.5341 -1.1096
 6081TIP3    H218189   0.509   2.099   3.797 -0.7907  0.9977  0.8844
 6082TIP3   OH218190   3.211   7.852   4.618 -0.4156  0.0966 -0.6469
 6082TIP3    H118191   3.171   7.804   4.546 -0.5743  1.8966 -1.7811
 6082TIP3    H218192   3.296   7.880   4.584  0.4177 -0.8409  0.6044
 6083TIP3   OH218193   3.166   7.796   3.734  0.0326  0.0660  0.1567
 6083TIP3    H118194   3.078   7.781   3.700 -0.1311 -2.1260  1.4342
 6083TIP3    H218195   3.200   7.709   3.751  1.6002  0.9591  1.7972
 6084TIP3   OH218196   6.052   1.362   3.895 -0.3091  0.2130  0.4952
 6084TIP3    H118197   6.018   1.394   3.978 -0.6471 -1.5521  1.0394
 6084TIP3    H218198   5.989   1.395   3.830 -1.7199 -0.9369  1.2470
 6085TIP3   OH218199   5.829   2.303   6.115  0.3124 -0.7452  0.3522
 6085TIP3    H118200   5.874   2.266   6.039 -0.9306 -0.9126 -0.3283
 6085TIP3    H218201   5.897   2.348   6.164  1.0165  0.0700 -1.3111
 6086TIP3   OH218202   3.743   7.370   2.107 -0.2746 -0.8666 -0.6319
 6086TIP3    H118203   3.712   7.284   2.136  0.4484 -1.1795 -0.7549
 6086TIP3    H218204   3.837   7.369   2.129 -0.4485  0.2383  0.1999
 6087TIP3   OH218205   8.323   1.502   3.866 -0.0863  0.0033 -0.2925
 6087TIP3    H118206   8.248   1.460   3.824 -0.4197  1.0371 -0.7463
 6087TIP3    H218207   8.365   1.552   3.795 -0.8440  2.0442  0.6699
 6088TIP3   OH218208   5.815   7.900   5.580  0.0379  0.2666  0.1711
 6088TIP3    H118209   5.895   7.850   5.562  0.8397  1.1956  1.0921
 6088TIP3    H218210   5.795   7.945   5.498  0.4146 -0.0232 -0.0822
 6089TIP3   OH218211   2.384   5.790   0.325 -0.2725  0.1807  0.5542
 6089TIP3    H118212   2.393   5.732   0.401  0.0224  2.0224  1.9671
 6089TIP3    H218213   2.371   5.730   0.251  0.9079 -1.7235  1.8202
 6090TIP3   OH218214   7.813   0.433   3.154 -0.2538  0.3429 -0.1681
 6090TIP3    H118215   7.900   0.443   3.115  0.2330 -0.3210  0.7384
 6090TIP3    H218216   7.828   0.381   3.233 -1.2542  1.6094  0.8588
 6091TIP3   OH218217   0.371   2.375   6.558 -0.2379 -0.4644 -0.1484
 6091TIP3    H118218   0.432   2.372   6.484  1.1015 -1.0111  0.9611
 6091TIP3    H218219   0.376   2.466   6.589  0.4853 -0.6571  0.3171
 6092TIP3   OH218220   7.804   2.270   5.412  0.2529  0.0456 -0.0136
 6092TIP3    H118221   7.828   2.178   5.411 -1.0243 -0.2825 -1.0389
 6092TIP3    H218222   7.811   2.296   5.504 -3.7923 -2.2505  1.0211
 6093TIP3   OH218223   7.418   2.159   4.042 -0.1684  0.2578 -0.3223
 6093TIP3    H118224   7.386   2.237   3.995 -1.3740 -0.5052 -0.7894
 6093TIP3    H218225   7.469   2.112   3.976 -0.0303  0.2939 -0.2409
 6094TIP3   OH218226   3.528   3.399   3.865  0.2663  0.2129  0.2039
 6094TIP3    H118227   3.556   3.488   3.844  2.6194 -0.2712  1.1092
 6094TIP3    H218228   3.550   3.388   3.958  0.7221 -1.5696 -0.0928
 6095TIP3   OH218229   4.072   3.911   5.418 -0.2978  0.2708  0.1271
 6095TIP3    H118230   4.059   3.823   5.452  1.5214 -0.7692 -1.7817
 6095TIP3    H218231   4.103   3.961   5.494  0.3837 -1.1704  0.8205
 6096TIP3   OH218232   6.430   1.955   3.166 -0.3441 -0.3467  0.5082
 6096TIP3    H118233   6.455   1.863   3.177  1.9294  0.2827  0.9040
 6096TIP3    H218234   6.347   1.952   3.118 -0.7884 -2.6267  1.3622
 6097TIP3   OH218235   8.334   2.533   3.560  0.4228  0.0258  0.0692
 6097TIP3    H118236   8.242   2.548   3.536  0.9765  1.7260 -1.0576
 6097TIP3    H218237   8.352   2.443   3.533 -0.1776  0.5326 -2.0694
 6098TIP3   OH218238   6.151   3.298   4.530 -0.3425  0.3545  0.2510
 6098TIP3    H118239   6.157   3.241   4.606 -0.6022  0.3406  0.2611
 6098TIP3    H218240   6.222   3.361   4.542  1.3262 -1.2768 -0.8546
 6099TIP3   OH218241   6.615   2.075   4.444  1.2858  0.8103 -0.3952
 6099TIP3    H118242   6.580   2.047   4.360 -1.8403  2.1709  0.3480
 6099TIP3    H218243   6.628   2.169   4.434 -2.0292  1.5674  1.4763
 6100TIP3   OH218244   5.763   0.407   1.226 -0.1445  0.4837  0.1147
 6100TIP3    H118245   5.739   0.488   1.270 -0.5513  1.1083 -1.2160
 6100TIP3    H218246   5.779   0.345   1.296 -1.7976  1.1564  1.1032
 6101TIP3   OH218247   0.132   1.649   2.078  0.4264 -0.5130 -0.1794
 6101TIP3    H118248   0.139   1.668   2.172 -0.7147  3.3933 -0.8258
 6101TIP3    H218249   0.039   1.632   2.064  0.4005  0.2119 -0.8487
 6102TIP3   OH218250   0.073   0.921   4.281 -0.2627  0.0645  0.0834
 6102TIP3    H118251   0.098   0.991   4.220 -2.1611  0.3199 -0.4380
 6102TIP3    H218252   0.099   0.841   4.236  0.2275  0.3534 -0.1548
 6103TIP3   OH218253   8.034   0.333   4.896  0.0063 -0.2174  0.2218
 6103TIP3    H118254   8.096   0.367   4.832  1.1867 -0.2698  1.3218
 6103TIP3    H218255   7.964   0.294   4.844 -0.0684  1.5574 -1.0496
 6104TIP3   OH218256   5.134   1.586   3.591 -0.1893  0.0906 -0.1012
 6104TIP3    H118257   5.039   1.595   3.589 -0.2956 -0.9083 -0.2808
 6104TIP3    H218258   5.160   1.614   3.678 -0.9901 -2.5347  1.0154
 6105TIP3   OH218259   6.505   1.995   3.595  0.1743  0.2183  0.4374
 6105TIP3    H118260   6.554   1.967   3.673  0.5570  1.1504  0.5293
 6105TIP3    H218261   6.571   2.001   3.526 -0.0885 -0.1266  0.1511
 6106TIP3   OH218262   7.704   1.340   3.266 -0.1200  0.1031 -0.7858
 6106TIP3    H118263   7.743   1.414   3.312 -0.4919 -1.4824  2.2161
 6106TIP3    H218264   7.613   1.338   3.298  0.5239 -3.0308  1.0697
 6107TIP3   OH218265   6.350   2.330   4.442  1.0029  0.6362 -0.2568
 6107TIP3    H118266   6.366   2.380   4.522 -0.8980  1.8645 -0.6117
 6107TIP3    H218267   6.356   2.395   4.372  0.7981 -0.0757 -0.9408
 6108TIP3   OH218268   0.266   0.626   5.150  0.0537  0.3239  0.2226
 6108TIP3    H118269   0.341   0.585   5.107 -0.2883  0.6503 -0.7101
 6108TIP3    H218270   0.290   0.718   5.157  1.6334 -0.3070  4.0767
 6109TIP3   OH218271   0.264   1.888   3.786  0.4057  0.6062  0.2903
 6109TIP3    H118272   0.176   1.912   3.812  1.3142  1.8407  2.3516
 6109TIP3    H218273   0.305   1.970   3.759  1.3447  0.2473  0.6014
 6110TIP3   OH218274   6.608   2.040   4.749  0.1143 -0.3563 -0.0448
 6110TIP3    H118275   6.577   2.128   4.729  1.7830  0.1396 -0.5447
 6110TIP3    H218276   6.629   2.002   4.664 -0.2876 -1.1181  0.1954
 6111TIP3   OH218277   4.434   7.918   4.180 -0.2636 -0.2642  0.0112
 6111TIP3    H118278   4.385   7.928   4.263 -0.5922 -0.7826 -0.1217
 6111TIP3    H218279   4.511   7.868   4.204 -0.9250 -1.3997 -0.2116
 6112TIP3   OH218280   5.814   1.090   4.150 -0.1595 -0.4230 -0.2419
 6112TIP3    H118281   5.750   1.033   4.191 -0.6320 -0.6353 -1.2629
 6112TIP3    H218282   5.833   1.049   4.066 -0.1016  0.6275 -0.7502
 6113TIP3   OH218283   7.753   0.839   4.745  0.2032 -0.1904 -0.7741
 6113TIP3    H118284   7.672   0.788   4.741  0.3225 -0.3357 -1.3462
 6113TIP3    H218285   7.786   0.824   4.834 -1.9223  2.2282  0.4716
 6114TIP3   OH218286   5.908   2.740   5.142  0.2479 -0.2074 -0.8739
 6114TIP3    H118287   5.986   2.689   5.121  0.0586 -1.3934  1.2356
 6114TIP3    H218288   5.921   2.769   5.232 -1.3434  0.3328 -0.8029
 6115TIP3   OH218289   6.754   2.839   5.100  0.3025 -0.1521 -0.5732
 6115TIP3    H118290   6.692   2.872   5.036 -0.4316  0.5093  0.4682
 6115TIP3    H218291   6.717   2.756   5.129  1.5923 -1.4038 -2.3777
 6116TIP3   OH218292   0.192   1.133   6.878  0.2429 -0.4968 -0.2384
 6116TIP3    H118293   0.124   1.075   6.842  0.0058  0.8419 -2.0444
 6116TIP3    H218294   0.238   1.080   6.942 -2.4224 -1.4868  0.9179
 6117TIP3   OH218295   7.569   1.687   6.875  0.0737 -0.3734  0.4317
 6117TIP3    H118296   7.599   1.660   6.962  1.4101  0.6127  0.2824
 6117TIP3    H218297   7.580   1.782   6.874 -1.3507 -0.1955 -0.2989
 6118TIP3   OH218298   7.113   3.273   4.309 -0.5867  0.2685  0.1137
 6118TIP3    H118299   7.172   3.332   4.357 -0.2481 -2.2195  2.8840
 6118TIP3    H218300   7.041   3.256   4.369 -2.6179  0.7600 -2.0790
 6119TIP3   OH218301   7.475   2.626   3.915 -0.2504 -0.0909 -0.0844
 6119TIP3    H118302   7.444   2.608   3.826  1.7045 -0.5915 -0.6870
 6119TIP3    H218303   7.503   2.718   3.912 -0.7229  0.0630  0.1789
 6120TIP3   OH218304   4.658   2.635   6.504 -0.0912 -0.1786  0.1220
 6120TIP3    H118305   4.736   2.667   6.549 -0.8405 -1.9439  2.7889
 6120TIP3    H218306   4.586   2.687   6.540 -0.6011 -1.0236  0.3291
 6121TIP3   OH218307   6.066   0.190   6.399  0.0699 -0.1416  0.1805
 6121TIP3    H118308   6.161   0.203   6.399  0.0217  0.3883 -1.3824
 6121TIP3    H218309   6.030   0.279   6.393 -0.5164 -0.3648  0.3943
 6122TIP3   OH218310   6.776   1.504   3.412 -0.5528 -0.0491 -0.3117
 6122TIP3    H118311   6.741   1.576   3.359 -1.2403  0.0144  0.2238
 6122TIP3    H218312   6.848   1.470   3.360 -1.1424  0.0936 -1.2473
 6123TIP3   OH218313   4.258   1.917   4.885  0.6056  0.2975  0.2338
 6123TIP3    H118314   4.278   2.000   4.842  0.5575  0.1590 -0.0599
 6123TIP3    H218315   4.297   1.851   4.828 -1.6311 -0.0432 -0.9645
 6124TIP3   OH218316   5.941   1.620   4.332 -0.4224 -0.1757  0.2684
 6124TIP3    H118317   5.991   1.681   4.387 -0.3471  0.4136 -0.4508
 6124TIP3    H218318   5.889   1.569   4.395 -0.9485  1.0407  0.8509
 6125TIP3   OH218319   3.782   2.042   6.645 -0.8958  0.5216 -0.3860
 6125TIP3    H118320   3.689   2.062   6.647 -1.4293 -1.8964  0.6169
 6125TIP3    H218321   3.817   2.084   6.724 -1.2851  0.7403 -0.3282
 6126TIP3   OH218322   5.397   1.795   5.887  0.4260  0.0781 -0.5371
 6126TIP3    H118323   5.387   1.841   5.971  1.7254 -0.1543 -0.2445
 6126TIP3    H218324   5.347   1.847   5.825 -0.8255  0.0775  0.4444
 6127TIP3   OH218325   6.389   1.592   6.495 -0.2251 -0.3315 -0.6193
 6127TIP3    H118326   6.360   1.566   6.408 -0.7200 -1.6437 -0.0763
 6127TIP3    H218327   6.443   1.670   6.480 -3.0110  1.4511 -1.7767
 6128TIP3   OH218328   5.384   0.705   5.417 -0.1564  0.0885  0.5459
 6128TIP3    H118329   5.396   0.646   5.343  0.0112 -0.1686  0.7778
 6128TIP3    H218330   5.309   0.669   5.465  0.5850 -0.5272  1.2574
 6129TIP3   OH218331   0.822   0.825   2.645  0.8820  0.2307 -0.1149
 6129TIP3    H118332   0.760   0.857   2.579  1.1555 -1.2634 -1.1417
 6129TIP3    H218333   0.897   0.794   2.594  0.4665 -2.3603  0.7468
 6130TIP3   OH218334   8.338   4.510   4.262 -0.1156  0.3451  0.6244
 6130TIP3    H118335   8.321   4.536   4.352  1.0082  1.8268  0.4201
 6130TIP3    H218336   8.393   4.579   4.226  1.5421 -1.4606 -0.4540
 6131TIP3   OH218337   5.603   1.444   1.816  0.2687 -0.7366  0.0898
 6131TIP3    H118338   5.530   1.417   1.872  0.4806  1.2806  1.4074
 6131TIP3    H218339   5.656   1.365   1.805 -1.1500 -1.7738  0.6228
 6132TIP3   OH218340   7.285   1.871   5.063  0.1035  0.4465  0.3072
 6132TIP3    H118341   7.191   1.889   5.056  0.1339  0.0974 -1.4043
 6132TIP3    H218342   7.307   1.894   5.153 -1.6646  0.3338  0.8009
 6133TIP3   OH218343   0.674   2.582   0.610 -0.0265 -0.2132 -0.2156
 6133TIP3    H118344   0.736   2.634   0.662  0.5073 -0.7709 -0.2921
 6133TIP3    H218345   0.599   2.569   0.667  0.2962 -0.2834  0.1908
 6134TIP3   OH218346   8.453   0.340   3.639  0.0895 -0.7932 -0.1734
 6134TIP3    H118347   8.518   0.284   3.595 -0.2348 -1.5652  0.3156
 6134TIP3    H218348   8.496   0.425   3.646  0.4240 -0.8562 -1.3314
 6135TIP3   OH218349   8.037   1.478   2.439 -0.1436 -0.0314 -0.0195
 6135TIP3    H118350   7.979   1.401   2.438 -0.5973  0.2085  3.1162
 6135TIP3    H218351   7.977   1.552   2.450  0.4563  0.6060 -1.0497
 6136TIP3   OH218352   7.612   1.394   1.852 -0.2359  0.3796 -0.7190
 6136TIP3    H118353   7.639   1.472   1.899  1.7319  0.2594 -1.6356
 6136TIP3    H218354   7.609   1.326   1.920 -3.2012  1.4411  0.3381
 6137TIP3   OH218355   0.929   3.308   4.901  0.1479 -0.1072  0.1669
 6137TIP3    H118356   0.895   3.232   4.854 -0.1378  0.8150 -1.1525
 6137TIP3    H218357   1.003   3.338   4.848  0.2187  0.5713  0.6462
 6138TIP3   OH218358   6.494   1.644   3.197  0.5807 -0.4340 -0.3684
 6138TIP3    H118359   6.579   1.665   3.159  0.8514 -0.8063  0.0177
 6138TIP3    H218360   6.512   1.633   3.291  0.1962 -1.0094 -0.3589
 6139TIP3   OH218361   7.791   1.278   1.452  0.2488  0.1620  0.6232
 6139TIP3    H118362   7.855   1.349   1.444 -0.5626  1.0376  1.6857
 6139TIP3    H218363   7.708   1.322   1.470 -0.5158 -1.0013  0.0254
 6140TIP3   OH218364   8.151   1.547   3.154  0.1129  0.1036 -0.2634
 6140TIP3    H118365   8.231   1.591   3.125  0.0610 -0.0003 -0.5688
 6140TIP3    H218366   8.173   1.510   3.239  0.4553 -0.1049 -0.4401
 6141TIP3   OH218367   7.429   1.362   3.348 -0.1056  0.1833 -0.6393
 6141TIP3    H118368   7.391   1.347   3.435  0.9038 -0.2420 -0.2626
 6141TIP3    H218369   7.353   1.370   3.290 -0.7755 -1.3336 -0.0041
 6142TIP3   OH218370   6.894   1.634   4.674  0.0876  0.0385 -0.6187
 6142TIP3    H118371   6.914   1.540   4.677  0.8191  0.1991 -0.3777
 6142TIP3    H218372   6.972   1.674   4.637  0.1049  0.6435  0.0648
 6143TIP3   OH218373   2.413   1.056   6.117 -0.3159  0.6059 -0.0310
 6143TIP3    H118374   2.390   1.126   6.178 -0.5493 -0.0398  0.6229
 6143TIP3    H218375   2.446   0.986   6.172 -0.0833  0.1938 -0.6887
 6144TIP3   OH218376   4.019   7.288   3.896 -0.7619  0.0925 -0.0040
 6144TIP3    H118377   3.947   7.277   3.834 -0.2044  0.8573 -0.7954
 6144TIP3    H218378   4.055   7.374   3.877  0.5554 -0.4017  0.1745
 6145TIP3   OH218379   1.277   0.998   2.000  0.4178 -0.2964 -0.0271
 6145TIP3    H118380   1.247   1.089   2.003 -0.5083 -0.6388  2.8588
 6145TIP3    H218381   1.208   0.951   1.952  0.0847  0.2488 -0.0771
 6146TIP3   OH218382   1.816   1.859   4.307  0.2035  0.4695 -0.6757
 6146TIP3    H118383   1.879   1.869   4.378 -1.1045 -0.5269  0.6488
 6146TIP3    H218384   1.790   1.767   4.311  0.5049  0.2662 -2.7905
 6147TIP3   OH218385   7.118   1.250   0.465  0.4445 -0.0241 -0.4882
 6147TIP3    H118386   7.185   1.272   0.399  0.3877 -0.9658 -0.8640
 6147TIP3    H218387   7.035   1.274   0.424  0.4576  0.0464 -0.4755
 6148TIP3   OH218388   5.195   7.974   3.744 -0.1316  0.5983 -0.6568
 6148TIP3    H118389   5.139   7.916   3.795  1.7978  0.5861  1.5500
 6148TIP3    H218390   5.264   7.917   3.711  0.1746  1.1251 -0.9291
 6149TIP3   OH218391   7.786   2.741   3.804  0.1143  0.2978 -0.1618
 6149TIP3    H118392   7.830   2.674   3.856 -3.4206 -1.8163  0.2392
 6149TIP3    H218393   7.769   2.812   3.867 -0.9961 -0.7594  0.7477
 6150TIP3   OH218394   6.336   7.959   0.925 -0.1936  0.3100  0.2373
 6150TIP3    H118395   6.279   7.907   0.869 -0.4828  2.0194 -1.1138
 6150TIP3    H218396   6.303   8.049   0.916 -0.3222  0.6331  3.2334
 6151TIP3   OH218397   8.271   1.053   4.588  0.5619  0.4417 -0.1136
 6151TIP3    H118398   8.199   1.008   4.546  0.2973  0.2594  0.5310
 6151TIP3    H218399   8.254   1.146   4.573  0.1322  0.4026  0.1404
 6152TIP3   OH218400   7.763   0.232   2.925  0.1258  0.0301 -0.6518
 6152TIP3    H118401   7.794   0.179   2.999 -0.9814 -0.3790 -0.4729
 6152TIP3    H218402   7.760   0.322   2.960 -2.8152 -0.5155  0.5997
 6153TIP3   OH218403   3.166   7.515   3.651  0.4529  0.3298 -0.2295
 6153TIP3    H118404   3.107   7.477   3.585  0.5955 -0.4454  0.0851
 6153TIP3    H218405   3.252   7.511   3.611  0.3981  0.7891 -0.3961
 6154TIP3   OH218406   6.764   2.005   3.423 -0.8528  0.2364  0.4137
 6154TIP3    H118407   6.725   2.043   3.345 -1.4864  2.7608  1.9035
 6154TIP3    H218408   6.831   2.068   3.450 -2.0213  0.4427  3.0240
 6155TIP3   OH218409   7.250   0.280   2.343 -0.1354  0.3740 -0.1660
 6155TIP3    H118410   7.306   0.202   2.343 -1.7220 -0.8451 -3.4496
 6155TIP3    H218411   7.312   0.354   2.340  1.3306 -0.8011  0.4933
 6156TIP3   OH218412   0.401   1.372   3.354 -0.9195 -0.5315 -0.0031
 6156TIP3    H118413   0.471   1.436   3.369 -1.0107  0.2285 -2.5193
 6156TIP3    H218414   0.447   1.288   3.346 -0.5760 -0.4502  1.0053
 6157TIP3   OH218415   7.737   0.153   2.520  0.2927 -0.5182  0.1576
 6157TIP3    H118416   7.680   0.197   2.584  0.8146  0.0805  0.2234
 6157TIP3    H218417   7.699   0.174   2.435  0.5361  0.0821  0.1876
 6158TIP3   OH218418   7.309   7.508   4.372 -0.2925  0.4796 -0.2867
 6158TIP3    H118419   7.247   7.468   4.311  2.1709 -0.9028 -1.9847
 6158TIP3    H218420   7.336   7.589   4.330 -0.5566  0.8308  0.2124
 6159TIP3   OH218421   0.576   1.320   2.230  0.1989  0.2991 -0.0170
 6159TIP3    H118422   0.624   1.389   2.184  0.0852 -0.2766 -1.0202
 6159TIP3    H218423   0.485   1.349   2.228 -0.1083 -0.7560 -2.0722
 6160TIP3   OH218424   0.370   1.637   4.568 -0.4643 -0.3425  0.2681
 6160TIP3    H118425   0.324   1.571   4.516  0.7799  1.3351 -3.1221
 6160TIP3    H218426   0.306   1.706   4.582 -0.1289  0.3004 -1.2221
 6161TIP3   OH218427   6.306   7.867   4.020  0.0707  0.4795  0.3237
 6161TIP3    H118428   6.247   7.942   4.029 -0.1963  0.1875  1.0903
 6161TIP3    H218429   6.375   7.885   4.084 -0.1194 -0.0433  0.6778
 6162TIP3   OH218430   1.333   2.299   3.779 -0.8555  0.2340 -0.7662
 6162TIP3    H118431   1.322   2.208   3.806  0.3826  0.5053  0.6989
 6162TIP3    H218432   1.301   2.350   3.854  3.5830  1.0118  0.7293
 6163TIP3   OH218433   7.976   1.283   3.522  0.1061  0.5705 -0.0404
 6163TIP3    H118434   7.940   1.267   3.609  0.8820  1.4523  0.4625
 6163TIP3    H218435   7.991   1.196   3.485 -0.5966  0.1957  0.5555
 6164TIP3   OH218436   3.853   7.968   3.666  0.3718  0.3311 -0.0196
 6164TIP3    H118437   3.773   7.977   3.614 -0.0830  3.5040  1.1020
 6164TIP3    H218438   3.924   7.989   3.605  0.3062 -1.5472 -0.7705
 6165TIP3   OH218439   8.161   1.328   4.648  0.5207  0.4715 -0.1334
 6165TIP3    H118440   8.220   1.401   4.667  1.2805 -0.3340  0.6488
 6165TIP3    H218441   8.151   1.283   4.732 -0.1146 -0.2018 -0.5632
 6166TIP3   OH218442   8.107   0.338   2.028  0.4410 -0.1354  0.2771
 6166TIP3    H118443   8.042   0.274   1.998  1.7958 -1.0957 -0.6670
 6166TIP3    H218444   8.155   0.363   1.949  2.2774 -0.6636  1.2090
 6167TIP3   OH218445   0.348   3.244   4.087 -0.6943 -0.1081 -0.2486
 6167TIP3    H118446   0.396   3.220   4.008 -1.7901 -1.0325 -0.6459
 6167TIP3    H218447   0.294   3.167   4.106 -2.5774  1.1974 -0.2379
 6168TIP3   OH218448   1.769   0.599   5.608  0.0900  0.2805 -0.4032
 6168TIP3    H118449   1.785   0.694   5.607 -0.7543  0.4250 -1.1506
 6168TIP3    H218450   1.829   0.565   5.674 -1.2794  1.6567  1.6131
 6169TIP3   OH218451   1.036   1.385   6.327 -0.3580  0.2982 -0.5506
 6169TIP3    H118452   1.033   1.293   6.353 -2.1352  0.1418 -1.2301
 6169TIP3    H218453   1.102   1.388   6.257  0.5925 -0.2262  0.3171
 6170TIP3   OH218454   6.629   0.811   1.565  0.0225 -0.4572  0.8116
 6170TIP3    H118455   6.544   0.768   1.559 -0.3842  0.5944 -2.1540
 6170TIP3    H218456   6.617   0.880   1.631 -1.7821  0.3903 -0.3808
 6171TIP3   OH218457   4.659   5.227   0.090  0.2370 -0.6219 -0.0139
 6171TIP3    H118458   4.677   5.272   0.008  2.4645 -0.4237  0.5534
 6171TIP3    H218459   4.563   5.226   0.097  0.0393 -0.5560 -2.5333
 6172TIP3   OH218460   4.918   4.290   0.297 -0.8272 -0.2568 -0.3657
 6172TIP3    H118461   4.999   4.316   0.341  0.3816 -0.1198 -2.5912
 6172TIP3    H218462   4.920   4.195   0.298  1.3366 -0.3133 -3.8042
 6173TIP3   OH218463   8.476   2.877   3.083  0.0435  0.4584  0.2349
 6173TIP3    H118464   8.480   2.804   3.021  3.3814 -0.0141  0.9276
 6173TIP3    H218465   8.436   2.949   3.034  0.0154 -0.7733 -1.5647
 6174TIP3   OH218466   3.969   5.546   0.289  0.4373 -0.5777 -0.0736
 6174TIP3    H118467   3.883   5.579   0.263  1.0276  0.2770 -0.9671
 6174TIP3    H218468   3.958   5.451   0.291 -0.1275 -0.5773 -1.7647
 6175TIP3   OH218469   3.219   0.765   5.146 -0.9070 -0.0156 -0.0827
 6175TIP3    H118470   3.310   0.756   5.175  0.2846  3.6874 -2.3286
 6175TIP3    H218471   3.174   0.805   5.221 -0.1448  0.2855  0.2214
 6176TIP3   OH218472   0.395   0.563   3.776 -0.3397  0.4626  0.2830
 6176TIP3    H118473   0.365   0.543   3.688 -0.6744 -0.1518  0.5343
 6176TIP3    H218474   0.320   0.604   3.819 -0.5547 -0.3151  0.6516
 6177TIP3   OH218475   0.743   0.995   4.671  0.1466 -0.1367 -0.1949
 6177TIP3    H118476   0.740   1.088   4.694 -1.1474 -0.3484  0.5947
 6177TIP3    H218477   0.834   0.979   4.646  0.1908  1.5256 -1.1570
 6178TIP3   OH218478   1.271   0.714   5.446 -0.4771  0.0818  0.0282
 6178TIP3    H118479   1.336   0.723   5.517  0.4738 -0.6333 -0.7347
 6178TIP3    H218480   1.291   0.786   5.387  0.2063 -0.6549 -0.6536
 6179TIP3   OH218481   0.762   2.140   5.388 -0.8073 -0.1826  0.1128
 6179TIP3    H118482   0.740   2.047   5.385 -1.0189 -0.1368  0.2878
 6179TIP3    H218483   0.853   2.142   5.418 -0.6879 -0.3489 -0.2297
 6180TIP3   OH218484   1.562   1.895   4.687 -0.3512 -0.3650 -0.5292
 6180TIP3    H118485   1.651   1.886   4.719 -0.4959 -1.3403 -0.3913
 6180TIP3    H218486   1.558   1.839   4.609 -0.8399 -0.3195 -0.5412
 6181TIP3   OH218487   2.076   1.523   5.824  0.1825 -0.7437  0.1024
 6181TIP3    H118488   2.020   1.599   5.813  1.9492  0.5417 -0.0932
 6181TIP3    H218489   2.045   1.482   5.906 -2.7440 -1.5772 -1.3395
 6182TIP3   OH218490   0.892   1.115   4.055  0.2429 -0.2426  0.2095
 6182TIP3    H118491   0.985   1.119   4.033  0.2826 -0.4318  0.3510
 6182TIP3    H218492   0.862   1.206   4.045  0.4322 -0.1884  0.1267
 6183TIP3   OH218493   0.841   3.090   4.767 -0.2839 -0.1482 -0.0625
 6183TIP3    H118494   0.775   3.025   4.742  1.6808 -1.7170 -1.3425
 6183TIP3    H218495   0.877   3.121   4.684 -0.2264  1.5399  0.5861
 6184TIP3   OH218496   7.785   1.488   4.083 -0.5289  0.0109 -0.0714
 6184TIP3    H118497   7.710   1.526   4.038 -0.0227  0.6242 -0.4081
 6184TIP3    H218498   7.749   1.416   4.134 -1.1988 -0.2731 -0.9533
 6185TIP3   OH218499   3.018   1.549   5.409 -0.2453 -0.2270 -0.2603
 6185TIP3    H118500   3.103   1.533   5.450 -1.8180 -0.0088  3.2729
 6185TIP3    H218501   3.029   1.630   5.361  0.7575  1.4369  2.6550
 6186TIP3   OH218502   4.478   4.653   0.205  0.1905  0.6884  0.4703
 6186TIP3    H118503   4.438   4.719   0.148 -1.4589 -1.6433 -1.1530
 6186TIP3    H218504   4.567   4.644   0.172 -0.5507 -0.1488 -1.3509
 6187TIP3   OH218505   2.580   1.762   5.982 -0.6304  0.3260  0.2271
 6187TIP3    H118506   2.579   1.761   5.887 -0.8798 -3.0812  0.1851
 6187TIP3    H218507   2.536   1.681   6.007  0.1452  0.7636  3.2291
 6188TIP3   OH218508   0.790   2.395   3.397 -0.5259  0.7634 -0.7460
 6188TIP3    H118509   0.707   2.348   3.394 -0.0687 -0.1960  0.9222
 6188TIP3    H218510   0.852   2.336   3.356  0.1239 -0.3022  1.6824
 6189TIP3   OH218511   1.120   3.562   4.478  0.3029  0.0289 -0.7283
 6189TIP3    H118512   1.198   3.617   4.479 -0.3386  0.9490  0.0479
 6189TIP3    H218513   1.050   3.621   4.450 -0.1757 -0.6896 -1.0510
 6190TIP3   OH218514   4.459   0.839   4.871 -0.4536 -0.2126  0.4101
 6190TIP3    H118515   4.438   0.785   4.946  1.3257  0.1834  1.2272
 6190TIP3    H218516   4.554   0.851   4.876 -0.1397 -1.0937 -2.5020
 6191TIP3   OH218517   1.995   0.316   6.249  0.2005  0.3164  0.0510
 6191TIP3    H118518   1.937   0.305   6.324 -1.7144  2.2029 -1.1101
 6191TIP3    H218519   2.083   0.307   6.285 -0.7561 -1.0740  2.0966
 6192TIP3   OH218520   1.607   4.669   4.998 -0.3529 -0.3195 -0.1413
 6192TIP3    H118521   1.617   4.586   5.045 -0.8249  0.4085  1.2685
 6192TIP3    H218522   1.654   4.656   4.915  2.7170 -0.7806  1.6040
 6193TIP3   OH218523   0.671   4.036   5.364  0.3584 -0.0621 -0.1262
 6193TIP3    H118524   0.762   4.035   5.393  1.0390 -1.3025 -2.2093
 6193TIP3    H218525   0.646   4.128   5.368  2.1697  0.4950 -0.8759
 6194TIP3   OH218526   5.559   5.032   0.295  0.0631 -0.1207  0.5294
 6194TIP3    H118527   5.627   5.088   0.331  0.8530 -0.3071 -0.6391
 6194TIP3    H218528   5.490   5.092   0.268  0.5329  0.2172  0.0799
 6195TIP3   OH218529   0.640   0.862   5.035  0.7279 -0.3948  0.0771
 6195TIP3    H118530   0.639   0.950   4.998 -0.1337 -0.6164 -0.4171
 6195TIP3    H218531   0.655   0.876   5.129 -3.6241  0.5413  0.7357
 6196TIP3   OH218532   0.999   1.543   4.161  0.3521 -0.1527 -0.4061
 6196TIP3    H118533   1.035   1.462   4.196  0.5591 -0.2605 -0.8672
 6196TIP3    H218534   1.012   1.607   4.231 -0.4461 -0.6744  0.2398
 6197TIP3   OH218535   3.980   2.107   5.951  0.1063 -0.1132 -0.2260
 6197TIP3    H118536   3.946   2.187   5.911 -1.5483 -0.7067 -0.0504
 6197TIP3    H218537   4.039   2.070   5.885 -1.8125 -0.5529 -1.7410
 6198TIP3   OH218538   3.334   1.917   6.193 -0.1343  0.0347 -0.0782
 6198TIP3    H118539   3.356   1.858   6.121  2.2443  1.1870 -0.3731
 6198TIP3    H218540   3.300   1.860   6.262  1.4376 -1.6121 -0.6109
 6199TIP3   OH218541   4.428   2.743   5.671 -0.6349  0.2524  0.7038
 6199TIP3    H118542   4.497   2.709   5.728 -0.0618 -1.8775 -1.1463
 6199TIP3    H218543   4.410   2.831   5.704  2.8931  0.8209  1.3034
 6200TIP3   OH218544   2.956   5.410   0.180  0.0480  0.1347  0.5842
 6200TIP3    H118545   2.921   5.485   0.229  0.6055  1.1457 -0.5223
 6200TIP3    H218546   2.889   5.391   0.114  1.1673  1.5853 -1.0424
 6201TIP3   OH218547   2.947   3.830   6.470 -0.5366  0.0527  0.1429
 6201TIP3    H118548   3.031   3.873   6.484 -0.8094  0.3655  0.8316
 6201TIP3    H218549   2.940   3.821   6.375  0.0474  0.4797  0.0601
 6202TIP3   OH218550   0.285   1.212   6.009  0.0568 -0.2275  0.3845
 6202TIP3    H118551   0.193   1.226   6.027  0.3699  1.0270  1.0495
 6202TIP3    H218552   0.327   1.218   6.095  1.0506  1.5752 -0.2019
 6203TIP3   OH218553   1.269   3.154   5.199  0.3310  0.4680 -0.1568
 6203TIP3    H118554   1.233   3.211   5.132  0.1035  0.1567 -0.3015
 6203TIP3    H218555   1.204   3.154   5.269  0.0050 -0.1635 -0.4561
 6204TIP3   OH218556   4.968   0.393   0.753  0.1022  0.2655  0.3851
 6204TIP3    H118557   5.043   0.406   0.811  0.2707 -1.4301  0.5888
 6204TIP3    H218558   4.993   0.318   0.699 -0.4082  1.2854 -1.3049
 6205TIP3   OH218559   1.812   1.717   3.948  0.2057  0.2296 -0.2795
 6205TIP3    H118560   1.734   1.731   4.002 -2.0948 -5.6883 -1.6445
 6205TIP3    H218561   1.783   1.734   3.858  1.2028  0.3216 -0.5955
 6206TIP3   OH218562   6.582   0.397   0.052 -0.3463  0.1898 -0.1573
 6206TIP3    H118563   6.497   0.435   0.075 -1.5075 -0.4219 -3.1812
 6206TIP3    H218564   6.639   0.473   0.038 -0.6517  0.6255  0.9599
 6207TIP3   OH218565   0.621   2.336   6.389  0.1141  0.7162  0.3218
 6207TIP3    H118566   0.637   2.275   6.461 -0.1859  1.1144  0.7294
 6207TIP3    H218567   0.705   2.380   6.376 -0.2052  1.6630  1.3896
 6208TIP3   OH218568   1.398   2.873   6.067  0.5846  0.4858  0.4024
 6208TIP3    H118569   1.462   2.878   6.138 -0.7388  1.0961  1.5794
 6208TIP3    H218570   1.352   2.957   6.070 -0.3205  0.0329 -0.3839
 6209TIP3   OH218571   6.513   5.822   1.207 -0.2496  0.0008 -0.3454
 6209TIP3    H118572   6.515   5.847   1.114 -0.6899 -0.7507 -0.5640
 6209TIP3    H218573   6.427   5.851   1.237 -0.3333 -0.2643 -0.3242
 6210TIP3   OH218574   6.123   7.728   6.460 -0.3845 -0.4879  0.4808
 6210TIP3    H118575   6.201   7.690   6.419 -0.2639 -1.5156  1.6312
 6210TIP3    H218576   6.061   7.656   6.466 -0.7883 -0.0942  1.1363
 6211TIP3   OH218577   2.619   2.409   3.878 -0.4832  0.7229  0.0368
 6211TIP3    H118578   2.673   2.357   3.937  0.6417  1.4980 -0.2827
 6211TIP3    H218579   2.637   2.373   3.791 -0.4305  1.0304 -0.0802
 6212TIP3   OH218580   5.646   7.629   5.242 -0.5959  0.2123  0.7288
 6212TIP3    H118581   5.716   7.678   5.286 -0.9410  0.1302  1.3888
 6212TIP3    H218582   5.598   7.695   5.192 -1.5514  0.7096  2.2578
 6213TIP3   OH218583   2.171   4.113   6.721 -0.2911 -0.0030 -0.3693
 6213TIP3    H118584   2.260   4.099   6.687 -0.8034 -1.9968 -0.9620
 6213TIP3    H218585   2.115   4.114   6.643 -0.9709 -0.2253  0.1110
 6214TIP3   OH218586   4.790   7.937   0.846  0.8172  0.3234 -0.5695
 6214TIP3    H118587   4.787   8.024   0.886  1.0830  0.0618  0.0264
 6214TIP3    H218588   4.700   7.904   0.854  1.2504 -0.4784  1.5297
 6215TIP3   OH218589   2.441   3.772   5.479 -0.3563  0.8251 -0.9247
 6215TIP3    H118590   2.399   3.707   5.423  0.2323 -0.9276  0.6212
 6215TIP3    H218591   2.535   3.758   5.465 -0.1224 -1.1491  2.0665
 6216TIP3   OH218592  -0.024   0.488   6.571  0.2792  0.6101  0.7307
 6216TIP3    H118593   0.066   0.457   6.565  0.2070  0.5421 -0.0427
 6216TIP3    H218594  -0.020   0.565   6.627  1.1777  2.0339 -1.2569
 6217TIP3   OH218595   8.432   2.731   5.322  0.1185  0.3809 -0.4075
 6217TIP3    H118596   8.395   2.718   5.234 -2.4982  1.7578  0.4334
 6217TIP3    H218597   8.360   2.712   5.381  0.8619  2.6813  1.3287
 6218TIP3   OH218598   2.713   2.280   3.633 -0.0218 -0.3814 -0.0646
 6218TIP3    H118599   2.734   2.206   3.577  2.3838 -0.0449  0.3152
 6218TIP3    H218600   2.752   2.355   3.588 -0.9276  0.3923  0.4267
 6219TIP3   OH218601   3.033   3.428   4.511  0.2407  0.1536 -0.2462
 6219TIP3    H118602   3.012   3.470   4.427 -1.5570 -0.8897 -0.3625
 6219TIP3    H218603   3.079   3.348   4.487  1.2575  0.7130 -0.1565
 6220TIP3   OH218604   1.354   1.592   4.661 -0.4153 -0.4753  0.1797
 6220TIP3    H118605   1.293   1.621   4.728 -0.5535 -0.2019 -0.0658
 6220TIP3    H218606   1.432   1.563   4.710 -1.0219 -1.5343  0.5363
 6221TIP3   OH218607   0.148   2.014   5.083 -0.2202 -0.0663 -0.4506
 6221TIP3    H118608   0.065   1.969   5.101  0.0370  0.3291  1.8750
 6221TIP3    H218609   0.163   2.068   5.160  1.2463  1.3466 -1.6934
 6222TIP3   OH218610   3.612   6.574   1.169  0.1533 -0.0664  0.2313
 6222TIP3    H118611   3.672   6.590   1.096  1.0266  1.1428  1.1911
 6222TIP3    H218612   3.525   6.568   1.128  0.4689  1.8934 -0.7830
 6223TIP3   OH218613   2.407   0.850   5.467  0.4403 -0.0868 -0.1137
 6223TIP3    H118614   2.329   0.906   5.474  0.2729 -0.5365  2.0730
 6223TIP3    H218615   2.480   0.912   5.464  0.1915  0.3142  1.2965
 6224TIP3   OH218616   4.026   3.651   5.485  0.1571 -0.1488 -0.3430
 6224TIP3    H118617   3.968   3.674   5.558 -0.4495 -0.5931 -0.6718
 6224TIP3    H218618   4.086   3.586   5.522  0.7463  0.6493  0.1196
 6225TIP3   OH218619   4.590   1.931   4.752 -0.0714 -0.5503  0.0330
 6225TIP3    H118620   4.524   1.861   4.757 -0.2097 -0.4311 -0.1020
 6225TIP3    H218621   4.663   1.892   4.705  0.6894 -1.2549  1.7465
 6226TIP3   OH218622   6.307   7.577   6.059 -0.5366 -0.3967  0.2522
 6226TIP3    H118623   6.327   7.670   6.053 -0.5577 -0.4014  0.1138
 6226TIP3    H218624   6.315   7.557   6.153  0.4012 -0.4636  0.1684
 6227TIP3   OH218625   0.255   2.040   6.145  0.7744  0.0852  0.3820
 6227TIP3    H118626   0.296   2.063   6.228 -0.9938  1.3387  0.9524
 6227TIP3    H218627   0.246   2.123   6.098  0.8317 -0.4687 -0.6342
 6228TIP3   OH218628   0.728   1.884   5.211  0.0227 -0.3294 -0.1234
 6228TIP3    H118629   0.793   1.843   5.268  0.2412 -1.2835 -1.0462
 6228TIP3    H218630   0.749   1.851   5.124 -1.8512 -0.8240 -0.3969
 6229TIP3   OH218631   2.552   2.220   5.799  0.1766 -0.3800 -0.3993
 6229TIP3    H118632   2.529   2.173   5.719 -1.7332 -1.2389  0.6067
 6229TIP3    H218633   2.480   2.282   5.812  0.0329 -0.8409  1.0934
 6230TIP3   OH218634   2.401   2.075   3.773 -0.2826  0.0473 -0.3416
 6230TIP3    H118635   2.318   2.026   3.775 -0.9784  1.1541 -1.2583
 6230TIP3    H218636   2.452   2.033   3.705  0.4520 -1.4509  1.0856
 6231TIP3   OH218637   2.403   1.913   5.037  0.2380  0.8614 -0.4074
 6231TIP3    H118638   2.352   1.994   5.043 -1.0705  0.0438  0.0340
 6231TIP3    H218639   2.455   1.922   4.958 -0.9055  1.5858 -1.0984
 6232TIP3   OH218640   8.391   5.042   5.713  0.0127 -0.1479 -0.4556
 6232TIP3    H118641   8.360   5.109   5.651 -1.0234 -0.8880 -0.7623
 6232TIP3    H218642   8.422   5.091   5.788 -0.5501  0.6915 -0.7638
 6233TIP3   OH218643   2.967   5.963   0.064 -0.3100 -0.3765  0.6292
 6233TIP3    H118644   2.997   5.874   0.043  1.7155  0.5439 -0.4210
 6233TIP3    H218645   2.991   6.016  -0.011  0.2324  1.4547  2.0467
 6234TIP3   OH218646   2.593   3.049   4.596 -0.0684 -0.4332  0.9336
 6234TIP3    H118647   2.687   3.046   4.580 -0.1750  0.2089  0.1910
 6234TIP3    H218648   2.553   3.051   4.509 -0.7334  0.1715  1.2403
 6235TIP3   OH218649   1.078   0.498   5.753  0.5760 -0.2218  0.3109
 6235TIP3    H118650   1.108   0.473   5.841 -0.3581 -0.9072  0.4414
 6235TIP3    H218651   1.079   0.417   5.703 -1.5315 -0.3583  0.4639
 6236TIP3   OH218652   7.789   0.313   6.357 -0.3344  0.3690  0.1006
 6236TIP3    H118653   7.824   0.403   6.353 -1.6753  0.8686 -0.5965
 6236TIP3    H218654   7.778   0.296   6.450  1.8169  0.1743  0.3555
 6237TIP3   OH218655   0.271   0.835   6.417 -0.4173  0.1891  0.2459
 6237TIP3    H118656   0.266   0.829   6.321 -1.1787 -0.8513  0.3448
 6237TIP3    H218657   0.363   0.856   6.434 -0.3968  0.9770 -0.7371
 6238TIP3   OH218658   0.848   1.445   5.349  0.1922  0.3168 -0.1688
 6238TIP3    H118659   0.882   1.530   5.321  1.1989 -0.1144 -0.2980
 6238TIP3    H218660   0.858   1.446   5.444 -0.0982  0.4698 -0.1401
 6239TIP3   OH218661   0.183   3.373   4.524 -0.3366 -0.5706 -0.7166
 6239TIP3    H118662   0.165   3.462   4.555  0.4178 -0.8036  0.4107
 6239TIP3    H218663   0.163   3.376   4.431 -0.6438  0.6930 -0.6229
 6240TIP3   OH218664   2.236   4.444   5.719 -0.0392 -0.0876  0.4965
 6240TIP3    H118665   2.189   4.420   5.799  0.1889 -1.8182  0.1301
 6240TIP3    H218666   2.296   4.513   5.746 -1.9526  1.3467  1.2188
 6241TIP3   OH218667   1.684   5.427   4.920  0.5840 -0.4134  0.3083
 6241TIP3    H118668   1.632   5.349   4.903  2.1389 -1.4022  0.0009
 6241TIP3    H218669   1.722   5.412   5.007 -0.3367  0.6963  0.9177
 6242TIP3   OH218670   2.430   3.009   6.105 -0.7036 -0.9049  0.6974
 6242TIP3    H118671   2.491   3.017   6.178  0.4765  0.9386 -0.4504
 6242TIP3    H218672   2.384   2.926   6.121  0.0103 -0.8665  3.1296
 6243TIP3   OH218673   1.055   1.960   5.612  0.5817 -0.0673 -0.6487
 6243TIP3    H118674   0.966   1.942   5.584  1.0352 -0.8533 -1.6284
 6243TIP3    H218675   1.081   2.038   5.562  0.7846 -0.4152 -1.0787
 6244TIP3   OH218676   3.169   6.620   0.683  0.7258 -0.6098  0.3509
 6244TIP3    H118677   3.141   6.623   0.591  0.8173 -1.8490  0.2781
 6244TIP3    H218678   3.088   6.606   0.732  0.5562  0.9170  0.5440
 6245TIP3   OH218679   0.547   0.102   4.430 -0.1407 -0.4226  0.5144
 6245TIP3    H118680   0.538   0.008   4.449 -0.0704 -0.7812 -1.1318
 6245TIP3    H218681   0.627   0.108   4.376  0.6399  0.7622  1.7745
 6246TIP3   OH218682  -0.009   1.655   4.030 -0.6962 -0.3230  0.3868
 6246TIP3    H118683   0.084   1.634   4.027 -0.5531  0.2840  0.4913
 6246TIP3    H218684  -0.051   1.585   3.979 -0.2877 -1.1251  1.1391
 6247TIP3   OH218685   8.085   2.127   4.293  0.1732 -0.1474  0.4452
 6247TIP3    H118686   8.085   2.220   4.315 -0.8547  0.2199 -1.0154
 6247TIP3    H218687   8.169   2.112   4.251  0.6978 -0.0792  1.4603
 6248TIP3   OH218688   0.657   1.091   6.388 -0.1888  0.0560  0.4419
 6248TIP3    H118689   0.737   1.057   6.429 -0.0123 -1.6313 -1.2847
 6248TIP3    H218690   0.644   1.176   6.430  2.7450  0.5473  0.4550
 6249TIP3   OH218691   2.030   0.597   4.449 -0.4764  0.5410 -0.3883
 6249TIP3    H118692   1.989   0.622   4.532  0.7743 -0.2413  0.4787
 6249TIP3    H218693   2.010   0.669   4.389 -1.7152  0.9232  0.4836
 6250TIP3   OH218694   0.899   1.022   5.532 -0.0493 -0.1783 -0.0147
 6250TIP3    H118695   0.875   1.105   5.574 -2.0397 -0.8521  0.2107
 6250TIP3    H218696   0.978   0.994   5.578 -0.5759  0.5393  1.3524
 6251TIP3   OH218697   8.041   4.666   5.063 -0.2509 -0.4577 -0.0763
 6251TIP3    H118698   8.056   4.591   5.005  0.6076 -0.6493  0.3804
 6251TIP3    H218699   8.064   4.742   5.009 -1.5584 -0.4801 -0.6859
 6252TIP3   OH218700   2.383   2.909   5.510 -0.2466  0.4901  0.2101
 6252TIP3    H118701   2.471   2.915   5.475 -1.0113  3.1059 -1.4289
 6252TIP3    H218702   2.329   2.959   5.448 -2.4506  1.0522  2.4819
 6253TIP3   OH218703   2.485   0.886   6.414 -0.3987 -0.2404 -0.1712
 6253TIP3    H118704   2.483   0.948   6.487 -1.1728  1.1846 -1.3692
 6253TIP3    H218705   2.393   0.873   6.391 -0.1538 -0.6683 -0.9130
 6254TIP3   OH218706   8.008   1.565   6.469 -0.4764  0.2094  0.3779
 6254TIP3    H118707   8.052   1.582   6.386 -1.4483  0.9853  0.0141
 6254TIP3    H218708   8.074   1.584   6.535  0.7383 -1.7298 -0.2376
 6255TIP3   OH218709   0.563   2.157   3.993 -0.2495 -0.5451 -0.3312
 6255TIP3    H118710   0.616   2.236   3.994  0.1930 -0.8463  0.2451
 6255TIP3    H218711   0.627   2.086   3.983 -0.6254 -0.8402 -0.6408
 6256TIP3   OH218712   3.500   6.585   1.659 -0.7133  0.5131 -0.1062
 6256TIP3    H118713   3.450   6.507   1.680 -0.4306  0.6471  1.0780
 6256TIP3    H218714   3.483   6.601   1.566 -1.7193 -0.2574 -0.0494
 6257TIP3   OH218715   1.573   2.028   4.388  0.4599 -0.2335  0.3924
 6257TIP3    H118716   1.482   2.023   4.359  0.1359 -1.1876  1.5300
 6257TIP3    H218717   1.616   1.953   4.347  1.1537  1.1549 -1.5034
 6258TIP3   OH218718   2.297   0.601   6.825 -0.0935 -0.0759 -0.1237
 6258TIP3    H118719   2.241   0.668   6.787 -1.1971 -0.9855 -0.1313
 6258TIP3    H218720   2.248   0.569   6.901  0.6873 -0.4629  0.2283
 6259TIP3   OH218721   6.294   2.256   4.045  0.3667 -0.4750  0.3486
 6259TIP3    H118722   6.237   2.261   3.968  0.1012 -0.1928  0.5634
 6259TIP3    H218723   6.274   2.170   4.084 -0.2597 -0.1762  0.6910
 6260TIP3   OH218724   6.068   7.726   5.949 -1.1805 -0.8637  0.2116
 6260TIP3    H118725   6.115   7.746   6.029 -0.3645 -1.3193 -0.1497
 6260TIP3    H218726   6.123   7.662   5.904 -2.0092 -1.2019 -0.3397
 6261TIP3   OH218727   7.716   3.353   5.010 -0.3096  0.2160 -0.2629
 6261TIP3    H118728   7.646   3.401   4.965 -1.8346 -0.2207  1.5810
 6261TIP3    H218729   7.689   3.261   5.004 -0.1329  0.0903  0.8786
 6262TIP3   OH218730   2.069   2.168   5.581 -0.1300 -0.0083 -0.0627
 6262TIP3    H118731   2.079   2.191   5.488  1.9607 -0.1752  0.1033
 6262TIP3    H218732   2.018   2.241   5.618 -0.2469  0.4807 -1.1584
 6263TIP3   OH218733   7.798   4.529   4.240  0.5365  0.3446  0.2901
 6263TIP3    H118734   7.877   4.582   4.235  2.9709 -3.3172 -3.4244
 6263TIP3    H218735   7.749   4.551   4.161 -0.1563 -0.3133  0.5295
 6264TIP3   OH218736   3.357   0.691   4.644  0.1807 -0.7683  0.5198
 6264TIP3    H118737   3.271   0.710   4.680 -0.3886 -1.1854 -0.6094
 6264TIP3    H218738   3.417   0.706   4.717 -0.8257 -0.3291  1.2682
 6265TIP3   OH218739   2.576   3.152   5.311  0.1272  0.7504 -0.1814
 6265TIP3    H118740   2.557   3.237   5.271 -1.5942  1.3795  1.8556
 6265TIP3    H218741   2.494   3.102   5.301  0.3901  0.1489  0.6224
 6266TIP3   OH218742   2.576   4.940   6.121 -0.4361  0.6284 -0.0290
 6266TIP3    H118743   2.659   4.956   6.167 -0.4965 -0.0487  0.3104
 6266TIP3    H218744   2.516   5.006   6.158 -0.4082  0.2711  0.6642
 6267TIP3   OH218745   2.147   0.806   6.008 -0.3645 -0.2188 -0.1040
 6267TIP3    H118746   2.124   0.713   6.006 -1.8251  0.1322  0.2522
 6267TIP3    H218747   2.189   0.822   5.923 -0.3243 -1.1481 -0.2640
 6268TIP3   OH218748   1.301   2.405   5.046  0.7573 -0.2309  0.4789
 6268TIP3    H118749   1.321   2.313   5.062 -0.4402 -0.2880  1.7504
 6268TIP3    H218750   1.206   2.407   5.031  1.0503  0.5569 -1.3881
 6269TIP3   OH218751   3.591   6.702   0.790 -0.0825  0.0785  0.0243
 6269TIP3    H118752   3.624   6.640   0.725  0.3300 -0.0289  0.3342
 6269TIP3    H218753   3.627   6.787   0.763  2.3016 -0.3676  1.5945
 6270TIP3   OH218754   7.642   3.081   3.718  0.3250  0.2074  0.3005
 6270TIP3    H118755   7.724   3.097   3.765  0.6288 -0.7160  0.1041
 6270TIP3    H218756   7.665   3.097   3.626 -0.3940  2.4978  0.4923
 6271TIP3   OH218757   7.433   2.955   5.478 -0.1351  0.3027  0.5828
 6271TIP3    H118758   7.339   2.935   5.477 -0.0286 -0.2656  1.3914
 6271TIP3    H218759   7.440   3.036   5.428 -1.0596  0.3511  0.5061
 6272TIP3   OH218760   7.343   0.436   5.221 -0.1955  0.2647  0.1578
 6272TIP3    H118761   7.256   0.398   5.232  0.0355  0.2978  2.1933
 6272TIP3    H218762   7.338   0.522   5.264  0.7933  0.3356  0.1551
 6273TIP3   OH218763   0.240   2.847   4.938 -0.1447  0.1926  0.1501
 6273TIP3    H118764   0.198   2.923   4.979 -1.1620 -1.3398  2.0088
 6273TIP3    H218765   0.315   2.828   4.994  0.2972  0.0039 -0.4996
 6274TIP3   OH218766   7.362   1.512   5.613  0.1122  0.0685  0.1255
 6274TIP3    H118767   7.430   1.579   5.612  0.2139 -0.0382 -0.2477
 6274TIP3    H218768   7.314   1.526   5.695  1.9074 -1.1901  1.4180
 6275TIP3   OH218769   0.627   4.068   4.777 -0.5383 -0.3598  0.0497
 6275TIP3    H118770   0.657   4.142   4.723  0.0419  1.0747  2.2883
 6275TIP3    H218771   0.585   4.009   4.714  0.3988  1.1025 -2.0322
 6276TIP3   OH218772   1.467   4.299   6.278 -0.2403 -0.2153  0.0922
 6276TIP3    H118773   1.468   4.276   6.185 -1.9299 -1.2265  0.3049
 6276TIP3    H218774   1.463   4.214   6.324 -1.4775  0.3196  1.0170
 6277TIP3   OH218775   5.041   4.595   0.339  0.1332 -0.4663 -0.3707
 6277TIP3    H118776   5.084   4.613   0.423  0.8294 -0.2754 -0.7550
 6277TIP3    H218777   4.948   4.602   0.357  0.3189  1.3573  0.0071
 6278TIP3   OH218778   8.352   0.797   2.987  0.4492 -0.0302 -0.0669
 6278TIP3    H118779   8.441   0.822   2.963  0.3824 -0.5396 -0.8726
 6278TIP3    H218780   8.364   0.730   3.055  0.6335  1.6240  1.5513
 6279TIP3   OH218781   8.270   2.074   3.704  0.2013  0.0014 -0.1714
 6279TIP3    H118782   8.358   2.083   3.739 -0.2064  2.9322  0.2070
 6279TIP3    H218783   8.219   2.037   3.776  0.5446  0.8535  0.5137
 6280TIP3   OH218784   7.892   1.999   5.351  0.6789  0.7038 -0.3107
 6280TIP3    H118785   7.910   1.934   5.419  1.1470  0.4077 -0.7094
 6280TIP3    H218786   7.827   1.957   5.295 -0.2619  1.2456  0.3781
 6281TIP3   OH218787   3.212   2.288   6.832 -0.1350 -0.0642  0.0241
 6281TIP3    H118788   3.242   2.315   6.918  0.4514 -0.5506 -0.0229
 6281TIP3    H218789   3.205   2.192   6.837 -1.0487 -0.0175 -0.1660
 6282TIP3   OH218790   0.616   1.561   4.662 -0.3790  0.2879 -0.0254
 6282TIP3    H118791   0.531   1.596   4.634 -0.8095 -1.1387 -0.5625
 6282TIP3    H218792   0.651   1.518   4.584 -0.1219 -0.9380  0.7482
 6283TIP3   OH218793   6.842   2.386   3.834 -0.3177  0.1317  0.0301
 6283TIP3    H118794   6.857   2.466   3.783  0.3881 -0.1054 -0.1450
 6283TIP3    H218795   6.750   2.390   3.859 -0.4219  0.7354 -0.4402
 6284TIP3   OH218796   1.354   2.511   4.432  0.1476 -0.2054  0.1684
 6284TIP3    H118797   1.291   2.569   4.474 -1.0971 -1.6389  0.3284
 6284TIP3    H218798   1.393   2.564   4.363 -1.3556  0.6465 -0.0472
 6285TIP3   OH218799   4.173   2.745   5.530  0.4942 -0.5965  0.1538
 6285TIP3    H118800   4.243   2.747   5.595 -0.1551 -2.7703  0.9715
 6285TIP3    H218801   4.215   2.714   5.450  0.9985  0.6693 -0.0744
 6286TIP3   OH218802   8.124   1.106   3.838 -0.8807  0.0839 -0.3799
 6286TIP3    H118803   8.134   1.201   3.838 -1.0012  0.1014 -1.4296
 6286TIP3    H218804   8.057   1.088   3.905 -0.1424  0.6483  0.5191
 6287TIP3   OH218805   5.423   5.728   0.061  0.2083  0.5986 -0.5682
 6287TIP3    H118806   5.343   5.702   0.106 -0.2301  1.1677 -1.0209
 6287TIP3    H218807   5.394   5.763  -0.023  1.0371 -0.6092 -1.3687
 6288TIP3   OH218808   2.184   2.006   6.309  0.0096  0.6373 -0.2708
 6288TIP3    H118809   2.234   1.925   6.298  0.5197  1.0873 -1.2370
 6288TIP3    H218810   2.092   1.978   6.302  0.1883  0.1699 -0.7349
 6289TIP3   OH218811   8.163   2.175   5.942  0.9088  0.2527 -0.2658
 6289TIP3    H118812   8.192   2.142   6.027  1.7684 -1.9188 -1.3354
 6289TIP3    H218813   8.229   2.240   5.918  2.3311 -1.2393 -0.5488
 6290TIP3   OH218814   3.596   6.799   0.085  0.0219  0.2537 -0.4223
 6290TIP3    H118815   3.528   6.848   0.132  1.1295  1.1301  0.2833
 6290TIP3    H218816   3.630   6.861   0.021  1.5087  0.4545  0.5480
 6291TIP3   OH218817   1.216   4.070   4.479  0.1979  0.5565  0.0718
 6291TIP3    H118818   1.163   4.016   4.419  1.5932  1.5166 -2.0693
 6291TIP3    H218819   1.299   4.024   4.486  0.6923  1.4139 -0.1748
 6292TIP3   OH218820   8.084   1.898   4.678 -0.4457 -0.2215 -0.0122
 6292TIP3    H118821   8.091   1.993   4.687  0.2125 -0.2608 -0.0506
 6292TIP3    H218822   8.109   1.864   4.764 -1.6367 -0.3264  0.2975
 6293TIP3   OH218823   1.925   4.478   3.561  0.0653 -0.0873  0.5513
 6293TIP3    H118824   1.986   4.528   3.615  1.1872  1.2096 -1.8474
 6293TIP3    H218825   1.847   4.533   3.556  0.7252  0.7377 -0.8165
 6294TIP3   OH218826   3.099   0.955   5.297  0.2561  0.1354  0.0360
 6294TIP3    H118827   3.085   1.050   5.292 -0.8185  0.0904  1.7102
 6294TIP3    H218828   3.055   0.929   5.378 -1.5785 -2.1847 -1.6272
 6295TIP3   OH218829   1.244   1.768   5.646 -0.1109 -0.3126  0.3766
 6295TIP3    H118830   1.162   1.817   5.642  0.6936  1.1276  1.0747
 6295TIP3    H218831   1.294   1.800   5.570 -0.6520 -2.0740 -0.7572
 6296TIP3   OH218832   2.067   2.772   6.050 -0.1276 -0.4075 -0.2442
 6296TIP3    H118833   2.042   2.829   5.977  0.1283 -0.7583 -0.6052
 6296TIP3    H218834   2.079   2.686   6.010  1.9134 -0.1967 -0.1290
 6297TIP3   OH218835   7.687   1.879   4.647 -0.1207  0.4419 -0.8536
 6297TIP3    H118836   7.750   1.884   4.574 -0.7382  0.4931 -1.3858
 6297TIP3    H218837   7.729   1.929   4.717  0.2007  0.9241 -1.3785
 6298TIP3   OH218838   8.414   1.346   4.149  0.7005 -0.0677 -0.0996
 6298TIP3    H118839   8.413   1.394   4.232 -2.4228 -0.1478  0.0000
 6298TIP3    H218840   8.350   1.393   4.095  0.4940 -1.8050 -1.3799
 6299TIP3   OH218841   0.704   5.916   4.972  0.1249  0.6904  0.1435
 6299TIP3    H118842   0.707   5.825   5.001  2.1171  0.8648  0.5088
 6299TIP3    H218843   0.613   5.943   4.987  0.0983 -0.4885  2.2831
 6300TIP3   OH218844   8.056   1.515   3.753  0.2311 -0.4783 -0.6445
 6300TIP3    H118845   8.040   1.542   3.663 -0.6750 -0.9642 -0.6392
 6300TIP3    H218846   7.977   1.466   3.778  0.3722 -0.1542  0.4844
 6301TIP3   OH218847   1.952   3.037   6.366 -0.1166 -0.4073  0.8863
 6301TIP3    H118848   1.909   2.956   6.340 -0.5319  0.2091 -0.4140
 6301TIP3    H218849   2.027   3.045   6.307 -0.6650  0.6640  0.3082
 6302TIP3   OH218850   2.566   2.656   3.738 -0.7594 -0.3706 -0.0171
 6302TIP3    H118851   2.570   2.592   3.809  0.8807 -0.6300 -0.3164
 6302TIP3    H218852   2.541   2.605   3.661 -1.1469 -0.3389  0.0861
 6303TIP3   OH218853   0.584   1.525   5.991  0.2173  0.2172 -0.4174
 6303TIP3    H118854   0.624   1.601   5.948  0.1726 -0.2450 -1.2668
 6303TIP3    H218855   0.495   1.523   5.959 -0.1199  0.4653  0.4769
 6304TIP3   OH218856   0.517   3.048   5.640 -0.5003 -0.1182  0.4846
 6304TIP3    H118857   0.574   2.984   5.682  0.7083  1.8131  1.8733
 6304TIP3    H218858   0.521   3.125   5.697 -2.0570  1.1406 -1.0452
 6305TIP3   OH218859   1.660   2.722   5.160 -0.4637 -0.2433 -0.1715
 6305TIP3    H118860   1.737   2.666   5.154  0.5301  1.0877 -0.0745
 6305TIP3    H218861   1.651   2.761   5.073 -1.4086 -0.8842 -0.3666
 6306TIP3   OH218862   3.195   3.827   5.845  0.0501  0.2064  0.5657
 6306TIP3    H118863   3.248   3.861   5.917  0.0072  0.1366  0.6307
 6306TIP3    H218864   3.257   3.774   5.793  0.1475  0.4933  0.3885
 6307TIP3   OH218865   4.325   2.589   5.328  0.2022  0.0347  0.0827
 6307TIP3    H118866   4.401   2.626   5.283  0.4806 -0.2075  0.3538
 6307TIP3    H218867   4.253   2.600   5.266  0.5056  0.0537 -0.2702
 6308TIP3   OH218868   0.749   3.602   5.474  0.0820  0.0140 -0.4021
 6308TIP3    H118869   0.783   3.594   5.563  0.4121 -1.6574 -0.6498
 6308TIP3    H218870   0.826   3.620   5.420 -0.2004  1.6229 -0.2841
 6309TIP3   OH218871   1.345   1.392   6.577 -0.2331 -0.3631 -0.3929
 6309TIP3    H118872   1.350   1.412   6.484  0.7195 -1.5507 -0.6148
 6309TIP3    H218873   1.259   1.352   6.589 -0.0879 -0.8334 -0.8976
 6310TIP3   OH218874   1.250   1.835   6.729 -0.0239 -0.3495 -0.1416
 6310TIP3    H118875   1.275   1.917   6.772  2.3982 -1.8564  1.4256
 6310TIP3    H218876   1.154   1.834   6.734  0.0014  1.4986  1.4755
 6311TIP3   OH218877   1.125   2.055   4.981  0.0113  0.4664  0.4764
 6311TIP3    H118878   1.116   1.982   5.042  0.0538 -0.0883 -0.1839
 6311TIP3    H218879   1.041   2.101   4.986  0.2206  0.7606  1.3838
 6312TIP3   OH218880   1.960   2.240   6.603 -0.3979 -0.1684 -0.6576
 6312TIP3    H118881   1.975   2.161   6.656  1.8284  1.1358  0.7578
 6312TIP3    H218882   1.891   2.287   6.650  1.8294  1.1681  1.3911
 6313TIP3   OH218883   5.340   4.840   0.747 -1.0043  0.2707 -0.3922
 6313TIP3    H118884   5.390   4.909   0.791 -2.1566  0.7559  0.2108
 6313TIP3    H218885   5.389   4.820   0.668  0.7670 -0.1335  0.7871
 6314TIP3   OH218886   0.281   1.396   6.806  0.7699  0.1426  0.0672
 6314TIP3    H118887   0.258   1.305   6.829 -2.4007  1.2399  1.5584
 6314TIP3    H218888   0.358   1.414   6.859  1.1416 -1.5271  0.1429
 6315TIP3   OH218889   8.440   1.730   4.930  0.2381 -0.3261 -0.2067
 6315TIP3    H118890   8.423   1.774   5.013 -2.2609  1.2932 -1.4929
 6315TIP3    H218891   8.535   1.720   4.927  0.5396  1.4552  1.8994
 6316TIP3   OH218892   2.081   5.640   0.434 -0.0327  0.4465 -0.0778
 6316TIP3    H118893   2.148   5.706   0.450  1.1072 -0.7254  0.0951
 6316TIP3    H218894   2.122   5.557   0.459 -1.0190 -0.4749 -1.4116
 6317TIP3   OH218895   1.025   2.183   4.362 -0.7517  0.0923  0.0357
 6317TIP3    H118896   0.948   2.133   4.336 -1.4227  0.9658  0.3115
 6317TIP3    H218897   0.993   2.244   4.428  0.5885 -0.8945  1.6277
 6318TIP3   OH218898   3.127   4.791   0.707  0.3606  0.2032 -0.2125
 6318TIP3    H118899   3.138   4.760   0.797  1.3119 -1.2479 -0.8156
 6318TIP3    H218900   3.140   4.713   0.653 -2.2135  0.6393 -1.5218
 6319TIP3   OH218901   0.982   2.902   3.726 -0.2330 -0.2524  0.3145
 6319TIP3    H118902   0.962   2.974   3.785 -1.1432  0.4843 -0.8855
 6319TIP3    H218903   1.026   2.943   3.652  1.5863 -1.2696  0.7892
 6320TIP3   OH218904   2.242   4.697   6.619 -0.1945 -0.1256  0.6731
 6320TIP3    H118905   2.266   4.727   6.532 -1.2720 -1.1275  0.0125
 6320TIP3    H218906   2.305   4.738   6.678 -0.5934  2.0406 -0.3686
 6321TIP3   OH218907   2.768   1.291   4.915  0.2012 -0.2267  0.9729
 6321TIP3    H118908   2.801   1.315   5.002 -2.9727  0.4769  2.0434
 6321TIP3    H218909   2.692   1.347   4.902  0.0865 -0.9853 -1.8926
 6322TIP3   OH218910   0.877   2.603   5.650 -0.5095  0.7764 -0.4983
 6322TIP3    H118911   0.856   2.526   5.597 -0.8622  0.9737 -0.6409
 6322TIP3    H218912   0.970   2.619   5.632 -0.4646  0.4609 -0.5634
 6323TIP3   OH218913   2.767   2.935   4.857 -0.2382  0.0397 -0.3402
 6323TIP3    H118914   2.764   3.005   4.922 -0.6031 -0.9292  0.6907
 6323TIP3    H218915   2.794   2.979   4.776  1.0687  1.0955  0.6465
 6324TIP3   OH218916   2.516   1.118   5.090 -0.1836  0.1522  0.0763
 6324TIP3    H118917   2.598   1.151   5.126 -1.4827  1.6913  1.7600
 6324TIP3    H218918   2.471   1.078   5.164 -1.1065 -0.3519 -0.7434
 6325TIP3   OH218919   1.297   1.865   4.786 -0.2658 -0.2182  0.7008
 6325TIP3    H118920   1.384   1.858   4.749 -0.9257  1.5954 -1.3131
 6325TIP3    H218921   1.301   1.943   4.842 -0.3612 -0.6788  1.3656
 6326TIP3   OH218922  -0.001   1.973   6.136 -0.0990 -0.5527  0.2564
 6326TIP3    H118923   0.091   1.996   6.145  0.1531 -0.6383 -1.7696
 6326TIP3    H218924  -0.047   2.057   6.139  0.1932 -0.3721 -0.1655
 6327TIP3   OH218925   1.786   1.024   4.198  0.4636 -0.4686 -0.4513
 6327TIP3    H118926   1.742   1.108   4.207  0.1912 -0.9547  3.6473
 6327TIP3    H218927   1.880   1.046   4.202  0.3889 -0.3656  0.8748
 6328TIP3   OH218928   2.637   3.541   4.924  0.0180  0.0767  0.4502
 6328TIP3    H118929   2.615   3.471   4.863 -2.1644 -0.0818  1.3872
 6328TIP3    H218930   2.652   3.618   4.869  1.4397 -0.8605 -0.5041
 6329TIP3   OH218931   0.461   1.807   4.790  0.1950  0.2679 -0.0796
 6329TIP3    H118932   0.490   1.727   4.746 -2.0635  0.1447 -1.4431
 6329TIP3    H218933   0.502   1.878   4.740  1.1397 -0.0063  0.3105
 6330TIP3   OH218934   3.932   5.654   1.255  0.3424 -0.0625  0.2909
 6330TIP3    H118935   3.882   5.625   1.178  2.0324  0.7191 -1.1157
 6330TIP3    H218936   3.935   5.749   1.247  0.9184 -0.0095  1.0944
 6331TIP3   OH218937   1.819   1.386   5.119  0.2876 -0.2489 -0.6951
 6331TIP3    H118938   1.813   1.363   5.212  0.0732 -1.6670 -1.0442
 6331TIP3    H218939   1.879   1.460   5.117 -0.2925  0.2846  0.6513
 6332TIP3   OH218940   1.114   1.575   6.536  0.0023 -0.5430  0.0589
 6332TIP3    H118941   1.082   1.559   6.625 -0.2319  0.3999  0.1545
 6332TIP3    H218942   1.057   1.522   6.481  0.0054 -0.9640  0.4529
 6333TIP3   OH218943   3.084   5.934   0.890  0.1511  0.2984  0.4843
 6333TIP3    H118944   3.056   5.981   0.812 -0.8438 -0.2218  0.5227
 6333TIP3    H218945   3.048   5.984   0.963 -0.0796  0.0318  0.5571
 6334TIP3   OH218946   2.125   3.783   3.598 -0.1585 -0.2111  0.2912
 6334TIP3    H118947   2.085   3.806   3.682 -0.0936  0.8413  0.0374
 6334TIP3    H218948   2.131   3.687   3.600 -1.4196 -0.2897  0.9139
 6335TIP3   OH218949   1.645   1.857   6.777 -0.3858  0.1024  0.4852
 6335TIP3    H118950   1.605   1.775   6.806  0.3565 -0.2774  0.4681
 6335TIP3    H218951   1.589   1.888   6.707 -1.4707  0.3516  1.4597
 6336TIP3   OH218952   4.189   6.169   2.265 -0.3729 -0.5327 -0.2110
 6336TIP3    H118953   4.171   6.080   2.235 -1.9107 -0.5025  0.5491
 6336TIP3    H218954   4.144   6.225   2.202  0.4505 -0.3022 -0.5920
 6337TIP3   OH218955   0.752   0.756   6.658  0.0407  0.6782  0.0816
 6337TIP3    H118956   0.833   0.710   6.635  0.1277  1.8106 -2.0510
 6337TIP3    H218957   0.683   0.692   6.642  0.4107  0.1758  0.4874
 6338TIP3   OH218958   8.453   2.328   4.001 -0.5747 -0.0287  0.7994
 6338TIP3    H118959   8.424   2.419   4.005 -0.5916  0.0231 -0.4028
 6338TIP3    H218960   8.488   2.311   4.088  0.7663  1.5740  0.6008
 6339TIP3   OH218961   7.286   7.197   4.758  0.4104 -0.2816  0.4316
 6339TIP3    H118962   7.246   7.194   4.845 -0.7693  2.4108  0.0322
 6339TIP3    H218963   7.346   7.271   4.761  0.3444 -0.1460 -1.0331
 6340TIP3   OH218964   1.998   2.233   5.311  0.0083 -0.4430 -0.0378
 6340TIP3    H118965   1.929   2.298   5.328  0.1231 -1.0385  2.9278
 6340TIP3    H218966   1.951   2.157   5.275 -0.6190 -0.1471  0.1470
 6341TIP3   OH218967   2.043   1.271   5.589 -0.1272 -0.3196 -0.4538
 6341TIP3    H118968   2.057   1.362   5.613  1.0908 -0.2156 -1.5398
 6341TIP3    H218969   1.964   1.245   5.638 -0.2809  1.1990  0.1164
 6342TIP3   OH218970   8.251   2.794   4.773 -0.4104 -0.2118 -0.4987
 6342TIP3    H118971   8.234   2.778   4.866  0.0315  3.1241  0.2272
 6342TIP3    H218972   8.341   2.825   4.770 -1.3258  2.4675 -1.6505
 6343TIP3   OH218973   5.760   7.203   0.223  0.1813 -0.2043 -0.6455
 6343TIP3    H118974   5.811   7.273   0.183 -1.2286  0.5819 -1.0942
 6343TIP3    H218975   5.684   7.247   0.262  0.0753 -1.2964  0.4108
 6344TIP3   OH218976   4.235   7.506   1.118 -0.1958  0.2086  0.0667
 6344TIP3    H118977   4.315   7.511   1.170 -0.3159  0.7461  0.2075
 6344TIP3    H218978   4.265   7.481   1.030 -0.1438 -2.1392  0.7231
 6345TIP3   OH218979   3.365   3.139   5.682 -0.2810 -0.3572  0.0519
 6345TIP3    H118980   3.442   3.136   5.626  0.9279 -1.6104  1.7148
 6345TIP3    H218981   3.342   3.048   5.697 -0.6029 -0.0624  1.5175
 6346TIP3   OH218982   4.107   5.668   0.075 -0.3521  0.2497  0.0813
 6346TIP3    H118983   4.040   5.660   0.143  1.5192  0.3739  1.9862
 6346TIP3    H218984   4.157   5.746   0.099  0.4041  0.2372 -1.4000
 6347TIP3   OH218985   0.943   3.735   6.174  0.3107  0.2156 -0.0117
 6347TIP3    H118986   0.882   3.684   6.119  0.4435  0.2825 -0.2199
 6347TIP3    H218987   0.887   3.797   6.220  0.2073  0.2161 -0.1352
 6348TIP3   OH218988   1.535   2.186   5.137 -0.0247 -0.1646  0.2332
 6348TIP3    H118989   1.495   2.191   5.050 -0.8608  0.9328  0.6613
 6348TIP3    H218990   1.614   2.134   5.124 -1.7523 -2.7151 -0.5877
 6349TIP3   OH218991   8.133   0.375   0.139 -0.2126 -0.4689 -0.0463
 6349TIP3    H118992   8.196   0.306   0.159  0.1184 -0.3407 -0.6177
 6349TIP3    H218993   8.183   0.456   0.149 -0.3291 -0.3594 -0.3414
 6350TIP3   OH218994   2.303   3.495   6.538 -0.4607  0.6637 -0.3028
 6350TIP3    H118995   2.382   3.544   6.564  1.5676 -1.5977 -2.0022
 6350TIP3    H218996   2.306   3.415   6.590 -1.5428  0.4632 -0.5293
 6351TIP3   OH218997   2.957   6.372   0.615 -0.3508 -0.6346 -0.2919
 6351TIP3    H118998   2.874   6.359   0.568  0.0293 -2.2097 -0.5455
 6351TIP3    H218999   3.024   6.341   0.555  0.3612 -0.1650  0.2571
 6352TIP3   OH219000   0.763   0.917   5.267 -0.3390 -0.0094 -0.3993
 6352TIP3    H119001   0.829   0.983   5.289  0.8082 -1.5581  1.0249
 6352TIP3    H219002   0.732   0.886   5.352 -2.8125  0.5719 -1.0604
 6353TIP3   OH219003   3.902   6.635   0.278  0.5915 -0.4652 -0.4703
 6353TIP3    H119004   3.844   6.668   0.346  0.9290  1.0192 -0.8772
 6353TIP3    H219005   3.969   6.585   0.325  0.9382  0.7126  0.3132
 6354TIP3   OH219006   2.221   3.322   5.929 -0.6361 -0.0749 -0.1799
 6354TIP3    H119007   2.274   3.401   5.930  0.4894 -0.8351  0.2576
 6354TIP3    H219008   2.267   3.262   5.870 -0.2971 -1.2100  1.2024
 6355TIP3   OH219009   8.014   2.885   4.394  0.2376  0.2295  0.0992
 6355TIP3    H119010   7.972   2.833   4.325  1.0300 -0.0884 -0.1451
 6355TIP3    H219011   8.019   2.826   4.469  2.5257 -0.5624 -0.6479
 6356TIP3   OH219012   4.253   4.125   0.069  0.4965  0.3912  0.3971
 6356TIP3    H119013   4.173   4.095   0.113  1.0457  0.4112  1.4223
 6356TIP3    H219014   4.283   4.200   0.121  2.4352 -1.0300  1.3967
 6357TIP3   OH219015   1.601   4.678   4.517 -0.6161  0.3108 -0.2959
 6357TIP3    H119016   1.668   4.684   4.584  1.3910 -1.6784 -2.0306
 6357TIP3    H219017   1.518   4.682   4.565  0.7393 -2.9160  2.5057
 6358TIP3   OH219018   0.447   0.555   6.488 -0.2188 -0.3746  0.4441
 6358TIP3    H119019   0.538   0.534   6.471 -0.7769 -1.2187 -1.6624
 6358TIP3    H219020   0.437   0.646   6.459 -0.0189 -0.2428  0.7904
 6359TIP3   OH219021   4.907   6.846   4.395  0.7126 -0.1437 -0.1151
 6359TIP3    H119022   4.967   6.816   4.326  0.1017  0.7112 -1.0243
 6359TIP3    H219023   4.956   6.831   4.476  1.9827  0.1052 -0.8162
 6360TIP3   OH219024   8.094   2.373   4.945  0.2672 -0.2317 -0.5050
 6360TIP3    H119025   8.032   2.359   5.016  0.7926 -0.6534 -0.1242
 6360TIP3    H219026   8.173   2.407   4.988  0.9946 -1.5814 -0.7234
 6361TIP3   OH219027   1.355   0.989   5.554 -0.1145 -0.1411  0.4074
 6361TIP3    H119028   1.430   0.937   5.584 -0.2758 -0.4217  0.3177
 6361TIP3    H219029   1.354   1.064   5.613  1.8306  1.2210 -1.2151
 6362TIP3   OH219030   1.072   2.429   5.328  0.4649  0.2292 -0.2182
 6362TIP3    H119031   1.059   2.381   5.246 -1.1064  1.5002 -0.7338
 6362TIP3    H219032   1.098   2.517   5.300 -1.0392  0.9465  0.6350
 6363TIP3   OH219033   0.142   1.838   4.504 -0.6809  0.1240  0.4292
 6363TIP3    H119034   0.052   1.809   4.525 -1.1525  0.8645 -0.5464
 6363TIP3    H219035   0.139   1.859   4.411  0.5581  0.0110  0.3639
 6364TIP3   OH219036   0.778   2.439   2.936  0.4039  0.2338  0.1688
 6364TIP3    H119037   0.745   2.361   2.981  0.5330 -0.0817 -0.2728
 6364TIP3    H219038   0.701   2.494   2.923  0.1322 -0.2683 -0.3938
 6365TIP3   OH219039   2.374   3.573   6.205  0.3198 -0.2272 -0.2158
 6365TIP3    H119040   2.309   3.508   6.232  2.3705 -1.6748  1.4651
 6365TIP3    H219041   2.390   3.553   6.112 -0.2579 -1.0589 -0.1444
 6366TIP3   OH219042   7.503   4.619   6.578 -0.4471 -0.8302 -0.2434
 6366TIP3    H119043   7.525   4.706   6.545  0.3160 -0.8855  0.1148
 6366TIP3    H219044   7.482   4.569   6.500 -0.6105 -0.4047 -0.4759
 6367TIP3   OH219045   3.351   3.360   5.817  0.8837 -0.6759 -0.0369
 6367TIP3    H119046   3.351   3.279   5.767 -0.5716 -0.4349 -0.4422
 6367TIP3    H219047   3.259   3.384   5.825  1.2788  0.8270  0.2549
 6368TIP3   OH219048   3.881   3.515   4.349 -0.5322  0.4352  0.6008
 6368TIP3    H119049   3.926   3.529   4.265 -0.7561 -0.5765  0.3012
 6368TIP3    H219050   3.798   3.562   4.339  0.1722  1.7597  0.9113
 6369TIP3   OH219051   1.721   0.828   3.915 -0.3862 -0.2650  0.1419
 6369TIP3    H119052   1.793   0.785   3.869  0.4764 -0.4357  1.6256
 6369TIP3    H219053   1.744   0.920   3.915  1.2056 -0.6392  2.9986
 6370TIP3   OH219054   2.766   2.669   4.581  0.4453  0.6613 -0.0209
 6370TIP3    H119055   2.676   2.671   4.548  0.0853  1.9951  0.9900
 6370TIP3    H219056   2.807   2.597   4.534 -1.5560 -0.8882  0.5493
 6371TIP3   OH219057   2.665   2.991   5.518 -0.0614 -0.1913  0.6067
 6371TIP3    H119058   2.646   3.062   5.457 -0.7511  0.1595  1.2235
 6371TIP3    H219059   2.711   3.033   5.591 -2.9332  0.1620  2.3130
 6372TIP3   OH219060   4.704   2.104   6.666 -1.1705 -0.1811 -0.9663
 6372TIP3    H119061   4.778   2.110   6.727 -2.2215 -0.7027  0.3682
 6372TIP3    H219062   4.689   2.195   6.639  0.7626 -0.1934 -2.2725
 6373TIP3   OH219063   3.083   2.668   4.271 -0.0934 -0.4619  0.2028
 6373TIP3    H119064   3.051   2.671   4.181  0.5874  0.0589 -0.0283
 6373TIP3    H219065   3.114   2.579   4.282 -0.1254 -0.5112 -0.0987
 6374TIP3   OH219066   4.607   5.022   6.117  0.2666 -0.8158  0.2522
 6374TIP3    H119067   4.575   5.044   6.204  3.0366  0.0934  1.0951
 6374TIP3    H219068   4.674   4.955   6.133  2.0214  0.5884 -0.9715
 6375TIP3   OH219069   4.646   1.897   5.280 -0.2241  0.3069 -0.3902
 6375TIP3    H119070   4.658   1.888   5.185  0.5820 -0.0596 -0.2636
 6375TIP3    H219071   4.624   1.989   5.293 -1.4993  0.1008 -1.0454
 6376TIP3   OH219072   3.166   2.155   4.889  0.1411 -0.3494 -0.0935
 6376TIP3    H119073   3.144   2.207   4.811  1.6686  2.1825  1.0928
 6376TIP3    H219074   3.085   2.109   4.910 -0.8680  0.4795 -2.0398
 6377TIP3   OH219075   3.708   0.526   3.656  0.2455 -0.2923  0.8762
 6377TIP3    H119076   3.636   0.498   3.599  0.0369 -0.6224  1.2966
 6377TIP3    H219077   3.665   0.569   3.729  0.3954 -1.6187  1.7698
 6378TIP3   OH219078   2.489   1.025   4.287  0.6493  0.0482  0.5909
 6378TIP3    H119079   2.443   1.106   4.264 -1.4334 -0.9161  1.2345
 6378TIP3    H219080   2.456   1.002   4.373  1.4152 -1.3639  0.5221
 6379TIP3   OH219081   3.576   1.320   6.479 -0.0855  0.6760 -0.1566
 6379TIP3    H119082   3.482   1.301   6.483  0.4151 -1.7562  1.1240
 6379TIP3    H219083   3.591   1.345   6.388 -1.8003  0.1408 -0.6115
 6380TIP3   OH219084   4.633   1.662   5.431 -0.0570 -0.0551  0.0421
 6380TIP3    H119085   4.705   1.609   5.396  1.3112  0.9776  1.2562
 6380TIP3    H219086   4.646   1.748   5.391 -0.8665  0.0182 -0.0614
 6381TIP3   OH219087   7.715   5.698   0.644  0.6662  1.1749  0.0911
 6381TIP3    H119088   7.662   5.733   0.716 -0.6708 -0.5056 -0.0646
 6381TIP3    H219089   7.775   5.636   0.686 -0.5122 -0.2487 -0.3007
 6382TIP3   OH219090   4.267   2.581   6.541 -0.2024  0.4295 -0.0601
 6382TIP3    H119091   4.173   2.600   6.537 -0.0510  0.8877 -2.9124
 6382TIP3    H219092   4.272   2.489   6.568 -1.4741  0.3380 -0.1093
 6383TIP3   OH219093   2.907   3.678   5.179  0.3018 -0.5131  0.1298
 6383TIP3    H119094   2.921   3.718   5.093 -1.2895 -1.4709 -0.5994
 6383TIP3    H219095   2.971   3.721   5.236  0.0450  1.5500 -1.0863
 6384TIP3   OH219096   5.451   1.302   3.730  0.2558 -0.1520  0.0396
 6384TIP3    H119097   5.468   1.341   3.815 -1.1957 -0.7636  0.6259
 6384TIP3    H219098   5.522   1.239   3.717  1.0449  0.6640  0.3248
 6385TIP3   OH219099   5.696   6.422   0.085 -0.3542  0.5546 -0.6371
 6385TIP3    H119100   5.680   6.499   0.031  1.4101  0.0041 -2.0080
 6385TIP3    H219101   5.707   6.456   0.174 -1.4209  1.6614 -0.9167
 6386TIP3   OH219102   2.808   0.887   6.726  0.5288  0.1133  0.2441
 6386TIP3    H119103   2.724   0.867   6.685  1.2779  0.6828 -1.6283
 6386TIP3    H219104   2.786   0.943   6.800 -0.9200 -1.5362  1.1090
 6387TIP3   OH219105   1.904   1.323   3.517  0.6622  0.1469 -0.2663
 6387TIP3    H119106   1.965   1.310   3.589  2.3117 -0.0479 -1.6614
 6387TIP3    H219107   1.935   1.403   3.474 -0.0863  0.0712 -0.9631
 6388TIP3   OH219108   3.071   0.931   3.816  0.7484 -0.4602  0.6059
 6388TIP3    H119109   3.034   0.977   3.891  1.0926 -1.6787  1.5485
 6388TIP3    H219110   3.013   0.952   3.743  1.1737  1.8333  0.8984
 6389TIP3   OH219111   5.231   1.834   5.301 -0.1178 -0.3793  0.1742
 6389TIP3    H119112   5.136   1.833   5.315 -0.2245 -1.1209 -0.5709
 6389TIP3    H219113   5.241   1.851   5.208  0.4814 -0.5877  0.1979
 6390TIP3   OH219114   4.909   4.899   0.170 -0.1315 -0.2426  0.4155
 6390TIP3    H119115   5.002   4.877   0.171  0.1334  0.5413 -2.4112
 6390TIP3    H219116   4.907   4.993   0.186 -0.5183 -0.4037  1.3545
 6391TIP3   OH219117   3.671   0.796   4.485  0.7433  0.5667  0.1230
 6391TIP3    H119118   3.694   0.870   4.428  0.3144  1.5271  1.1831
 6391TIP3    H219119   3.754   0.750   4.500  0.7507 -0.1091 -1.8390
 6392TIP3   OH219120   3.572   2.503   5.148 -0.4752  0.7627  0.4503
 6392TIP3    H119121   3.617   2.580   5.183  1.0121  0.3366 -0.4673
 6392TIP3    H219122   3.543   2.530   5.061  0.6956  0.0675 -0.1669
 6393TIP3   OH219123   4.769   0.293   5.125  0.1101  0.1009 -0.5364
 6393TIP3    H119124   4.782   0.224   5.190  0.8699 -0.3943 -1.2065
 6393TIP3    H219125   4.676   0.315   5.132 -0.0055 -0.5601  0.1063
 6394TIP3   OH219126   3.388   2.290   5.140 -0.1178  0.4065 -0.0966
 6394TIP3    H119127   3.458   2.355   5.141  0.5969 -0.3606 -0.4226
 6394TIP3    H219128   3.322   2.325   5.201  0.2134  1.4828 -0.3492
 6395TIP3   OH219129   6.540   6.105  -0.002 -0.0812  0.0741  0.5063
 6395TIP3    H119130   6.625   6.132   0.031 -1.0253  2.8760  0.8442
 6395TIP3    H219131   6.482   6.111   0.074 -0.9268 -0.0705 -0.1221
 6396TIP3   OH219132   3.698   1.138   4.583 -0.0394 -0.8136  0.8742
 6396TIP3    H119133   3.602   1.133   4.577 -0.0016 -0.4178 -0.1242
 6396TIP3    H219134   3.714   1.174   4.670 -0.7736 -1.7463  1.4044
 6397TIP3   OH219135   2.775   2.818   3.473 -0.0938 -0.1981 -0.4530
 6397TIP3    H119136   2.851   2.861   3.433 -0.2943 -0.4603 -1.1265
 6397TIP3    H219137   2.709   2.817   3.404 -0.1309 -1.4896 -0.4168
 6398TIP3   OH219138   3.881   1.533   3.370  0.3613  0.2827  0.0130
 6398TIP3    H119139   3.974   1.514   3.379  0.1018 -0.4508  1.4571
 6398TIP3    H219140   3.875   1.592   3.296  1.9243 -0.0646 -0.4083
 6399TIP3   OH219141   2.627   2.107   5.235  0.1916  0.2536  0.1258
 6399TIP3    H119142   2.592   2.179   5.183 -0.0492  1.0907  1.4186
 6399TIP3    H219143   2.686   2.149   5.298 -2.4405 -0.2425  3.0767
 6400TIP3   OH219144   3.436   2.009   5.739 -0.3884 -0.3263  0.8873
 6400TIP3    H119145   3.342   2.014   5.755 -0.4186  0.1846  0.5647
 6400TIP3    H219146   3.469   1.949   5.806 -0.9136 -0.3605  1.1159
 6401TIP3   OH219147   1.652   2.030   5.786 -0.0636 -0.1044  0.2402
 6401TIP3    H119148   1.728   1.976   5.807 -1.1810 -1.0067  2.1292
 6401TIP3    H219149   1.610   1.985   5.712  1.1495  0.3340 -0.7253
 6402TIP3   OH219150   3.521   0.731   6.266 -0.2205 -0.1538  0.1704
 6402TIP3    H119151   3.584   0.802   6.273  0.0332 -0.3038 -0.5594
 6402TIP3    H219152   3.437   0.771   6.288  0.4593 -0.5359  3.8626
 6403TIP3   OH219153   4.738   2.997   5.834 -0.5022  0.3830  0.0382
 6403TIP3    H119154   4.780   3.068   5.882  0.5722  1.3755 -2.3098
 6403TIP3    H219155   4.742   2.922   5.895 -2.0777  2.3875  2.7111
 6404TIP3   OH219156   3.162   2.067   5.767  0.1601  0.5447  0.4401
 6404TIP3    H119157   3.073   2.043   5.793  0.3504 -0.9916 -0.2782
 6404TIP3    H219158   3.182   2.146   5.818 -1.1607  0.2160  1.4824
 6405TIP3   OH219159   2.939   2.910   3.031  0.0587 -0.5051 -0.6158
 6405TIP3    H119160   2.867   2.943   3.084 -0.0430 -0.3974 -0.8185
 6405TIP3    H219161   3.016   2.960   3.060 -0.0608 -0.2138 -0.7987
 6406TIP3   OH219162   5.382   3.065   6.756  0.0155  0.0862  0.7519
 6406TIP3    H119163   5.460   3.022   6.791 -0.2308 -1.3481 -0.4361
 6406TIP3    H219164   5.408   3.097   6.670 -0.2501  1.0322  1.0079
 6407TIP3   OH219165   1.834   7.472   6.147  0.0752 -0.7593  0.3608
 6407TIP3    H119166   1.850   7.565   6.164  0.3052 -0.7007 -0.1658
 6407TIP3    H219167   1.861   7.460   6.056 -0.2193 -1.2797  0.3424
 6408TIP3   OH219168   4.408   0.326   3.873  0.0592 -0.2839 -0.4310
 6408TIP3    H119169   4.372   0.327   3.962  0.4313 -0.3502 -0.2783
 6408TIP3    H219170   4.344   0.372   3.820  0.4177  0.8322  0.0906
 6409TIP3   OH219171   3.689   4.656   3.887  0.1580 -0.0181  0.1254
 6409TIP3    H119172   3.749   4.593   3.928 -0.0292 -0.6516 -0.5625
 6409TIP3    H219173   3.617   4.665   3.950 -1.6993 -3.3709 -1.3416
 6410TIP3   OH219174   4.081   2.079   5.558  0.0312 -0.2916  0.3439
 6410TIP3    H119175   4.011   2.076   5.623  0.0422  0.2714  0.3893
 6410TIP3    H219176   4.132   2.000   5.573 -0.5618 -0.6747  0.3484
 6411TIP3   OH219177   1.507   2.574   5.350  0.5561  0.2721 -0.1175
 6411TIP3    H119178   1.553   2.648   5.310  0.0868  1.0596  0.7587
 6411TIP3    H219179   1.541   2.497   5.306 -0.1202  1.1311 -2.1741
 6412TIP3   OH219180   5.058   2.241   4.576 -0.3492 -0.1989  0.7615
 6412TIP3    H119181   5.042   2.298   4.652 -0.5890  1.8165 -0.7641
 6412TIP3    H219182   4.974   2.196   4.562 -1.0822  1.2724  0.2221
 6413TIP3   OH219183   3.369   1.131   5.342  0.3077 -0.4654 -0.0012
 6413TIP3    H119184   3.303   1.086   5.289  1.6630 -3.0317  0.3863
 6413TIP3    H219185   3.328   1.142   5.428  0.6738 -3.0191  0.5641
 6414TIP3   OH219186   2.814   4.291   6.035  0.2027  0.2013 -0.1846
 6414TIP3    H119187   2.865   4.224   5.989  1.1579  2.1745 -2.0943
 6414TIP3    H219188   2.880   4.343   6.081 -0.2474  1.5717 -1.0603
 6415TIP3   OH219189   2.479   3.075   1.569 -0.0345 -0.1559 -0.0064
 6415TIP3    H119190   2.565   3.081   1.611 -1.4538  0.5835  2.8501
 6415TIP3    H219191   2.438   2.998   1.608 -0.3555 -1.0244 -2.0062
 6416TIP3   OH219192   4.135   2.464   4.888 -0.1719  0.2034  0.3615
 6416TIP3    H119193   4.134   2.478   4.794  2.5076 -1.2548  0.0517
 6416TIP3    H219194   4.192   2.534   4.922  0.5501 -0.4987  0.6249
 6417TIP3   OH219195   3.481   3.971   6.656 -0.6110 -0.3344 -0.0993
 6417TIP3    H119196   3.434   4.001   6.734 -0.7600 -0.9771  0.0548
 6417TIP3    H219197   3.496   4.052   6.606 -1.8560 -0.1112 -0.1397
 6418TIP3   OH219198   7.883   0.455   0.156  0.3667  0.2849  0.3198
 6418TIP3    H119199   7.852   0.373   0.195 -0.0949  1.0003  1.4856
 6418TIP3    H219200   7.978   0.450   0.161  0.3639 -0.4777 -0.2509
 6419TIP3   OH219201   1.914   7.219   5.653 -0.6186  0.7079  0.0111
 6419TIP3    H119202   1.870   7.149   5.702  0.0303  2.4041  3.2108
 6419TIP3    H219203   1.988   7.177   5.611 -0.4614 -0.6151  1.5662
 6420TIP3   OH219204   1.301   7.848   5.420 -0.2635 -0.2434  0.0480
 6420TIP3    H119205   1.349   7.880   5.343 -0.2660  1.0751  0.5699
 6420TIP3    H219206   1.261   7.927   5.457  0.2029 -0.7840  1.7307
 6421TIP3   OH219207   5.812   1.756   5.690  0.9998 -0.3169  0.1793
 6421TIP3    H119208   5.879   1.687   5.689 -0.6709 -1.9790  1.0779
 6421TIP3    H219209   5.763   1.744   5.609  1.7517  0.8998 -0.4776
 6422TIP3   OH219210   3.348   2.530   3.959  0.7589 -0.5048 -0.5924
 6422TIP3    H119211   3.282   2.598   3.944  0.5256 -0.0155  2.3123
 6422TIP3    H219212   3.299   2.455   3.992  1.2965 -1.2425 -1.4567
 6423TIP3   OH219213   2.795   1.373   5.628 -0.3168 -0.4102 -0.2985
 6423TIP3    H119214   2.816   1.379   5.535 -0.1946  0.0406 -0.2425
 6423TIP3    H219215   2.880   1.377   5.672 -0.1518 -3.2269 -0.2805
 6424TIP3   OH219216   3.115   0.652   3.777  0.4860  0.3375 -0.5079
 6424TIP3    H119217   3.094   0.740   3.810 -0.0365  0.3214 -0.7898
 6424TIP3    H219218   3.121   0.663   3.683 -2.7422 -0.5373 -0.8764
 6425TIP3   OH219219   3.862   3.447   0.586 -0.5593  0.1030  0.5148
 6425TIP3    H119220   3.846   3.537   0.555 -0.3587 -0.0206  0.0362
 6425TIP3    H219221   3.855   3.394   0.506 -0.4465 -0.2783  0.7613
 6426TIP3   OH219222   4.612   1.612   4.588  0.5225 -0.5264  0.0064
 6426TIP3    H119223   4.648   1.533   4.549 -0.6980 -0.1960 -1.8290
 6426TIP3    H219224   4.646   1.683   4.534  0.7018  0.1335  0.9707
 6427TIP3   OH219225   2.851   2.570   5.695 -0.2537  0.0101  0.4906
 6427TIP3    H119226   2.763   2.608   5.688 -0.3637 -0.4520 -0.8176
 6427TIP3    H219227   2.902   2.619   5.631 -0.1163 -1.2745 -0.3850
 6428TIP3   OH219228   3.074   1.231   3.557 -0.2076 -0.0980  0.3753
 6428TIP3    H119229   2.999   1.290   3.544  0.0134  0.0226 -0.4051
 6428TIP3    H219230   3.062   1.163   3.490  0.5934  0.1460 -0.0275
 6429TIP3   OH219231   1.567   3.478   5.095  0.3724  0.1373 -0.2684
 6429TIP3    H119232   1.569   3.490   5.190 -0.0145 -1.3593 -0.0513
 6429TIP3    H219233   1.646   3.428   5.075  0.2909  0.1652 -0.6816
 6430TIP3   OH219234   1.838   2.014   5.100 -0.2004  0.3383 -0.0848
 6430TIP3    H119235   1.821   1.997   5.007 -1.9279 -0.5798  0.3654
 6430TIP3    H219236   1.899   1.946   5.126  1.6466  1.6322 -0.9387
 6431TIP3   OH219237   3.297   2.001   6.613  0.1967 -0.3179 -0.0521
 6431TIP3    H119238   3.249   2.005   6.696  1.8120  1.8002  0.8414
 6431TIP3    H219239   3.383   2.039   6.634  1.6135 -2.3120 -2.0416
 6432TIP3   OH219240   8.009   8.002   4.060 -0.0455  0.1850  0.0948
 6432TIP3    H119241   8.000   7.912   4.093  0.6102 -0.0925 -0.4938
 6432TIP3    H219242   8.025   8.055   4.139 -0.6734 -0.1749  0.4705
 6433TIP3   OH219243   1.193   7.964   3.190  0.4527 -0.0688  0.2750
 6433TIP3    H119244   1.162   8.048   3.158 -0.3469 -0.6581 -0.5270
 6433TIP3    H219245   1.289   7.970   3.184  0.3400 -0.0064 -1.8562
 6434TIP3   OH219246   3.907   2.333   5.806  0.1263  0.4863  0.2710
 6434TIP3    H119247   3.956   2.378   5.875  0.1720 -0.5327  0.9164
 6434TIP3    H219248   3.842   2.397   5.778  0.3779  1.0647  0.9822
 6435TIP3   OH219249   3.632   2.962   5.447 -0.1960 -0.0714  0.0695
 6435TIP3    H119250   3.617   3.005   5.531 -1.5170 -0.5147  0.0716
 6435TIP3    H219251   3.690   2.889   5.468 -1.3766 -0.8230  0.7925
 6436TIP3   OH219252   5.699   5.386   5.720 -0.3322 -0.0384 -0.0834
 6436TIP3    H119253   5.610   5.353   5.732 -0.0005 -1.0420 -0.3740
 6436TIP3    H219254   5.692   5.480   5.737 -1.8670  0.2555 -2.1405
 6437TIP3   OH219255   3.754   3.908   4.495  0.4167 -0.7746 -0.5826
 6437TIP3    H119256   3.829   3.886   4.550  0.4955  1.3108  0.1806
 6437TIP3    H219257   3.779   3.989   4.451 -1.2826 -0.1819 -0.5076
 6438TIP3   OH219258   1.137   3.404   5.160 -0.1658  0.1924 -0.0957
 6438TIP3    H119259   1.101   3.489   5.132  0.3460  0.4151 -0.0864
 6438TIP3    H219260   1.061   3.346   5.164 -0.4061  0.4439 -0.8978
 6439TIP3   OH219261   2.536   1.203   6.496 -0.6051  0.5609  0.2574
 6439TIP3    H119262   2.609   1.255   6.464  0.8362 -1.6003 -0.0996
 6439TIP3    H219263   2.462   1.225   6.439  0.7258  0.1372 -1.6506
 6440TIP3   OH219264   6.779   6.596   0.134  0.4061 -0.1590  0.1823
 6440TIP3    H119265   6.824   6.529   0.084  1.3032  0.1862  0.5130
 6440TIP3    H219266   6.697   6.555   0.161  0.1081 -0.4863 -1.1938
 6441TIP3   OH219267   5.672   3.411   6.545  0.0859 -0.3295  0.2985
 6441TIP3    H119268   5.639   3.413   6.455 -0.9739 -2.2722  0.6321
 6441TIP3    H219269   5.659   3.501   6.577 -2.1793 -0.3357 -0.5446
 6442TIP3   OH219270   1.757   1.667   4.971  0.5371 -0.3069  0.0155
 6442TIP3    H119271   1.835   1.652   5.024  0.7041 -1.8018 -0.6095
 6442TIP3    H219272   1.788   1.720   4.897  0.6992  0.1452  0.4050
 6443TIP3   OH219273   4.218   2.224   5.279 -0.0949 -0.3961  0.5604
 6443TIP3    H119274   4.288   2.161   5.264 -0.8591 -1.3771  1.1037
 6443TIP3    H219275   4.195   2.256   5.191  0.8349 -0.2845  0.3613
 6444TIP3   OH219276   3.050   0.970   4.984  0.4168  0.0158 -0.1488
 6444TIP3    H119277   3.095   1.020   5.052  0.2071 -1.2243  0.9094
 6444TIP3    H219278   3.049   0.880   5.016 -0.8511 -0.3612 -1.1780
 6445TIP3   OH219279   6.503   7.427   0.136 -0.4228 -0.1925 -0.3296
 6445TIP3    H119280   6.409   7.437   0.152 -0.6757 -0.4794 -1.6058
 6445TIP3    H219281   6.512   7.340   0.099  0.3282 -0.0868 -0.4054
 6446TIP3   OH219282   4.765   2.475   5.033 -0.0086  0.3799  0.0837
 6446TIP3    H119283   4.790   2.468   5.125 -0.5310  0.6991  0.2487
 6446TIP3    H219284   4.739   2.567   5.021 -0.0799  0.3078 -0.3447
 6447TIP3   OH219285   2.532   1.961   4.790 -0.1091  0.5404  0.2078
 6447TIP3    H119286   2.601   1.928   4.733  0.8540  0.0043  1.6368
 6447TIP3    H219287   2.451   1.946   4.742  0.8896  3.2624 -2.5060
 6448TIP3   OH219288   2.689   4.334   5.211 -0.2110 -0.4175  0.0582
 6448TIP3    H119289   2.595   4.336   5.194 -0.1364 -0.2944 -0.3533
 6448TIP3    H219290   2.729   4.336   5.124  0.1709 -0.5465  0.2293
 6449TIP3   OH219291   4.383   0.709   4.555  0.0468 -0.0069  0.1626
 6449TIP3    H119292   4.332   0.786   4.580 -0.5961  0.1055 -1.4001
 6449TIP3    H219293   4.317   0.642   4.537  0.3895  0.2420 -2.2199
 6450TIP3   OH219294   3.735   3.293   4.359  0.1291 -0.2008  0.6114
 6450TIP3    H119295   3.666   3.328   4.303  0.3650 -1.0061 -0.1960
 6450TIP3    H219296   3.805   3.359   4.354  0.3233 -0.4696 -0.3989
 6451TIP3   OH219297   2.981   2.261   3.320 -0.2084  0.4286 -0.0826
 6451TIP3    H119298   3.033   2.333   3.355  0.9982 -0.8646  0.8129
 6451TIP3    H219299   2.946   2.295   3.238  0.0849  2.1481  0.4846
 6452TIP3   OH219300   3.689   2.747   4.600  0.4693  0.4035 -0.1743
 6452TIP3    H119301   3.638   2.705   4.531 -0.2298  2.3319 -0.8741
 6452TIP3    H219302   3.742   2.677   4.638 -0.3127 -0.9825 -1.6151
 6453TIP3   OH219303   3.834   2.442   4.042  0.1557  0.0696 -0.0474
 6453TIP3    H119304   3.914   2.444   3.990 -0.2241  0.9514 -0.6146
 6453TIP3    H219305   3.773   2.390   3.990  0.0461  0.2400 -0.0902
 6454TIP3   OH219306   1.583   1.504   4.808 -0.4322  0.0463  0.1102
 6454TIP3    H119307   1.507   1.478   4.860 -0.2632  0.7168  0.7045
 6454TIP3    H219308   1.646   1.537   4.873  0.6037 -1.0546 -0.3113
 6455TIP3   OH219309   4.046   1.578   6.075  0.1542  0.1156 -0.4247
 6455TIP3    H119310   4.069   1.487   6.094  1.4222  0.5126 -0.0402
 6455TIP3    H219311   4.118   1.629   6.111 -1.2425  1.3809  0.6300
 6456TIP3   OH219312   2.432   3.504   5.949 -0.3349  0.1100  0.6585
 6456TIP3    H119313   2.401   3.539   5.865 -0.1747  2.8021  1.6660
 6456TIP3    H219314   2.525   3.489   5.935 -0.6268 -1.0629 -0.1399
 6457TIP3   OH219315   1.061   2.207   4.088  0.2717  0.3951 -0.3814
 6457TIP3    H119316   1.084   2.259   4.165 -2.1855 -0.8295  1.2572
 6457TIP3    H219317   1.116   2.129   4.095  0.6784  0.6871 -0.3257
 6458TIP3   OH219318   2.073   0.971   2.779 -0.4063 -0.5791 -0.3117
 6458TIP3    H119319   2.089   0.877   2.772  0.9229 -0.4667  1.0368
 6458TIP3    H219320   2.036   0.983   2.866 -0.2794  0.1886 -0.3620
 6459TIP3   OH219321   3.263   2.108   5.465 -0.0541  0.0476 -0.1855
 6459TIP3    H119322   3.220   2.116   5.550 -0.4043  0.6003 -0.4082
 6459TIP3    H219323   3.266   2.198   5.431 -0.4964 -0.2537 -1.0381
 6460TIP3   OH219324   3.247   3.240   1.690  0.0881  0.2075 -0.0281
 6460TIP3    H119325   3.315   3.234   1.757  0.7501 -1.7735 -0.8512
 6460TIP3    H219326   3.174   3.190   1.726 -0.6151  1.5184  0.4238
 6461TIP3   OH219327   3.145   3.511   4.758 -0.3077 -0.4261 -0.0024
 6461TIP3    H119328   3.101   3.495   4.675 -1.1082 -1.0210  0.5285
 6461TIP3    H219329   3.226   3.459   4.753 -0.5104 -0.7174 -0.2724
 6462TIP3   OH219330   1.230   0.607   3.884  0.5151 -0.0018 -0.2605
 6462TIP3    H119331   1.304   0.588   3.942 -0.4772 -3.3180 -0.0145
 6462TIP3    H219332   1.168   0.654   3.940  1.0970  0.0103  0.3874
 6463TIP3   OH219333   4.033   2.649   4.340  0.0199  0.2884  0.0198
 6463TIP3    H119334   3.947   2.647   4.382 -0.8535  3.1335 -1.4741
 6463TIP3    H219335   4.023   2.712   4.269  2.5351 -1.5629 -2.0444
 6464TIP3   OH219336   2.538   2.073   2.392  1.0090  0.1526 -0.1475
 6464TIP3    H119337   2.538   1.985   2.353  0.4113  0.2020 -0.2721
 6464TIP3    H219338   2.454   2.078   2.437  0.5177  1.1015 -1.1371
 6465TIP3   OH219339   2.497   0.026   3.098  0.1070  0.2628  0.4775
 6465TIP3    H119340   2.433  -0.032   3.139  1.1178 -1.2455 -0.0402
 6465TIP3    H219341   2.543   0.065   3.172 -0.4500  0.2612  0.8300
 6466TIP3   OH219342   1.632   1.738   5.822 -0.2083 -0.3977 -0.1544
 6466TIP3    H119343   1.575   1.677   5.775  0.7108 -1.4201  0.0208
 6466TIP3    H219344   1.599   1.737   5.912 -1.3155  0.7588 -0.5321
 6467TIP3   OH219345   2.413   1.685   5.533 -0.1595 -0.2391 -0.6955
 6467TIP3    H119346   2.451   1.701   5.619 -2.7793 -2.5926  1.0089
 6467TIP3    H219347   2.437   1.761   5.480  2.3011  0.7889  1.8305
 6468TIP3   OH219348   4.373   0.044   4.452  0.1330 -0.1340  0.2518
 6468TIP3    H119349   4.348  -0.034   4.501  1.6011 -0.6151  0.2585
 6468TIP3    H219350   4.419   0.098   4.515  0.2798  0.1395 -0.0896
 6469TIP3   OH219351   3.122   2.573   4.702  0.3165  0.2950 -0.4637
 6469TIP3    H119352   3.084   2.644   4.649  0.1270  1.2310  0.9089
 6469TIP3    H219353   3.089   2.589   4.790  0.7037 -1.2130 -0.0399
 6470TIP3   OH219354   4.338   2.349   4.021  0.1068  0.0041  0.0543
 6470TIP3    H119355   4.260   2.315   4.065  1.7609 -0.3080  2.8966
 6470TIP3    H219356   4.335   2.443   4.037 -0.8424  0.3131 -1.8146
 6471TIP3   OH219357   3.906   1.097   5.088  0.5177 -0.1018 -0.2455
 6471TIP3    H119358   3.927   1.183   5.125 -2.0007 -0.0091  1.1407
 6471TIP3    H219359   3.951   1.034   5.144  0.0117  0.2255  0.5436
 6472TIP3   OH219360   8.021   3.159   0.818 -0.4075  0.1391  0.3193
 6472TIP3    H119361   7.947   3.213   0.791  0.3920  0.8917 -0.4009
 6472TIP3    H219362   8.020   3.084   0.759 -0.7599  0.0045  0.4955
 6473TIP3   OH219363   1.602   3.107   4.421 -0.1382 -0.1892 -0.0385
 6473TIP3    H119364   1.545   3.183   4.428  1.3662  1.0876 -1.3503
 6473TIP3    H219365   1.661   3.115   4.496 -1.2551 -1.1859  0.9752
 6474TIP3   OH219366   0.673   1.415   4.963 -0.9505 -0.0499 -0.0801
 6474TIP3    H119367   0.670   1.490   4.904  1.9784 -0.6268 -1.0533
 6474TIP3    H219368   0.629   1.445   5.042 -2.0878  1.8256 -1.3817
 6475TIP3   OH219369   4.253   1.019   5.149  0.3217  0.3126  0.2988
 6475TIP3    H119370   4.319   0.978   5.093  0.8616 -1.5797  2.2661
 6475TIP3    H219371   4.181   0.956   5.151 -0.6676  1.4099 -0.0947
 6476TIP3   OH219372   2.391   1.457   5.383 -0.3307 -0.3807 -0.2616
 6476TIP3    H119373   2.418   1.526   5.445 -0.2651 -1.0171  0.4301
 6476TIP3    H219374   2.468   1.441   5.329  0.3830 -1.4825  1.0484
 6477TIP3   OH219375   2.010   1.629   2.776  0.4642  0.3008 -0.4582
 6477TIP3    H119376   2.014   1.626   2.680  3.2216  0.0010 -0.3598
 6477TIP3    H219377   2.040   1.717   2.798  0.7084  0.0603  0.1735
 6478TIP3   OH219378   6.368   7.851   6.087 -0.3032 -0.2101 -0.1264
 6478TIP3    H119379   6.313   7.895   6.152  0.9699  0.4704  0.5062
 6478TIP3    H219380   6.456   7.884   6.104  0.3638 -1.5580 -0.8922
 6479TIP3   OH219381   4.561   1.504   6.261  0.1818 -0.9643 -0.0146
 6479TIP3    H119382   4.617   1.577   6.238 -1.3595 -0.1705 -1.3531
 6479TIP3    H219383   4.602   1.465   6.338  2.0110  0.1789 -0.3995
 6480TIP3   OH219384   3.878   1.689   5.249 -0.3663  0.3156  0.1189
 6480TIP3    H119385   3.940   1.711   5.179  1.1323  0.0516  1.3315
 6480TIP3    H219386   3.900   1.750   5.320 -0.3150 -0.9586  1.2066
 6481TIP3   OH219387   2.265   2.847   6.905 -0.5514  0.1913  0.8033
 6481TIP3    H119388   2.181   2.863   6.862 -0.0389 -0.8354 -0.6043
 6481TIP3    H219389   2.261   2.756   6.933  0.0512  0.1708  0.8272
 6482TIP3   OH219390   1.803   3.774   6.542  0.2192  0.2835  0.0845
 6482TIP3    H119391   1.803   3.839   6.612 -0.3741  0.1708  0.1934
 6482TIP3    H219392   1.896   3.756   6.526  0.3681  0.5709  0.5970
 6483TIP3   OH219393   4.554   1.858   6.023 -0.3803 -0.5098 -0.0284
 6483TIP3    H119394   4.542   1.944   6.063  1.3809  0.2849 -1.1442
 6483TIP3    H219395   4.570   1.877   5.930  0.8367 -1.9931 -0.1311
 6484TIP3   OH219396   1.930   0.469   5.817  0.4466 -0.1346 -0.5667
 6484TIP3    H119397   1.893   0.540   5.869 -0.5409 -0.2642 -1.0831
 6484TIP3    H219398   2.024   0.473   5.835  0.1891  0.2163  0.7299
 6485TIP3   OH219399   4.686   1.964   5.002  0.3707 -0.2231  0.3818
 6485TIP3    H119400   4.628   1.967   4.926 -0.7020 -1.7692  1.1053
 6485TIP3    H219401   4.771   1.938   4.967  0.0567 -0.2262 -0.3893
 6486TIP3   OH219402   2.140   1.859   4.254 -0.1667 -0.2116 -0.0468
 6486TIP3    H119403   2.108   1.925   4.316  2.0519  0.3277  0.5766
 6486TIP3    H219404   2.115   1.775   4.292 -0.0800  0.1691  0.8663
 6487TIP3   OH219405   1.796   0.301   6.423  0.0441  0.2245 -0.3127
 6487TIP3    H119406   1.725   0.364   6.433  0.7508  0.9458  0.1577
 6487TIP3    H219407   1.756   0.227   6.376 -0.2300  2.0013 -2.9755
 6488TIP3   OH219408   3.027   0.836   5.536  0.0537 -0.2504  0.5017
 6488TIP3    H119409   3.087   0.830   5.610 -0.0958  0.3945  0.6793
 6488TIP3    H219410   2.941   0.814   5.572 -0.1997  1.1049  0.7676
 6489TIP3   OH219411   2.754   3.429   5.903  0.0452  0.5986  0.1965
 6489TIP3    H119412   2.791   3.485   5.971  1.0859 -0.3781  0.4641
 6489TIP3    H219413   2.800   3.345   5.914 -0.5783  0.0869 -0.9914
 6490TIP3   OH219414   1.273   2.440   4.018 -0.0352 -0.0090 -0.1155
 6490TIP3    H119415   1.178   2.449   4.030 -0.0832  0.1572 -0.6143
 6490TIP3    H219416   1.305   2.529   4.007  0.2847 -0.0087  0.8228
 6491TIP3   OH219417   2.170   1.883   5.388  0.2980  0.3339 -0.2970
 6491TIP3    H119418   2.198   1.833   5.464  0.4888 -3.0556 -2.5039
 6491TIP3    H219419   2.234   1.954   5.381  1.6525 -0.6920  1.3186
 6492TIP3   OH219420   3.203   3.648   4.969  0.6401 -0.3309  0.5985
 6492TIP3    H119421   3.153   3.729   4.967  1.8566  0.5028  2.2964
 6492TIP3    H219422   3.188   3.608   4.883 -1.2867  0.8712  0.3469
 6493TIP3   OH219423   3.926   1.865   4.152 -0.1367 -0.2291  0.7858
 6493TIP3    H119424   3.895   1.917   4.078 -1.3991 -2.0303  0.0209
 6493TIP3    H219425   3.848   1.846   4.203 -0.0066 -2.9075  0.0565
 6494TIP3   OH219426   2.866   1.959   5.419 -0.4203  0.8165 -0.0779
 6494TIP3    H119427   2.896   2.037   5.372 -0.2867  0.6386 -0.2892
 6494TIP3    H219428   2.813   1.993   5.491 -0.4935  1.0970 -0.2632
 6495TIP3   OH219429   3.991   0.230   5.776  0.4053  0.0062 -0.4737
 6495TIP3    H119430   3.933   0.306   5.788  2.2630  1.7794 -2.3175
 6495TIP3    H219431   4.010   0.201   5.865 -2.7533 -0.2350  0.2044
 6496TIP3   OH219432   5.114   0.891   4.802  0.0445  0.1125  0.3111
 6496TIP3    H119433   5.163   0.973   4.809  1.0653 -0.5133  0.6996
 6496TIP3    H219434   5.135   0.858   4.714 -2.2297  1.4109 -0.7566
 6497TIP3   OH219435   2.820   4.046   5.871 -0.6583 -0.5530  0.1762
 6497TIP3    H119436   2.849   3.982   5.807  1.4251  1.0658 -0.5457
 6497TIP3    H219437   2.738   4.080   5.835  0.8504  0.8660 -2.0457
 6498TIP3   OH219438   5.990   6.413   0.123  0.3339  0.1050 -0.2867
 6498TIP3    H119439   5.899   6.413   0.093 -0.3498 -0.6274  1.6773
 6498TIP3    H219440   6.001   6.500   0.164  0.6152  0.3191 -0.8210
 6499TIP3   OH219441   3.269   0.741   6.057 -0.2921 -0.1388 -0.2833
 6499TIP3    H119442   3.332   0.800   6.097  0.3426  1.1049 -2.9766
 6499TIP3    H219443   3.187   0.758   6.102  0.3670  1.2472  0.4253
 6500TIP3   OH219444   5.191   1.495   6.342 -0.5757 -0.0771 -0.2941
 6500TIP3    H119445   5.158   1.561   6.282  1.1238  0.8568 -0.2462
 6500TIP3    H219446   5.209   1.543   6.423 -0.4070 -0.8133  0.1107
 6501TIP3   OH219447   5.197   0.819   4.552  1.0791  0.2848 -0.1413
 6501TIP3    H119448   5.135   0.784   4.487 -0.6936  1.9296  0.6166
 6501TIP3    H219449   5.282   0.812   4.510  0.3602 -1.7808 -1.3291
 6502TIP3   OH219450   5.813   5.346   0.997 -0.7001  0.0578 -0.1762
 6502TIP3    H119451   5.905   5.373   0.992 -0.3183 -1.1151  0.2741
 6502TIP3    H219452   5.795   5.344   1.091 -0.8787 -0.7109 -0.2262
 6503TIP3   OH219453   3.188   2.547   6.480 -0.2649  0.4269 -0.1818
 6503TIP3    H119454   3.214   2.564   6.390  1.0362  3.0587  0.6372
 6503TIP3    H219455   3.105   2.593   6.491 -0.0284  0.7782  0.1743
 6504TIP3   OH219456   4.318   3.695   5.645  0.1035  0.3537  0.1685
 6504TIP3    H119457   4.286   3.606   5.636  0.2345  0.3538 -0.3329
 6504TIP3    H219458   4.411   3.685   5.668  0.0357  0.3578  0.4433
 6505TIP3   OH219459   3.040   1.246   5.249  0.5554  0.3531  0.4512
 6505TIP3    H119460   3.070   1.279   5.164 -0.0990  0.9296  0.4411
 6505TIP3    H219461   3.048   1.321   5.308 -0.4889  0.4094  0.5364
 6506TIP3   OH219462   4.098   3.435   6.475  0.0179  0.3340  0.0790
 6506TIP3    H119463   4.056   3.414   6.558 -0.2520  1.3799  0.2037
 6506TIP3    H219464   4.097   3.352   6.427  0.5993 -0.3844  1.2943
 6507TIP3   OH219465   2.060   0.718   6.702  0.3599 -0.7175  0.0764
 6507TIP3    H119466   2.043   0.807   6.735  1.9109 -0.2983 -0.2188
 6507TIP3    H219467   1.980   0.670   6.722 -0.1280  0.4907  1.1444
 6508TIP3   OH219468   2.746   1.943   4.176  0.5706 -0.0197  0.4873
 6508TIP3    H119469   2.761   1.849   4.188 -0.5485 -0.1215  1.1482
 6508TIP3    H219470   2.705   1.950   4.090 -0.1504 -0.2376  0.8045
 6509TIP3   OH219471   5.760   2.174   5.023  0.4347  0.1175  0.2378
 6509TIP3    H119472   5.834   2.233   5.038  1.4248 -1.4688  1.7626
 6509TIP3    H219473   5.771   2.105   5.088 -1.5909 -0.9122 -0.4846
 6510TIP3   OH219474   2.249   1.807   6.092  0.1168 -0.7047  0.0840
 6510TIP3    H119475   2.280   1.784   6.180 -1.8395  0.0556  1.0052
 6510TIP3    H219476   2.311   1.874   6.062  0.1265 -0.1277  1.3592
 6511TIP3   OH219477   3.880   4.278   0.239 -0.5315  0.3208  0.3458
 6511TIP3    H119478   3.870   4.328   0.320  0.8168 -0.0534  0.7597
 6511TIP3    H219479   3.944   4.328   0.188 -1.9304  0.9533 -0.8320
 6512TIP3   OH219480   4.952   1.584   4.787  0.6923  0.0420  0.1035
 6512TIP3    H119481   4.988   1.536   4.861 -1.7129  1.3211  2.2017
 6512TIP3    H219482   4.915   1.517   4.730 -1.9764 -0.7130  2.6220
 6513TIP3   OH219483   3.612   3.467   5.840 -0.0677  0.0343  0.4360
 6513TIP3    H119484   3.639   3.493   5.752  1.2944  0.4614  0.9669
 6513TIP3    H219485   3.534   3.412   5.826  1.3360 -1.6139 -1.1529
 6514TIP3   OH219486   6.786   3.075   5.235  0.4160 -0.2431  0.3729
 6514TIP3    H119487   6.770   2.999   5.179  0.6939  0.3428 -0.5112
 6514TIP3    H219488   6.833   3.040   5.311 -0.6552 -1.1649  0.6175
 6515TIP3   OH219489   5.229   2.171   2.624 -0.0828  0.6197  0.2137
 6515TIP3    H119490   5.162   2.104   2.631  0.6311 -0.1563 -0.3207
 6515TIP3    H219491   5.250   2.194   2.714  0.8700 -1.0826  0.4436
 6516TIP3   OH219492   2.641   0.364   3.192  0.1168 -0.1008  0.1650
 6516TIP3    H119493   2.696   0.400   3.262 -1.7634 -0.2245  1.7334
 6516TIP3    H219494   2.564   0.330   3.237 -0.9440 -0.5508 -1.9406
 6517TIP3   OH219495   4.821   4.372   5.618 -0.4386 -0.4877  0.0889
 6517TIP3    H119496   4.757   4.409   5.557 -1.6601  0.7751  2.0594
 6517TIP3    H219497   4.903   4.416   5.597 -0.2989 -1.7734 -2.1542
 6518TIP3   OH219498   3.630   2.592   5.538 -0.5280  0.2063 -0.5844
 6518TIP3    H119499   3.641   2.581   5.633 -1.5994 -0.8439 -0.5748
 6518TIP3    H219500   3.719   2.608   5.505  0.1446 -1.5145  0.3209
 6519TIP3   OH219501   2.131   2.058   3.185 -0.2789 -0.1510 -0.1448
 6519TIP3    H119502   2.105   1.968   3.165  0.2430 -0.5933  1.1148
 6519TIP3    H219503   2.227   2.056   3.183 -0.2626  0.7707 -1.7435
 6520TIP3   OH219504   3.709   2.157   4.312 -0.3688 -0.5647  0.0002
 6520TIP3    H119505   3.637   2.160   4.249 -0.3850 -1.7673 -0.0354
 6520TIP3    H219506   3.787   2.174   4.259 -0.4394 -1.0405 -0.2574
 6521TIP3   OH219507   5.110   2.232   5.270  0.1109  0.0205 -0.2283
 6521TIP3    H119508   5.072   2.189   5.194  1.2459 -0.9709 -0.2360
 6521TIP3    H219509   5.183   2.176   5.296  0.9375  1.3773  0.4101
 6522TIP3   OH219510   1.123   1.222   3.942  0.2254 -0.3615  0.0983
 6522TIP3    H119511   1.060   1.286   3.909  0.4303  0.0403  0.4734
 6522TIP3    H219512   1.148   1.255   4.028  1.3764 -0.2080 -0.2820
 6523TIP3   OH219513   4.670   2.218   4.377 -0.5376  0.1726 -0.6520
 6523TIP3    H119514   4.593   2.169   4.349  0.6327 -1.1430 -1.5907
 6523TIP3    H219515   4.698   2.174   4.457 -0.0964 -0.0474 -0.9279
 6524TIP3   OH219516   4.980   3.893   6.705  0.2888 -0.4559 -0.9051
 6524TIP3    H119517   5.068   3.927   6.685  0.9552 -1.1258  0.7829
 6524TIP3    H219518   4.989   3.798   6.696 -0.0860 -0.5724 -0.0496
 6525TIP3   OH219519   1.371   2.270   4.236  1.0075  0.3195 -0.3211
 6525TIP3    H119520   1.360   2.346   4.292  0.6372 -0.4090  0.6140
 6525TIP3    H219521   1.360   2.304   4.147  0.2597  1.2453  0.1158
 6526TIP3   OH219522   2.745   2.128   3.377 -0.2545  0.7907  0.1445
 6526TIP3    H119523   2.831   2.167   3.361  1.7870 -2.4204  2.6906
 6526TIP3    H219524   2.737   2.061   3.309 -0.0715  0.0416  0.8678
 6527TIP3   OH219525   2.158   4.378   3.941  0.0397  0.2717  0.0896
 6527TIP3    H119526   2.093   4.309   3.933  0.3496  0.0125 -0.2036
 6527TIP3    H219527   2.209   4.372   3.860 -0.3238  1.2408 -0.2212
 6528TIP3   OH219528   4.503   2.499   5.524 -0.5763 -0.7144 -0.2767
 6528TIP3    H119529   4.453   2.486   5.444 -0.6074 -0.7370 -0.2536
 6528TIP3    H219530   4.488   2.591   5.547 -1.9638 -1.1645  0.6456
 6529TIP3   OH219531   7.261   5.048   0.031  0.6053 -0.3771 -0.1521
 6529TIP3    H119532   7.180   5.025  -0.016 -0.4016  1.8143  0.4312
 6529TIP3    H219533   7.254   5.002   0.115  0.2942 -0.7724 -0.3953
 6530TIP3   OH219534   4.419   1.712   4.762 -0.0061  0.4648  0.1618
 6530TIP3    H119535   4.352   1.644   4.766 -0.3627  0.6748 -1.7812
 6530TIP3    H219536   4.488   1.676   4.706 -0.0992  1.5874 -0.7121
 6531TIP3   OH219537   3.538   0.835   5.391  0.2862 -0.3174  0.6441
 6531TIP3    H119538   3.482   0.768   5.432  0.7980 -1.7685 -0.9656
 6531TIP3    H219539   3.477   0.894   5.347 -0.0888 -0.7245  0.6150
 6532TIP3   OH219540   2.303   1.753   6.354 -0.2631  0.0812 -0.3001
 6532TIP3    H119541   2.385   1.778   6.397  0.3195  0.3531 -1.5712
 6532TIP3    H219542   2.262   1.692   6.416  2.0239 -1.9453 -0.6803
 6533TIP3   OH219543   0.109   1.596   5.407 -0.3346 -0.4696 -0.5325
 6533TIP3    H119544   0.157   1.557   5.334  0.0852  1.1175 -1.1365
 6533TIP3    H219545   0.164   1.670   5.435 -1.9849  0.8373 -0.6619
 6534TIP3   OH219546   3.537   3.056   5.197 -0.4697  0.1058 -0.0551
 6534TIP3    H119547   3.559   3.135   5.147 -1.2295  0.7393  0.5902
 6534TIP3    H219548   3.597   3.057   5.272  1.8039 -1.7179 -1.7566
 6535TIP3   OH219549   5.217   1.891   5.710  0.5156  0.3776 -0.3342
 6535TIP3    H119550   5.139   1.837   5.717  1.3518 -0.8553 -0.3833
 6535TIP3    H219551   5.185   1.976   5.679 -0.5941 -0.6584 -2.1319
 6536TIP3   OH219552   0.557   0.821   6.362  0.6783 -0.7801  0.0938
 6536TIP3    H119553   0.601   0.905   6.353 -2.7200  0.9016 -2.0422
 6536TIP3    H219554   0.582   0.772   6.283 -1.8440  0.5330 -1.5913
 6537TIP3   OH219555   5.407   0.692   6.100  0.3997  0.7626  0.3888
 6537TIP3    H119556   5.330   0.723   6.148 -0.6407 -1.4367  0.2026
 6537TIP3    H219557   5.434   0.614   6.148  1.8178  0.8561 -0.2486
 6538TIP3   OH219558   3.944   4.297   6.117 -0.3616  0.3269 -0.4784
 6538TIP3    H119559   4.015   4.301   6.053 -0.9486  0.0245 -1.1509
 6538TIP3    H219560   3.871   4.341   6.075 -0.2419  1.6782  0.6615
 6539TIP3   OH219561   2.806   4.086   6.352  0.4303  0.2608 -0.4622
 6539TIP3    H119562   2.837   4.055   6.266  1.4790 -0.5807  0.2094
 6539TIP3    H219563   2.885   4.089   6.406 -0.4970 -0.9148  0.9812
 6540TIP3   OH219564   2.791   4.507   4.616 -0.6328 -0.4043 -0.0318
 6540TIP3    H119565   2.816   4.598   4.596  0.4726 -0.1473  2.2846
 6540TIP3    H219566   2.770   4.508   4.710 -0.4789 -2.5603  0.0538
 6541TIP3   OH219567   3.668   2.149   6.207 -0.5495 -0.0231  0.6267
 6541TIP3    H119568   3.591   2.126   6.259 -0.6245 -0.8143  0.1590
 6541TIP3    H219569   3.632   2.190   6.129 -0.4385  1.0698  1.1355
 6542TIP3   OH219570   3.212   3.806   6.241  0.6314  0.0861  0.4393
 6542TIP3    H119571   3.238   3.733   6.296  3.0215  0.3051 -0.3139
 6542TIP3    H219572   3.158   3.768   6.172  1.8472 -1.0063  0.0633
 6543TIP3   OH219573   5.179   1.661   3.848  0.7862  0.6008  0.4265
 6543TIP3    H119574   5.197   1.600   3.920 -1.6756  0.4521  0.9711
 6543TIP3    H219575   5.144   1.739   3.891  1.4186  1.3816 -0.4638
 6544TIP3   OH219576   1.344   4.856   5.252  0.1560 -0.0831 -1.0245
 6544TIP3    H119577   1.381   4.867   5.165 -0.4296  0.6893 -1.1778
 6544TIP3    H219578   1.264   4.908   5.251  0.2250  0.0516  0.0246
 6545TIP3   OH219579   8.413   0.706   0.431  0.0689  0.4523 -0.1989
 6545TIP3    H119580   8.342   0.644   0.416  1.3805 -0.9627 -0.6853
 6545TIP3    H219581   8.446   0.727   0.343  2.4364 -1.5228  0.1895
 6546TIP3   OH219582   0.656   1.892   4.627  0.4871  0.5923 -0.1487
 6546TIP3    H119583   0.594   1.889   4.554  1.0213  0.2523 -0.6003
 6546TIP3    H219584   0.655   1.983   4.656  1.2045  1.0176 -1.3999
 6547TIP3   OH219585   2.768   1.408   3.769  0.2856  0.3972 -0.2606
 6547TIP3    H119586   2.714   1.366   3.836  0.3690 -1.9414 -1.6108
 6547TIP3    H219587   2.707   1.434   3.701  0.3920  1.3135 -0.0058
 6548TIP3   OH219588   4.962   1.995   5.918  0.4438  0.2714  0.2869
 6548TIP3    H119589   4.932   1.911   5.882 -0.6168 -0.5002  2.8435
 6548TIP3    H219590   4.888   2.054   5.907 -0.0038 -0.0562  1.4101
 6549TIP3   OH219591   2.225   2.880   4.231 -0.5518 -0.3558  0.0800
 6549TIP3    H119592   2.142   2.889   4.184  0.1123 -0.2949 -1.0827
 6549TIP3    H219593   2.287   2.847   4.166 -0.2181 -2.6352  1.5185
 6550TIP3   OH219594   2.453   4.283   3.095  0.7664 -0.0520  0.3623
 6550TIP3    H119595   2.511   4.319   3.028  0.4287  2.7956  1.5657
 6550TIP3    H219596   2.494   4.307   3.178 -1.8424  1.6069  1.2236
 6551TIP3   OH219597   2.004   3.766   3.853 -0.2032 -0.0455  0.2745
 6551TIP3    H119598   1.975   3.682   3.890  0.3056 -0.5486 -0.4519
 6551TIP3    H219599   2.024   3.820   3.929 -2.0445 -0.0446  0.7665
 6552TIP3   OH219600   0.802   0.123   6.130 -0.2441 -0.5240 -0.2203
 6552TIP3    H119601   0.785   0.130   6.036  0.2156  0.0483 -0.2639
 6552TIP3    H219602   0.740   0.184   6.170  2.3872  2.4000 -0.4546
 6553TIP3   OH219603   2.983   2.615   6.068 -0.3222  1.0184  0.1823
 6553TIP3    H119604   2.949   2.526   6.066 -0.8474  1.2601 -2.7829
 6553TIP3    H219605   3.067   2.607   6.114 -0.6641 -0.8758  0.5232
 6554TIP3   OH219606   4.110   3.265   6.110  0.3088  0.2993  0.2284
 6554TIP3    H119607   4.062   3.346   6.097  0.8252  1.0528  2.6019
 6554TIP3    H219608   4.065   3.221   6.183  2.3890  0.4230  1.6589
 6555TIP3   OH219609   1.992   1.700   6.696  0.1783  0.0232 -0.9230
 6555TIP3    H119610   1.918   1.645   6.669  0.3986  0.0388 -1.5588
 6555TIP3    H219611   2.065   1.668   6.644  0.9308 -0.8869  0.6618
 6556TIP3   OH219612   2.114   2.796   6.421 -0.6150  0.0389 -0.2937
 6556TIP3    H119613   2.161   2.802   6.338 -0.7353  1.0520 -0.2888
 6556TIP3    H219614   2.025   2.772   6.397 -1.2747  2.7081 -0.6554
 6557TIP3   OH219615   1.374   0.813   4.348 -0.2082 -0.1130 -0.4242
 6557TIP3    H119616   1.404   0.888   4.399 -0.2981 -0.1615 -0.2999
 6557TIP3    H219617   1.378   0.843   4.257  0.4250 -0.1899 -0.4242
 6558TIP3   OH219618   3.680   1.500   3.578  0.2091 -0.2957  0.0762
 6558TIP3    H119619   3.766   1.516   3.538 -0.6308  2.2448 -0.8370
 6558TIP3    H219620   3.640   1.434   3.522  1.2260 -0.8547 -0.0071
 6559TIP3   OH219621   4.064   1.229   4.578  0.5003  0.4118  0.4313
 6559TIP3    H119622   4.000   1.204   4.645 -0.9525 -1.5377 -1.6197
 6559TIP3    H219623   4.020   1.298   4.528  0.7365  0.3853  0.1897
 6560TIP3   OH219624   1.498   4.118   4.800  0.0964 -0.0041 -0.6190
 6560TIP3    H119625   1.416   4.165   4.818  0.9676  0.9778  0.9850
 6560TIP3    H219626   1.542   4.172   4.734  0.4799  0.7406  0.2252
 6561TIP3   OH219627   0.696   2.424   5.524 -0.1743  0.0393  0.2719
 6561TIP3    H119628   0.614   2.423   5.574 -0.0955 -0.4433  0.3942
 6561TIP3    H219629   0.688   2.351   5.462 -0.2988  0.6778 -0.4707
 6562TIP3   OH219630   2.194   3.404   6.322  0.9581  0.0071 -0.1940
 6562TIP3    H119631   2.219   3.434   6.410  0.8323 -0.8782  0.1522
 6562TIP3    H219632   2.122   3.461   6.297  0.2288 -0.4733  0.7617
 6563TIP3   OH219633   2.852   1.472   5.178  0.2272  0.2697 -0.0006
 6563TIP3    H119634   2.918   1.472   5.110  0.3465  0.1734  0.1144
 6563TIP3    H219635   2.893   1.516   5.253 -0.8488  2.8922 -0.8821
 6564TIP3   OH219636   3.529   2.618   3.291 -0.1942  0.4136 -0.3653
 6564TIP3    H119637   3.509   2.702   3.332 -0.7309 -0.3635  0.9895
 6564TIP3    H219638   3.621   2.603   3.309 -0.2929  0.3380  0.0755
 6565TIP3   OH219639   2.961   2.472   4.951  0.1165  0.2083 -0.8975
 6565TIP3    H119640   2.922   2.545   4.903 -1.5343  0.0258  0.1136
 6565TIP3    H219641   2.901   2.399   4.936  1.0795 -0.5956 -0.8520
 6566TIP3   OH219642   3.875   1.071   6.165  0.5949 -0.8013 -0.2743
 6566TIP3    H119643   3.782   1.091   6.169  0.1873 -2.7666  0.7663
 6566TIP3    H219644   3.906   1.082   6.256  1.6263  0.8694 -0.7943
 6567TIP3   OH219645   5.479   1.755   3.895  0.1671  0.7784  0.4006
 6567TIP3    H119646   5.388   1.729   3.880  1.1583 -2.3984 -0.5617
 6567TIP3    H219647   5.508   1.792   3.812  0.1559  0.5242  0.2830
 6568TIP3   OH219648   4.745   2.141   5.442 -0.3218  0.1897  0.2017
 6568TIP3    H119649   4.737   2.208   5.510  0.0716  0.7587 -0.2978
 6568TIP3    H219650   4.723   2.187   5.361 -0.9585 -0.5274 -0.0305
 6569TIP3   OH219651   6.415   0.891   5.061  0.1542 -0.3409  0.4787
 6569TIP3    H119652   6.378   0.871   4.975  0.6223 -1.0556  0.4379
 6569TIP3    H219653   6.339   0.903   5.118 -0.1524 -0.2389  0.0491
 6570TIP3   OH219654   8.120   7.559   4.319  0.5622  0.1306  0.5224
 6570TIP3    H119655   8.056   7.488   4.331 -0.2883  0.8381  0.1503
 6570TIP3    H219656   8.201   7.513   4.295  0.1742 -0.7593  0.8720
 6571TIP3   OH219657   5.947   2.645   3.794 -0.4590  0.0757 -0.3728
 6571TIP3    H119658   5.958   2.555   3.763  0.4722 -0.4604  1.4265
 6571TIP3    H219659   5.978   2.643   3.884  1.2116  2.5820 -0.8329
 6572TIP3   OH219660   5.808   1.734   3.859 -0.1497 -0.1515 -0.0321
 6572TIP3    H119661   5.786   1.677   3.932 -1.9743  3.7924  2.6483
 6572TIP3    H219662   5.730   1.732   3.803 -0.3063 -0.0661  0.1839
 6573TIP3   OH219663   1.088   7.029   3.908 -0.2752 -0.3078 -0.2903
 6573TIP3    H119664   1.029   7.011   3.834 -1.0057  0.8172  0.0010
 6573TIP3    H219665   1.077   7.123   3.924  2.5142  0.1719 -0.9872
 6574TIP3   OH219666   3.690   1.108   3.923  0.2695  0.6330 -0.3103
 6574TIP3    H119667   3.713   1.026   3.879  0.2917  1.2818 -1.5159
 6574TIP3    H219668   3.740   1.175   3.878 -1.3032  1.5835 -0.6814
 6575TIP3   OH219669   4.949   4.132   3.692 -0.3545  0.3388 -0.1085
 6575TIP3    H119670   4.942   4.187   3.614  0.0127 -0.9173 -1.0490
 6575TIP3    H219671   5.032   4.084   3.680 -1.3376 -1.4318  0.0263
 6576TIP3   OH219672   5.320   2.353   3.756  0.0867 -0.2151  0.0878
 6576TIP3    H119673   5.401   2.320   3.717  0.2693  0.0643  0.2241
 6576TIP3    H219674   5.348   2.430   3.805 -0.5017  0.7284 -1.0576
 6577TIP3   OH219675   7.776   2.288   4.010  0.5765 -0.1582 -0.1071
 6577TIP3    H119676   7.774   2.315   4.102  0.6536 -0.4954 -0.0079
 6577TIP3    H219677   7.809   2.198   4.012  1.2157  0.0680 -0.5161
 6578TIP3   OH219678   4.013   2.772   4.882 -0.1582 -0.5626 -0.2764
 6578TIP3    H119679   3.961   2.721   4.821  0.0809  0.3998 -1.3041
 6578TIP3    H219680   3.962   2.853   4.894  1.4079  0.6980 -1.8521
 6579TIP3   OH219681   4.312   2.626   4.039  0.1794 -0.1389 -0.1160
 6579TIP3    H119682   4.283   2.629   3.948 -0.3124 -1.2967 -0.0203
 6579TIP3    H219683   4.283   2.709   4.077 -1.1693 -0.3879 -0.5798
 6580TIP3   OH219684   2.872   1.131   3.000  0.0601 -0.0479 -0.4315
 6580TIP3    H119685   2.966   1.126   3.018  0.0362 -0.5722 -0.4366
 6580TIP3    H219686   2.867   1.144   2.905  0.0894 -2.7747 -0.8549
 6581TIP3   OH219687   1.990   1.265   2.920  0.3251 -0.1336  0.0484
 6581TIP3    H119688   2.031   1.218   2.993 -0.7392  0.0853  0.7956
 6581TIP3    H219689   1.947   1.340   2.961 -1.3288 -0.6979 -0.6417
 6582TIP3   OH219690   3.490   3.483   2.549  0.2995  0.1153 -0.1102
 6582TIP3    H119691   3.450   3.439   2.475  2.3297  0.7475 -1.6448
 6582TIP3    H219692   3.438   3.457   2.625 -2.2009 -0.0392 -1.8436
 6583TIP3   OH219693   5.991   1.807   2.936  0.1579  0.2057  0.1687
 6583TIP3    H119694   6.005   1.723   2.979 -1.4942  0.1869  0.7073
 6583TIP3    H219695   5.900   1.804   2.905  0.2012  1.6291 -0.1586
 6584TIP3   OH219696   6.073   4.119   0.585 -0.2688  0.4075 -0.2159
 6584TIP3    H119697   6.087   4.101   0.678  1.3714 -2.2698 -0.9306
 6584TIP3    H219698   5.978   4.108   0.573 -0.2054 -1.3832  0.7424
 6585TIP3   OH219699   4.746   3.059   4.983  0.1756 -0.1687 -0.0690
 6585TIP3    H119700   4.789   3.144   4.972  1.8260 -0.7829  1.3373
 6585TIP3    H219701   4.730   3.029   4.894  0.3884  1.2159 -0.5964
 6586TIP3   OH219702   4.069   0.892   5.858  0.1346  0.7940 -0.0795
 6586TIP3    H119703   3.977   0.867   5.867 -0.0475  0.8013 -1.6685
 6586TIP3    H219704   4.113   0.851   5.932 -1.2506  1.2894  1.0428
 6587TIP3   OH219705   5.881   2.391   5.152  0.0569  0.3168  0.1757
 6587TIP3    H119706   5.792   2.427   5.154  0.0495  0.3441 -0.4859
 6587TIP3    H219707   5.933   2.458   5.107 -0.0760 -0.7439 -1.5781
 6588TIP3   OH219708   5.802   1.260   4.876 -0.4247  0.3318 -0.2793
 6588TIP3    H119709   5.865   1.239   4.807  0.1133  0.0981  0.2689
 6588TIP3    H219710   5.819   1.194   4.944 -0.8837  0.6125  0.1079
 6589TIP3   OH219711   4.228   2.315   6.630  0.2389 -0.0403  0.0240
 6589TIP3    H119712   4.210   2.225   6.654 -0.9524  0.7308  2.1762
 6589TIP3    H219713   4.164   2.335   6.561 -0.0373 -0.5745  0.1276
 6590TIP3   OH219714   6.704   1.298   2.772 -0.3995 -0.0850  0.1242
 6590TIP3    H119715   6.794   1.271   2.793 -0.4726 -0.4546 -0.0269
 6590TIP3    H219716   6.678   1.353   2.845  0.2400  0.6830 -0.2197
 6591TIP3   OH219717   3.949   4.069   5.185  0.5021 -0.2412  0.2158
 6591TIP3    H119718   4.044   4.059   5.180  0.4780 -0.8480  0.8161
 6591TIP3    H219719   3.914   3.985   5.155  0.1664 -0.1400  0.3175
 6592TIP3   OH219720   6.697   3.585   4.521  0.4224 -0.1553 -0.2767
 6592TIP3    H119721   6.608   3.606   4.492  0.6836  0.2604 -0.7888
 6592TIP3    H219722   6.685   3.515   4.585 -0.3357  0.4630  0.2682
 6593TIP3   OH219723   3.944   0.504   4.766  0.5506 -0.4771  0.3422
 6593TIP3    H119724   3.999   0.548   4.830  0.7994  0.7850 -0.7079
 6593TIP3    H219725   3.998   0.431   4.734  1.0781 -0.0924  0.3440
 6594TIP3   OH219726   5.734   2.826   3.788 -0.3849 -0.1010  0.1393
 6594TIP3    H119727   5.707   2.789   3.872  0.2112 -1.1664 -0.1425
 6594TIP3    H219728   5.821   2.791   3.773 -0.6994 -0.3272 -1.1794
 6595TIP3   OH219729   4.586   3.663   5.670 -0.0358 -0.2727  0.3002
 6595TIP3    H119730   4.636   3.743   5.659 -2.1215  1.0351 -0.0700
 6595TIP3    H219731   4.648   3.592   5.652  1.8598  1.2372  0.7559
 6596TIP3   OH219732   5.507   2.690   4.715 -0.1367 -0.0178 -0.1796
 6596TIP3    H119733   5.509   2.707   4.621 -2.4825 -0.5344 -0.3431
 6596TIP3    H219734   5.600   2.687   4.740  0.5847 -1.9499 -2.8478
 6597TIP3   OH219735   2.906   2.058   4.969 -0.1072 -0.0121 -0.2205
 6597TIP3    H119736   2.874   1.987   5.024 -1.3149 -1.1733 -2.3651
 6597TIP3    H219737   2.841   2.128   4.979  0.7401  0.5769  1.3739
 6598TIP3   OH219738   5.674   2.443   3.823 -0.6855 -0.5414  0.0946
 6598TIP3    H119739   5.713   2.530   3.831 -0.3634 -0.7286  0.5423
 6598TIP3    H219740   5.671   2.409   3.912 -1.0286 -0.8944 -0.0510
 6599TIP3   OH219741   6.603   1.433   4.455  0.1789 -0.2106 -0.6927
 6599TIP3    H119742   6.532   1.369   4.451  0.7927 -0.8908 -0.6904
 6599TIP3    H219743   6.605   1.471   4.367  0.1018 -0.5034 -0.8217
 6600TIP3   OH219744   3.402   1.421   3.030 -0.1460 -0.3347 -0.0289
 6600TIP3    H119745   3.478   1.442   3.086 -0.7233  0.0270  0.6266
 6600TIP3    H219746   3.356   1.504   3.020 -0.7110 -0.6456 -0.0496
 6601TIP3   OH219747   6.613   1.620   5.279 -0.1468 -0.4701  0.2784
 6601TIP3    H119748   6.611   1.711   5.307 -1.6125 -0.5674  0.5445
 6601TIP3    H219749   6.595   1.622   5.185 -0.2862 -0.4824  0.3039
 6602TIP3   OH219750   4.853   1.959   4.259  0.0955 -0.4364  0.5038
 6602TIP3    H119751   4.893   2.038   4.222  2.1021 -2.1212 -1.0999
 6602TIP3    H219752   4.797   1.926   4.189  0.3096 -1.1591  0.6735
 6603TIP3   OH219753   4.955   2.809   5.181 -0.0830  0.1820 -0.1137
 6603TIP3    H119754   4.971   2.806   5.276 -2.6070  0.8878  0.3584
 6603TIP3    H219755   5.000   2.889   5.153  0.8963 -0.1647  0.4260
 6604TIP3   OH219756   5.596   1.971   5.633 -0.0689 -0.0519 -0.4769
 6604TIP3    H119757   5.635   1.936   5.713 -1.6366  0.2974  0.4549
 6604TIP3    H219758   5.587   1.895   5.576  0.1669 -0.4801  0.0502
 6605TIP3   OH219759   5.755   2.101   3.846  0.1964 -0.0409 -0.6519
 6605TIP3    H119760   5.820   2.031   3.835 -0.2111 -0.6036  0.5426
 6605TIP3    H219761   5.800   2.167   3.898  0.1266 -0.0087 -0.6334
 6606TIP3   OH219762   7.004   7.671   0.949  0.2005 -0.4988 -0.3272
 6606TIP3    H119763   6.996   7.681   0.854  1.4561  0.0305 -0.3958
 6606TIP3    H219764   7.066   7.739   0.974  1.0692 -1.6417  0.6551
 6607TIP3   OH219765   4.163   0.881   3.525 -0.1952  0.4539 -0.6714
 6607TIP3    H119766   4.242   0.836   3.495 -0.0964 -0.4404  0.8664
 6607TIP3    H219767   4.106   0.811   3.558 -1.7036  1.0690 -1.8653
 6608TIP3   OH219768   4.241   2.522   5.779 -0.2616  0.4866 -0.2386
 6608TIP3    H119769   4.290   2.582   5.724  0.0168  1.9930  1.6109
 6608TIP3    H219770   4.176   2.577   5.823  0.1043 -0.5298  1.6118
 6609TIP3   OH219771   4.043   4.113   3.727  0.7291 -0.1609  0.3412
 6609TIP3    H119772   4.095   4.048   3.679  0.1891  0.4141 -1.0540
 6609TIP3    H219773   3.955   4.076   3.729  0.5581  0.2316  0.0972
 6610TIP3   OH219774   4.963   3.144   4.581  0.2185 -0.1304  0.1810
 6610TIP3    H119775   4.999   3.056   4.568  1.8245 -0.0293  3.5596
 6610TIP3    H219776   4.868   3.131   4.582  0.4280 -1.7506  0.2891
 6611TIP3   OH219777   3.050   1.804   5.291 -0.6836  0.3157  0.4722
 6611TIP3    H119778   2.993   1.859   5.345 -2.1514  1.2787 -1.9592
 6611TIP3    H219779   3.138   1.825   5.320 -1.3568  2.1422  1.3042
 6612TIP3   OH219780   3.328   3.201   3.601  0.0437 -0.2978  0.6658
 6612TIP3    H119781   3.416   3.189   3.637  0.0846 -1.9124  0.0555
 6612TIP3    H219782   3.295   3.279   3.646  1.5961  0.0518  1.2545
 6613TIP3   OH219783   6.540   1.008   5.987 -0.7979  0.2336  0.3525
 6613TIP3    H119784   6.527   1.078   5.924 -1.0640 -0.4225 -0.3341
 6613TIP3    H219785   6.471   0.945   5.967  0.6541 -1.1681 -0.3700
 6614TIP3   OH219786   5.780   1.974   5.882  0.2598 -0.1839 -0.9164
 6614TIP3    H119787   5.843   1.962   5.954 -0.2586 -1.3264 -0.6460
 6614TIP3    H219788   5.805   1.909   5.817 -0.8981 -0.9316 -0.6291
 6615TIP3   OH219789   4.483   1.803   6.375 -0.1658 -0.3541 -0.1297
 6615TIP3    H119790   4.444   1.730   6.423  1.6748 -0.8274  0.7210
 6615TIP3    H219791   4.573   1.807   6.407  0.6731  0.3154 -2.4356
 6616TIP3   OH219792   4.928   3.226   5.935  0.0285  0.4811  0.3976
 6616TIP3    H119793   5.020   3.223   5.911  0.4619 -2.5590  2.0764
 6616TIP3    H219794   4.925   3.183   6.021 -3.1022 -0.7378 -0.2556
 6617TIP3   OH219795   8.206   7.873   0.547 -0.1358  0.0666  0.3101
 6617TIP3    H119796   8.133   7.812   0.557  0.2809 -0.2165  1.8118
 6617TIP3    H219797   8.236   7.889   0.637  2.7219 -1.1607 -0.3512
 6618TIP3   OH219798   4.011   4.864   3.956 -0.0212  0.2121 -0.1374
 6618TIP3    H119799   4.033   4.869   3.863 -0.2189  1.4292 -0.1249
 6618TIP3    H219800   3.976   4.776   3.968 -3.4373  1.2562 -1.9547
 6619TIP3   OH219801   4.177   1.966   4.321  0.2738 -0.4554  0.3763
 6619TIP3    H119802   4.145   2.011   4.400 -1.2733  0.7240 -0.9013
 6619TIP3    H219803   4.101   1.920   4.287  1.3120 -2.2525  0.4041
 6620TIP3   OH219804   4.486   4.317   2.969  0.2393  0.3224  0.0944
 6620TIP3    H119805   4.474   4.335   2.876 -0.6007 -0.3369  0.0688
 6620TIP3    H219806   4.542   4.239   2.972 -2.0189 -1.3765  0.0623
 6621TIP3   OH219807   6.350   2.983   3.774 -0.0292 -0.3750 -0.4037
 6621TIP3    H119808   6.277   2.926   3.749 -0.3412 -0.2172  0.1401
 6621TIP3    H219809   6.311   3.069   3.788  0.2357 -0.3226  0.0354
 6622TIP3   OH219810   6.266   0.706   3.928 -0.3049  0.1844 -0.2036
 6622TIP3    H119811   6.220   0.648   3.866  0.7418  0.6167 -1.4012
 6622TIP3    H219812   6.197   0.762   3.963 -0.8546  0.2431 -1.3421
 6623TIP3   OH219813   5.341   2.864   5.936 -0.6172  0.1681 -0.0494
 6623TIP3    H119814   5.399   2.806   5.985  0.5844  1.6201  0.2908
 6623TIP3    H219815   5.369   2.854   5.845  0.1777  0.8517  0.1104
 6624TIP3   OH219816   6.582   1.261   5.471 -0.2327  0.1481 -0.4411
 6624TIP3    H119817   6.520   1.189   5.465  0.2214 -0.8317  4.6832
 6624TIP3    H219818   6.529   1.340   5.460 -1.8111 -0.7845  0.3826
 6625TIP3   OH219819   5.855   1.100   5.112 -0.3756  0.1009 -0.5564
 6625TIP3    H119820   5.904   1.134   5.187  0.6505 -1.4199 -0.5162
 6625TIP3    H219821   5.766   1.132   5.125  0.1591  1.2494  0.4118
 6626TIP3   OH219822   5.072   1.978   3.615 -0.3044 -0.5010 -0.3978
 6626TIP3    H119823   5.016   2.053   3.593 -0.4910 -0.1860  1.0840
 6626TIP3    H219824   5.016   1.902   3.600 -0.8412 -0.2292  0.1400
 6627TIP3   OH219825   5.044   1.069   3.217 -0.4610  0.0876  0.1002
 6627TIP3    H119826   5.072   1.145   3.268 -0.4851  0.5617 -0.5895
 6627TIP3    H219827   5.122   1.014   3.211 -0.8211 -0.6414  1.8258
 6628TIP3   OH219828   5.301   2.935   4.393  0.5387  0.1746 -0.0815
 6628TIP3    H119829   5.261   2.930   4.480  0.3769  0.2956 -0.1493
 6628TIP3    H219830   5.245   2.995   4.344  1.0910  0.7454 -0.0164
 6629TIP3   OH219831   4.685   4.003   6.463  0.0954  0.0858  0.6208
 6629TIP3    H119832   4.680   4.098   6.457 -0.5166  0.0124 -0.3130
 6629TIP3    H219833   4.626   3.980   6.535  0.5379  0.4336  1.0952
 6630TIP3   OH219834   2.099   1.737   3.979  0.0062 -0.3487  0.2044
 6630TIP3    H119835   2.003   1.745   3.979  0.1457  2.2717 -1.9293
 6630TIP3    H219836   2.126   1.783   4.058 -0.4617  0.2960  0.0053
 6631TIP3   OH219837   2.840   1.863   2.681 -0.1840  0.0076 -0.0784
 6631TIP3    H119838   2.912   1.819   2.727 -0.6527 -2.4128 -1.5814
 6631TIP3    H219839   2.880   1.940   2.641  0.7391  0.8163  2.2994
 6632TIP3   OH219840   4.000   3.152   3.382 -0.1176 -0.0916 -0.1342
 6632TIP3    H119841   4.055   3.182   3.454  1.1177 -2.1861 -0.1752
 6632TIP3    H219842   4.059   3.105   3.324 -1.6725 -1.1405 -0.9089
 6633TIP3   OH219843   4.675   1.383   2.590  0.1786  0.1608  0.4198
 6633TIP3    H119844   4.662   1.405   2.498 -0.8221  1.5128  0.8664
 6633TIP3    H219845   4.694   1.289   2.590  0.2570  0.1646 -1.1586
 6634TIP3   OH219846   2.736   1.833   5.171 -0.9349 -0.2030 -0.1439
 6634TIP3    H119847   2.774   1.804   5.254 -1.6464 -1.4373 -0.2467
 6634TIP3    H219848   2.682   1.909   5.195 -0.5628 -0.1125  0.4088
 6635TIP3   OH219849   2.874   1.083   4.366 -0.9010 -0.5407  0.3900
 6635TIP3    H119850   2.855   0.993   4.393 -0.2522 -0.1586  2.1741
 6635TIP3    H219851   2.792   1.130   4.379 -1.0945 -0.7537 -0.0466
 6636TIP3   OH219852   2.960   3.857   2.432  0.2488  0.5386  0.5152
 6636TIP3    H119853   3.015   3.935   2.420 -0.4439  0.8174 -1.0869
 6636TIP3    H219854   2.875   3.892   2.460 -0.2653  0.4492 -0.8593
 6637TIP3   OH219855   3.775   1.709   3.150  0.1459  0.6833  0.0739
 6637TIP3    H119856   3.712   1.737   3.216  2.2284  3.8966  0.8645
 6637TIP3    H219857   3.753   1.761   3.072 -0.9180 -1.4696 -1.1022
 6638TIP3   OH219858   5.115   1.953   4.870  0.5699  0.5382 -0.1064
 6638TIP3    H119859   5.186   2.012   4.843  1.0641  0.3723  0.8042
 6638TIP3    H219860   5.084   1.989   4.953  0.9695 -0.5474  0.5311
 6639TIP3   OH219861   2.841   3.076   5.721  0.4347 -0.5394  0.7508
 6639TIP3    H119862   2.905   3.035   5.780  0.2370 -0.1720  1.2285
 6639TIP3    H219863   2.785   3.128   5.779  1.3254  1.2492  0.0528
 6640TIP3   OH219864   3.716   1.685   4.537  0.1922 -0.2828 -0.4413
 6640TIP3    H119865   3.770   1.614   4.504  1.2359  0.3701 -0.1601
 6640TIP3    H219866   3.644   1.641   4.583  1.0074 -1.1479  0.0208
 6641TIP3   OH219867   4.069   2.344   3.629 -0.2448 -0.2295 -0.3359
 6641TIP3    H119868   3.977   2.352   3.605 -1.0992  0.2479  2.9233
 6641TIP3    H219869   4.111   2.419   3.587 -1.9538  1.4458  0.8500
 6642TIP3   OH219870   6.364   0.826   5.921 -0.1443  0.2166  0.0425
 6642TIP3    H119871   6.320   0.789   5.997  0.7389  0.3071  0.5947
 6642TIP3    H219872   6.293   0.866   5.870 -0.8790 -0.7917  0.2578
 6643TIP3   OH219873   3.659   2.200   5.435 -0.1111 -0.2856  0.9343
 6643TIP3    H119874   3.712   2.222   5.358  0.1752  0.5719  1.3774
 6643TIP3    H219875   3.585   2.260   5.432  0.6193  0.6826  2.0891
 6644TIP3   OH219876   6.632   2.022   4.152 -0.4334  0.8566  0.0449
 6644TIP3    H119877   6.631   2.103   4.101  1.5684 -0.4324 -2.1325
 6644TIP3    H219878   6.705   1.971   4.116  0.8899 -0.2676  4.0032
 6645TIP3   OH219879   5.026   2.052   5.497  0.6480  0.6933 -0.3440
 6645TIP3    H119880   4.943   2.097   5.484  0.5585  0.1853 -1.6833
 6645TIP3    H219881   5.089   2.105   5.447  1.1284  1.0670  0.6460
 6646TIP3   OH219882   3.440   1.505   4.147 -0.0688 -0.3831 -0.6597
 6646TIP3    H119883   3.346   1.521   4.139 -0.0540 -0.7390 -1.6130
 6646TIP3    H219884   3.472   1.578   4.199 -0.7671  0.1180 -0.9180
 6647TIP3   OH219885   4.637   1.641   3.525  0.3506  0.0187 -0.1145
 6647TIP3    H119886   4.592   1.724   3.540  2.6167  1.6009 -1.5013
 6647TIP3    H219887   4.646   1.602   3.612 -1.0525  1.0710  0.5214
 6648TIP3   OH219888   3.303   1.063   5.049 -0.2167  0.1887  0.0501
 6648TIP3    H119889   3.313   1.069   4.954 -0.0273  1.1254  0.1211
 6648TIP3    H219890   3.324   0.972   5.071 -1.2016 -0.2806 -0.9174
 6649TIP3   OH219891   4.870   4.256   6.592 -0.0329 -0.0201 -0.0032
 6649TIP3    H119892   4.779   4.287   6.593 -0.6512 -1.7678  1.2657
 6649TIP3    H219893   4.919   4.321   6.641 -0.7870  0.4361  0.1495
 6650TIP3   OH219894   7.100   2.647   3.333 -0.3294  0.1127  0.2538
 6650TIP3    H119895   7.142   2.582   3.389  1.0370  1.3844  0.7346
 6650TIP3    H219896   7.150   2.727   3.347 -2.2020  1.3752 -0.0527
 6651TIP3   OH219897   6.653   0.734   5.039  0.0786 -0.6392  0.3892
 6651TIP3    H119898   6.635   0.662   4.978 -1.9262  1.4786 -1.5939
 6651TIP3    H219899   6.575   0.790   5.034  1.8876  2.0494  1.3450
 6652TIP3   OH219900   4.030   1.747   4.659  0.3262 -0.2427 -0.3102
 6652TIP3    H119901   4.043   1.830   4.614 -2.0522 -0.1573 -0.8946
 6652TIP3    H219902   4.028   1.769   4.752 -1.5961  0.5409 -0.5316
 6653TIP3   OH219903   4.808   0.646   3.074 -0.2371  0.0294  0.2544
 6653TIP3    H119904   4.889   0.690   3.099  0.2423 -0.0224 -1.1427
 6653TIP3    H219905   4.740   0.687   3.127  0.8742 -0.8131  2.3747
 6654TIP3   OH219906   5.859   1.639   4.712  0.1304  0.2377  0.4390
 6654TIP3    H119907   5.793   1.614   4.647  1.4557 -2.0252 -0.0997
 6654TIP3    H219908   5.906   1.712   4.672  1.3414 -1.5356 -1.4832
 6655TIP3   OH219909   4.195   2.244   2.416  0.1749 -0.1694  0.2457
 6655TIP3    H119910   4.185   2.217   2.507 -0.9586 -0.7623 -0.0459
 6655TIP3    H219911   4.134   2.188   2.367 -0.6308  1.4424 -0.6342
 6656TIP3   OH219912   1.721   3.828   4.639 -0.0426  0.0895  0.7628
 6656TIP3    H119913   1.807   3.861   4.662  0.4821  0.0810 -1.0708
 6656TIP3    H219914   1.737   3.771   4.564 -1.6792  0.3364  0.2067
 6657TIP3   OH219915   3.387   3.950   4.076  0.4084  0.1695  0.1908
 6657TIP3    H119916   3.294   3.967   4.088 -0.2745 -3.3125  0.5060
 6657TIP3    H219917   3.429   3.997   4.148 -1.0761  1.9045 -0.0470
 6658TIP3   OH219918   5.997   1.559   5.674  0.1448  0.2677 -0.2191
 6658TIP3    H119919   6.089   1.578   5.661  0.1820 -1.0063 -2.1182
 6658TIP3    H219920   5.994   1.508   5.755  1.2469 -0.5133 -0.6509
 6659TIP3   OH219921   5.015   2.027   2.734  0.2582 -0.0213 -0.0688
 6659TIP3    H119922   4.924   2.034   2.706  0.4932 -0.8328 -1.0550
 6659TIP3    H219923   5.012   1.985   2.819 -0.2285 -1.1265 -0.6204
 6660TIP3   OH219924   8.407   1.467   6.627 -0.4705 -0.2534  0.7009
 6660TIP3    H119925   8.381   1.507   6.544 -2.3703 -2.2340  0.3182
 6660TIP3    H219926   8.461   1.392   6.601  0.1143 -0.0492  1.3161
 6661TIP3   OH219927   3.932   3.181   4.605 -0.9491 -0.1565  0.2558
 6661TIP3    H119928   3.987   3.132   4.544 -0.8793 -2.4301  2.0839
 6661TIP3    H219929   3.847   3.138   4.601 -2.0810  2.1375 -1.1087
 6662TIP3   OH219930   4.366   1.522   3.476  0.0051 -0.3297 -0.0491
 6662TIP3    H119931   4.312   1.586   3.522 -0.7550 -0.6660 -0.4602
 6662TIP3    H219932   4.440   1.572   3.444  0.2298  0.0241  1.0159
 6663TIP3   OH219933   4.967   2.502   4.310  0.5881 -0.2052  0.4752
 6663TIP3    H119934   4.877   2.512   4.342  0.2922  1.5109 -0.7630
 6663TIP3    H219935   4.957   2.480   4.217  1.4435 -0.0833  0.3476
 6664TIP3   OH219936   4.747   2.098   1.658  0.5633  0.3254 -1.0137
 6664TIP3    H119937   4.830   2.085   1.704  0.9392 -1.0628 -2.0606
 6664TIP3    H219938   4.710   2.010   1.649  0.0700  0.6626 -2.5301
 6665TIP3   OH219939   2.352   3.278   2.590 -0.5959  0.1336 -0.0364
 6665TIP3    H119940   2.319   3.352   2.540  0.0747 -0.1353 -0.8921
 6665TIP3    H219941   2.424   3.243   2.537 -0.6149 -0.8502  0.5683
 6666TIP3   OH219942   3.672   4.495   4.465 -0.0461  0.2378  0.2357
 6666TIP3    H119943   3.675   4.579   4.512 -0.7733  0.7497 -0.6108
 6666TIP3    H219944   3.711   4.433   4.526  1.0699  1.3066  0.6378
 6667TIP3   OH219945   5.925   2.212   5.856  0.5286 -0.7864 -0.5992
 6667TIP3    H119946   5.852   2.157   5.830 -0.1238 -0.1430 -0.1511
 6667TIP3    H219947   5.996   2.151   5.874  0.4990 -1.3412 -2.2571
 6668TIP3   OH219948   5.242   1.945   3.091  0.2108 -0.5037 -0.1741
 6668TIP3    H119949   5.309   1.890   3.050  0.7325  0.1364 -0.1897
 6668TIP3    H219950   5.278   1.966   3.178  0.8300  1.2854 -0.8393
 6669TIP3   OH219951   6.603   3.111   3.617  0.0200 -0.5380 -0.1145
 6669TIP3    H119952   6.643   3.144   3.697  1.0977 -0.5933 -0.6287
 6669TIP3    H219953   6.521   3.071   3.646  0.4365 -0.6216  0.9708
 6670TIP3   OH219954   3.071   3.328   5.847 -0.8206 -0.0267 -0.2625
 6670TIP3    H119955   3.059   3.371   5.762 -0.1145  0.9017  0.1050
 6670TIP3    H219956   3.080   3.235   5.825  1.8426  0.4660 -1.4351
 6671TIP3   OH219957   7.042   2.347   0.134  0.0707 -0.2403  0.5049
 6671TIP3    H119958   7.084   2.262   0.117 -1.3064 -0.7284 -0.5640
 6671TIP3    H219959   7.083   2.406   0.071  0.1311 -0.3941  0.3992
 6672TIP3   OH219960   3.391   2.924   4.348  0.1322 -0.6798 -0.0265
 6672TIP3    H119961   3.405   2.837   4.385 -1.7163 -1.0782 -0.2410
 6672TIP3    H219962   3.475   2.946   4.307  1.1843 -1.5853  1.5800
 6673TIP3   OH219963   5.224   5.211   6.603  0.3655  0.0427  0.4990
 6673TIP3    H119964   5.298   5.235   6.659  0.2071  0.8167  0.3879
 6673TIP3    H219965   5.256   5.137   6.551  1.5770  1.3138 -0.6155
 6674TIP3   OH219966   4.927   3.809   5.975 -0.0691 -0.2743 -0.4070
 6674TIP3    H119967   4.947   3.844   6.062  1.1187 -0.9051 -0.4208
 6674TIP3    H219968   4.874   3.731   5.992 -2.0066  0.9945 -0.3494
 6675TIP3   OH219969   3.292   2.015   4.076  0.2992 -0.2981 -0.3840
 6675TIP3    H119970   3.237   2.005   4.153  0.2505  0.3314 -0.3350
 6675TIP3    H219971   3.381   2.021   4.110  0.4350 -1.5104 -0.4737
 6676TIP3   OH219972   4.417   2.252   4.904  0.1376 -0.0629  0.3717
 6676TIP3    H119973   4.416   2.343   4.932 -0.5802 -0.4800  1.7666
 6676TIP3    H219974   4.501   2.241   4.858 -0.0360  1.4307 -0.2935
 6677TIP3   OH219975   3.056   4.587   2.347  0.2034  0.0472 -0.1207
 6677TIP3    H119976   2.999   4.594   2.271 -1.2091 -1.1092  0.8256
 6677TIP3    H219977   3.096   4.674   2.354 -1.8049  1.0372 -0.5077
 6678TIP3   OH219978   5.149   2.626   4.849 -0.2802  0.0740  0.1739
 6678TIP3    H119979   5.206   2.655   4.920 -2.0965  1.3596  1.1649
 6678TIP3    H219980   5.208   2.589   4.783  1.4814 -0.5592  2.0775
 6679TIP3   OH219981   5.783   0.843   5.014  0.2686 -0.2592  0.4887
 6679TIP3    H119982   5.816   0.920   5.061  1.0107 -0.1238 -0.2309
 6679TIP3    H219983   5.716   0.806   5.072  0.5918  0.3695  1.2788
 6680TIP3   OH219984   4.198   3.224   2.549  0.2087  0.1898 -0.4322
 6680TIP3    H119985   4.178   3.308   2.508 -0.7232  0.8025  1.2423
 6680TIP3    H219986   4.281   3.198   2.510  0.7697  2.1392 -0.6059
 6681TIP3   OH219987   8.342   2.260   3.525  0.4010  0.0718  0.0246
 6681TIP3    H119988   8.276   2.212   3.575 -0.5588  0.3539 -0.9574
 6681TIP3    H219989   8.403   2.192   3.496 -1.7472 -0.8543 -2.6143
 6682TIP3   OH219990   6.600   7.179   0.475 -0.4370  0.0405  0.3794
 6682TIP3    H119991   6.677   7.235   0.488 -0.0990 -0.2110 -0.5264
 6682TIP3    H219992   6.526   7.234   0.504  0.1129  0.0914  1.7520
 6683TIP3   OH219993   5.377   1.287   5.169  0.3895 -0.0392  0.2157
 6683TIP3    H119994   5.310   1.237   5.121  1.2879 -0.9875 -0.0553
 6683TIP3    H219995   5.348   1.283   5.260  0.3234 -0.8575  0.1681
 6684TIP3   OH219996   3.848   2.304   5.255 -0.0936  0.5615 -0.6790
 6684TIP3    H119997   3.912   2.233   5.244  0.1267  0.8820 -1.5098
 6684TIP3    H219998   3.855   2.355   5.175 -1.0330  0.9002 -0.5510
 6685TIP3   OH219999   5.323   1.940   3.702 -0.0663  0.6329  0.0380
 6685TIP3    H120000   5.243   1.897   3.672  0.5191  0.6337 -1.5982
 6685TIP3    H220001   5.293   2.015   3.754 -1.1057 -0.1156  0.5366
 6686TIP3   OH220002   6.943   2.214   5.642 -0.1790 -0.4449 -0.2326
 6686TIP3    H120003   6.884   2.289   5.640 -0.1246 -0.3726  0.8511
 6686TIP3    H220004   7.014   2.240   5.701  0.0899 -1.1579 -0.2349
 6687TIP3   OH220005   6.289   0.569   4.717 -0.5239  0.3884  0.3990
 6687TIP3    H120006   6.306   0.488   4.764 -0.8710  0.1675  0.1499
 6687TIP3    H220007   6.231   0.543   4.645  1.6894  0.3322 -1.4035
 6688TIP3   OH220008   3.342   2.907   3.985 -0.1907  0.3938 -0.6561
 6688TIP3    H120009   3.316   2.875   4.071 -0.0415  0.4294 -0.5980
 6688TIP3    H220010   3.435   2.930   3.994 -0.9437  3.4344  0.0954
 6689TIP3   OH220011   2.935   1.520   1.896 -0.4807 -0.0470  0.1582
 6689TIP3    H120012   2.905   1.575   1.969 -1.1366 -0.4236  0.1764
 6689TIP3    H220013   3.028   1.506   1.913 -0.8857 -1.1527  1.5891
 6690TIP3   OH220014   7.009   0.845   5.803  0.6614 -0.2758 -0.1855
 6690TIP3    H120015   6.937   0.853   5.739 -1.4565  1.5035  2.3275
 6690TIP3    H220016   6.993   0.761   5.846  0.7338 -0.3849 -0.3688
 6691TIP3   OH220017   5.713   1.783   5.038  0.6664 -0.0649 -0.6975
 6691TIP3    H120018   5.716   1.842   4.962 -4.3987 -0.2267 -1.1850
 6691TIP3    H220019   5.718   1.841   5.114  1.1494  0.5039 -1.1621
 6692TIP3   OH220020   3.944   0.964   4.014 -0.2766 -0.8510  0.1109
 6692TIP3    H120021   3.982   0.994   4.097 -0.1126 -1.2549  0.1816
 6692TIP3    H220022   3.850   0.955   4.032 -0.0800 -2.0093  0.5662
 6693TIP3   OH220023   6.275   5.289   5.213 -0.0473 -0.3320  0.5703
 6693TIP3    H120024   6.182   5.286   5.189  0.0655  1.2098 -0.0733
 6693TIP3    H220025   6.321   5.253   5.137 -0.0518 -0.2281  0.5182
 6694TIP3   OH220026   2.743   0.202   0.072 -0.9626 -0.3797 -0.2045
 6694TIP3    H120027   2.833   0.171   0.064 -0.3211  1.2444  0.5497
 6694TIP3    H220028   2.739   0.244   0.158 -1.8248  1.5353 -1.1368
 6695TIP3   OH220029   3.250   2.826   3.156 -0.0306  0.4136 -0.2517
 6695TIP3    H120030   3.222   2.739   3.126 -1.8440  1.7178 -2.5065
 6695TIP3    H220031   3.206   2.838   3.240 -1.0370 -0.2266 -0.6809
 6696TIP3   OH220032   4.331   3.129   5.552 -0.4245  0.1363 -0.3427
 6696TIP3    H120033   4.404   3.155   5.608 -0.7219 -1.2466  0.7304
 6696TIP3    H220034   4.361   3.048   5.510 -2.0722 -1.6061  1.7040
 6697TIP3   OH220035   5.828   0.453   4.718  0.3341 -0.5492  0.0688
 6697TIP3    H120036   5.850   0.510   4.792  2.5206  0.4465 -1.2864
 6697TIP3    H220037   5.849   0.365   4.749  0.1257 -0.2703  1.0317
 6698TIP3   OH220038   3.901   3.428   4.050 -0.3322  0.2232 -0.3284
 6698TIP3    H120039   3.918   3.412   3.958  0.0205 -0.5913 -0.1247
 6698TIP3    H220040   3.937   3.516   4.067 -0.7517  0.5376 -1.0469
 6699TIP3   OH220041   4.735   2.015   2.285  0.2903  0.7703 -0.0851
 6699TIP3    H120042   4.688   2.094   2.258  0.9207  1.8809  1.9585
 6699TIP3    H220043   4.668   1.947   2.286 -0.9827  2.0132  1.3841
 6700TIP3   OH220044   3.404   1.777   4.577 -0.1869 -0.0964 -0.5141
 6700TIP3    H120045   3.325   1.729   4.602  0.4031 -1.2900 -0.9176
 6700TIP3    H220046   3.403   1.777   4.482 -0.2362  0.7887 -0.5157
 6701TIP3   OH220047   4.341   2.339   4.534 -0.2518 -0.7643 -0.4782
 6701TIP3    H120048   4.364   2.363   4.444 -0.7399  1.5622 -0.0026
 6701TIP3    H220049   4.383   2.405   4.588 -1.7446 -0.8864  0.8639
 6702TIP3   OH220050   6.116   2.558   5.162  0.2685 -0.1337  0.4629
 6702TIP3    H120051   6.120   2.560   5.258  1.1680  0.2854  0.4204
 6702TIP3    H220052   6.174   2.486   5.137  0.2400 -0.0752  0.2285
 6703TIP3   OH220053   4.468   3.677   6.490 -0.3310  0.0163 -0.3594
 6703TIP3    H120054   4.457   3.729   6.410 -1.3228 -0.0744 -0.2883
 6703TIP3    H220055   4.432   3.591   6.467  0.0568 -0.2277 -0.0461
 6704TIP3   OH220056   4.210   4.265   5.392  0.1793 -0.4682 -0.7913
 6704TIP3    H120057   4.251   4.205   5.329  1.9232  1.6327 -1.7189
 6704TIP3    H220058   4.178   4.338   5.338 -1.6088 -0.3853  0.3619
 6705TIP3   OH220059   5.326   2.098   5.314  0.4719 -0.2775  0.0948
 6705TIP3    H120060   5.414   2.097   5.354  1.9162 -2.3035 -2.9440
 6705TIP3    H220061   5.296   2.008   5.320 -1.0784  0.2364  0.2941
 6706TIP3   OH220062   6.836   2.200   3.063  1.1927  0.2508  0.0068
 6706TIP3    H120063   6.778   2.265   3.024  1.8478 -0.0994 -1.5777
 6706TIP3    H220064   6.810   2.197   3.155 -2.2810 -0.9468 -0.9426
 6707TIP3   OH220065   5.320   3.340   6.165 -0.3479  0.2069  0.3824
 6707TIP3    H120066   5.273   3.257   6.155  1.2645 -0.8173  1.0631
 6707TIP3    H220067   5.251   3.407   6.169 -1.6221 -0.9059 -1.7281
 6708TIP3   OH220068   5.906   2.003   4.187 -0.1714  0.3785 -0.2774
 6708TIP3    H120069   5.822   1.964   4.211 -0.1297  0.8579  0.7084
 6708TIP3    H220070   5.909   1.998   4.092 -1.2695  0.2594 -0.3129
 6709TIP3   OH220071   4.569   1.266   4.039  0.1546  0.0611 -0.6598
 6709TIP3    H120072   4.553   1.348   4.086 -0.6912 -0.6888  0.3877
 6709TIP3    H220073   4.627   1.216   4.096  0.5094 -0.1475 -1.2006
 6710TIP3   OH220074   4.667   2.937   3.890  0.5480 -0.2389  0.1533
 6710TIP3    H120075   4.695   2.961   3.979  0.3180  0.1130  0.1328
 6710TIP3    H220076   4.628   3.017   3.855  1.2601 -0.1766 -0.5158
 6711TIP3   OH220077   4.464   4.555   4.867 -0.6066 -0.1854 -0.2144
 6711TIP3    H120078   4.523   4.526   4.936  0.8328  0.8459 -0.9821
 6711TIP3    H220079   4.484   4.497   4.793  0.8010  1.3189 -1.0708
 6712TIP3   OH220080   0.007   7.889   3.124  0.2025  0.3816 -0.4367
 6712TIP3    H120081   0.000   7.978   3.089  0.3759  0.2085 -0.9050
 6712TIP3    H220082   0.050   7.901   3.209 -0.7999  0.8675  0.0233
 6713TIP3   OH220083   3.339   2.013   4.401  0.0265  0.3312 -0.4610
 6713TIP3    H120084   3.247   1.992   4.419  0.6782 -2.5744 -0.2700
 6713TIP3    H220085   3.352   2.098   4.442 -2.1997  0.1021  0.8356
 6714TIP3   OH220086   3.711   2.171   5.008  0.0855  0.5319  0.0171
 6714TIP3    H120087   3.696   2.253   5.055 -0.9443 -0.2282  1.0324
 6714TIP3    H220088   3.688   2.103   5.070 -2.3811 -0.4950 -1.9204
 6715TIP3   OH220089   6.586   0.957   5.671 -0.1977 -0.2560 -0.4277
 6715TIP3    H120090   6.544   1.037   5.702 -0.2408 -0.6262  0.4912
 6715TIP3    H220091   6.673   0.958   5.712  0.5861  0.3355 -2.0434
 6716TIP3   OH220092   3.823   0.561   6.103 -1.0150 -0.2747 -0.3698
 6716TIP3    H120093   3.863   0.509   6.172 -2.0445 -1.2603 -0.5004
 6716TIP3    H220094   3.819   0.650   6.139  2.0333  0.0298 -0.6852
 6717TIP3   OH220095   2.732   1.777   2.443 -0.2105  0.2689  0.1919
 6717TIP3    H120096   2.798   1.832   2.401 -0.4372  1.1436  0.9789
 6717TIP3    H220097   2.743   1.792   2.536  0.2096 -1.5865  0.4646
 6718TIP3   OH220098   3.276   1.253   4.852 -0.1578  0.3037  0.4577
 6718TIP3    H120099   3.287   1.176   4.795  0.2465  1.1843 -0.6691
 6718TIP3    H220100   3.364   1.269   4.886 -0.4590 -0.4127  1.5985
 6719TIP3   OH220101   4.681   1.085   6.900  0.2255 -0.1951 -0.6176
 6719TIP3    H120102   4.588   1.069   6.908  0.0168 -0.2807 -2.8496
 6719TIP3    H220103   4.723   1.008   6.939 -0.5268  1.4160  3.6495
 6720TIP3   OH220104   4.338   2.289   5.562 -0.2301 -0.5221  0.4981
 6720TIP3    H120105   4.350   2.226   5.632  0.1610  0.8346  1.6716
 6720TIP3    H220106   4.402   2.358   5.580 -2.1371  1.2921  0.4915
 6721TIP3   OH220107   4.360   2.143   3.807 -0.0107 -0.4019 -1.1005
 6721TIP3    H120108   4.450   2.114   3.789  0.1902 -0.7647  0.4172
 6721TIP3    H220109   4.369   2.208   3.876 -0.6735  1.7477 -2.9927
 6722TIP3   OH220110   2.872   2.695   4.811  0.5188 -0.1276 -0.2288
 6722TIP3    H120111   2.830   2.776   4.841 -1.7296 -1.1557 -0.5154
 6722TIP3    H220112   2.852   2.691   4.717 -1.2116 -2.0618  0.1905
 6723TIP3   OH220113   3.445   2.791   5.219  0.0332 -0.0437  0.1617
 6723TIP3    H120114   3.451   2.770   5.313  3.0587 -0.9256 -0.1683
 6723TIP3    H220115   3.486   2.877   5.211 -0.1272 -0.0146 -0.3493
 6724TIP3   OH220116   4.034   2.765   6.357  0.2402 -0.9817  0.6681
 6724TIP3    H120117   4.094   2.820   6.407  0.1246  1.7553 -2.0794
 6724TIP3    H220118   4.090   2.703   6.312  1.0414  1.2887 -1.5473
 6725TIP3   OH220119   6.184   3.550   5.959 -0.1825 -0.2731 -0.3169
 6725TIP3    H120120   6.249   3.567   6.027 -1.5260 -0.0766  0.9285
 6725TIP3    H220121   6.120   3.620   5.969 -1.0668 -0.9860 -0.9638
 6726TIP3   OH220122   2.624   0.141   2.345  0.2186 -0.4853 -0.1389
 6726TIP3    H120123   2.588   0.211   2.291  0.7629  0.8605  1.1992
 6726TIP3    H220124   2.693   0.184   2.396  2.1764 -2.5039 -0.9880
 6727TIP3   OH220125   5.470   2.277   4.823 -0.5683 -0.2194  0.1389
 6727TIP3    H120126   5.432   2.242   4.904  1.1569  0.5053  1.2731
 6727TIP3    H220127   5.433   2.221   4.754 -0.8489 -1.8241  1.5550
 6728TIP3   OH220128   4.353   1.768   3.266  0.3050 -0.4323 -0.3828
 6728TIP3    H120129   4.275   1.747   3.319  0.4079 -2.7996 -1.1142
 6728TIP3    H220130   4.320   1.827   3.199 -0.3105  0.7043  0.8788
 6729TIP3   OH220131   3.816   3.394   3.232 -0.3181  0.2492 -0.2045
 6729TIP3    H120132   3.802   3.355   3.318 -1.5637  0.4713 -0.2971
 6729TIP3    H220133   3.729   3.424   3.204  0.1847  0.7981 -1.2380
 6730TIP3   OH220134   5.510   1.558   2.708 -0.1188  0.2456  0.0252
 6730TIP3    H120135   5.507   1.582   2.800 -2.1669  1.6699 -0.3753
 6730TIP3    H220136   5.429   1.509   2.693 -0.6758  1.5369 -1.3835
 6731TIP3   OH220137   5.085   1.295   5.990 -0.0509 -0.2194  0.1183
 6731TIP3    H120138   5.100   1.389   5.980  0.0230 -0.1997  0.4262
 6731TIP3    H220139   5.054   1.284   6.080  1.5186 -0.6777  0.6326
 6732TIP3   OH220140   1.252   4.190   0.462 -0.1604 -0.5489  0.3088
 6732TIP3    H120141   1.326   4.130   0.455 -0.3408 -0.9530  1.6965
 6732TIP3    H220142   1.238   4.200   0.556 -0.5145  1.2066  0.0863
 6733TIP3   OH220143   5.299   2.126   4.616 -0.3228 -0.8574  0.0417
 6733TIP3    H120144   5.226   2.185   4.599  0.8637  0.6272 -0.0068
 6733TIP3    H220145   5.317   2.085   4.531  0.6955  0.8766 -0.6008
 6734TIP3   OH220146   4.965   1.852   2.494  0.4251  0.2996  0.0662
 6734TIP3    H120147   5.000   1.843   2.583  0.6318  2.1452  0.1920
 6734TIP3    H220148   4.977   1.945   2.473 -0.8567  0.1521 -1.3802
 6735TIP3   OH220149   7.248   1.734   6.725 -0.4194 -0.0930 -0.5445
 6735TIP3    H120150   7.236   1.651   6.771 -0.9449 -0.0959 -0.6914
 6735TIP3    H220151   7.329   1.770   6.762 -2.0785  1.0665  2.1419
 6736TIP3   OH220152   5.134   1.104   4.498  0.1730 -0.0955 -0.4881
 6736TIP3    H120153   5.164   1.016   4.517 -0.1852 -0.2147 -0.4761
 6736TIP3    H220154   5.201   1.161   4.536 -0.2208 -0.3447  0.5756
 6737TIP3   OH220155   6.604   4.075   5.207  0.6038 -0.5413  0.3247
 6737TIP3    H120156   6.619   4.014   5.280  1.1300 -1.1867 -0.3103
 6737TIP3    H220157   6.605   4.019   5.129 -0.1116  0.1187 -0.1682
 6738TIP3   OH220158   6.486   0.452   2.365 -0.4198  0.2704  0.1057
 6738TIP3    H120159   6.562   0.395   2.375  0.0318  1.3559  3.1159
 6738TIP3    H220160   6.414   0.406   2.408 -0.7771  0.6227 -0.0983
 6739TIP3   OH220161   5.070   0.740   1.401 -0.5352 -0.0258  0.8765
 6739TIP3    H120162   5.045   0.665   1.455  1.3151 -1.0565  0.3341
 6739TIP3    H220163   5.107   0.802   1.463  0.8565 -0.8824  0.9150
 6740TIP3   OH220164   1.704   7.966   5.390 -0.1376 -0.4665  0.0176
 6740TIP3    H120165   1.710   7.871   5.402 -0.2924 -0.4377  0.3064
 6740TIP3    H220166   1.785   7.989   5.344 -0.5354 -0.8802 -0.9155
 6741TIP3   OH220167   4.458   2.939   5.356 -0.5090  0.3953  0.0777
 6741TIP3    H120168   4.519   3.004   5.321  1.0506 -0.2745  1.4339
 6741TIP3    H220169   4.515   2.872   5.394 -2.1005 -1.0964 -0.1122
 6742TIP3   OH220170   4.941   3.567   6.255 -0.3194  0.2291  0.3905
 6742TIP3    H120171   4.906   3.639   6.306 -1.2999 -0.5240  0.8116
 6742TIP3    H220172   4.891   3.569   6.173  1.7966  1.9229 -0.8991
 6743TIP3   OH220173   6.283   0.060   5.095 -0.0524 -0.1260  0.2541
 6743TIP3    H120174   6.226  -0.015   5.082  1.4133 -1.3427  0.7143
 6743TIP3    H220175   6.255   0.098   5.178 -0.2662 -0.6457  0.4216
 6744TIP3   OH220176   2.412   1.399   1.543 -0.1874  0.2419 -0.4746
 6744TIP3    H120177   2.463   1.451   1.481  1.2684 -0.9464 -0.3037
 6744TIP3    H220178   2.465   1.321   1.559 -1.2827 -0.2327  1.0200
 6745TIP3   OH220179   6.198   0.673   6.126  0.0232  0.3016 -0.6280
 6745TIP3    H120180   6.259   0.623   6.181 -0.0678 -0.2130 -0.9846
 6745TIP3    H220181   6.116   0.672   6.176 -0.9638 -2.8560 -2.1340
 6746TIP3   OH220182   4.738   3.995   4.660  0.4074 -0.1645 -0.4146
 6746TIP3    H120183   4.783   3.944   4.592  0.3398  1.1775 -1.5021
 6746TIP3    H220184   4.707   3.930   4.722 -0.6148 -1.5685 -2.3282
 6747TIP3   OH220185   4.227   1.271   5.067 -0.0609  0.1660  0.4207
 6747TIP3    H120186   4.216   1.183   5.103  0.2369 -0.4709 -1.0030
 6747TIP3    H220187   4.220   1.259   4.972  1.6956  1.4091  0.1015
 6748TIP3   OH220188   5.627   2.471   5.044  0.1407  0.4680  0.3250
 6748TIP3    H120189   5.598   2.411   4.975  0.7501  0.6417 -0.0854
 6748TIP3    H220190   5.555   2.471   5.107 -0.8300  1.0109 -0.7602
 6749TIP3   OH220191   3.659   1.053   3.483 -0.0526 -0.3653 -0.3010
 6749TIP3    H120192   3.600   1.009   3.545 -0.5464  0.9436  0.1825
 6749TIP3    H220193   3.620   1.140   3.471  0.9450 -0.0347 -1.1790
 6750TIP3   OH220194   3.095   2.534   3.428  0.7399 -0.2166  0.3483
 6750TIP3    H120195   3.127   2.620   3.401 -0.3008  1.5557  4.3364
 6750TIP3    H220196   3.146   2.513   3.506 -0.1702 -2.4440  0.3747
 6751TIP3   OH220197   3.803   0.850   6.844  0.3527 -0.0198  0.1739
 6751TIP3    H120198   3.712   0.871   6.865  0.3936  0.8570 -0.5270
 6751TIP3    H220199   3.798   0.797   6.764  0.5657  1.5885 -0.9215
 6752TIP3   OH220200   4.880   3.136   6.198  0.1506  0.4143  0.2015
 6752TIP3    H120201   4.805   3.175   6.243 -0.2477  0.8876 -0.8634
 6752TIP3    H220202   4.956   3.167   6.247 -0.4197 -1.9877  2.7757
 6753TIP3   OH220203   4.273   3.359   6.792  0.1536  0.2695  0.2401
 6753TIP3    H120204   4.306   3.380   6.879  1.0341 -0.8894  0.1857
 6753TIP3    H220205   4.189   3.405   6.787 -0.0976 -0.0071  1.8484
 6754TIP3   OH220206   4.175   3.038   3.131  0.2213 -0.1727  0.5176
 6754TIP3    H120207   4.142   3.124   3.105  0.5323  0.2371  1.4750
 6754TIP3    H220208   4.105   2.977   3.106 -0.8934  0.5922  1.7157
 6755TIP3   OH220209   4.720   4.533   5.384  0.3849  0.0512 -0.2174
 6755TIP3    H120210   4.773   4.602   5.424  0.1252 -0.5735  1.2260
 6755TIP3    H220211   4.780   4.489   5.323  0.6586  1.2936 -0.8623
 6756TIP3   OH220212   5.029   2.663   6.272  0.7353  0.4685  0.5223
 6756TIP3    H120213   5.032   2.743   6.221  0.1258 -0.3137 -0.7779
 6756TIP3    H220214   4.948   2.620   6.244  1.7504 -1.2672  0.1708
 6757TIP3   OH220215   3.929   3.341   4.864  0.1360 -0.3676  0.4405
 6757TIP3    H120216   3.929   3.283   4.788  1.7965 -0.6117  0.6175
 6757TIP3    H220217   3.907   3.283   4.937 -1.9994 -0.0330  0.1064
 6758TIP3   OH220218   5.721   3.611   6.007 -0.0052  0.6965  0.9044
 6758TIP3    H120219   5.636   3.577   6.036  0.8776 -1.6775  0.8827
 6758TIP3    H220220   5.706   3.641   5.918 -1.0347  1.1357  1.2200
 6759TIP3   OH220221   6.239   5.230   6.206  0.1289  0.3583 -0.1514
 6759TIP3    H120222   6.172   5.298   6.210  0.4784  0.6810  0.3769
 6759TIP3    H220223   6.191   5.148   6.214 -0.4222  0.4678 -1.9280
 6760TIP3   OH220224   5.103   4.536   4.532 -0.1140  0.5711 -0.3850
 6760TIP3    H120225   5.197   4.551   4.529 -0.5099  3.7436  0.7326
 6760TIP3    H220226   5.069   4.585   4.457 -1.0645  1.3389  0.5359
 6761TIP3   OH220227   5.768   5.977   3.656 -0.1404  0.1010 -0.0770
 6761TIP3    H120228   5.856   5.938   3.659 -0.6082 -1.0292 -0.7424
 6761TIP3    H220229   5.730   5.945   3.575 -1.3734  0.1570  0.4637
 6762TIP3   OH220230   3.434   3.103   4.832  0.2190  0.2474  0.1642
 6762TIP3    H120231   3.393   3.021   4.856  0.6735  0.2542  0.9866
 6762TIP3    H220232   3.497   3.080   4.763 -0.6518  0.1349 -0.6048
 6763TIP3   OH220233   3.387   2.699   5.487 -0.1084 -0.8225 -0.7297
 6763TIP3    H120234   3.468   2.651   5.503  0.6249  0.7974  0.5738
 6763TIP3    H220235   3.368   2.743   5.570 -1.6998 -0.2539 -1.3687
 6764TIP3   OH220236   4.117   4.972   4.206 -0.1988 -0.4602 -0.2464
 6764TIP3    H120237   4.077   4.937   4.127 -1.5207  0.6895 -0.1027
 6764TIP3    H220238   4.199   5.012   4.176 -1.1636  0.8540 -1.2180
 6765TIP3   OH220239   3.334   1.980   5.081 -0.3014 -0.3311  0.1790
 6765TIP3    H120240   3.352   1.927   5.158 -0.4514 -1.9863 -0.8946
 6765TIP3    H220241   3.354   1.923   5.007  1.0072  1.6285 -1.0251
 6766TIP3   OH220242   7.097   3.585   5.565 -0.3391  0.0909  0.3438
 6766TIP3    H120243   7.064   3.675   5.555 -0.6675 -0.0205  0.4515
 6766TIP3    H220244   7.135   3.565   5.480 -1.7918 -0.2947 -0.2259
 6767TIP3   OH220245   6.799   0.377   5.169  0.0340 -0.3521  0.1211
 6767TIP3    H120246   6.717   0.365   5.217 -0.2835  3.1248  0.5735
 6767TIP3    H220247   6.774   0.376   5.077 -0.5541  0.8583  0.2610
 6768TIP3   OH220248   3.767   2.406   3.593 -0.3171 -0.4411 -0.4442
 6768TIP3    H120249   3.750   2.497   3.615  0.5592 -0.9836  2.7671
 6768TIP3    H220250   3.691   2.378   3.543 -1.3483  1.5907 -0.0475
 6769TIP3   OH220251   4.175   1.840   5.582  0.2870 -0.2597  0.1665
 6769TIP3    H120252   4.160   1.815   5.673 -0.7623  0.3739  0.1775
 6769TIP3    H220253   4.232   1.772   5.547 -0.1474 -1.0670  1.0214
 6770TIP3   OH220254   4.826   0.947   3.522  0.1389 -0.2942 -0.8790
 6770TIP3    H120255   4.731   0.941   3.515  0.0708 -0.1646 -0.1183
 6770TIP3    H220256   4.846   1.039   3.502  0.0166 -0.1121 -0.1981
 6771TIP3   OH220257   4.438   0.763   6.615 -0.0009  0.4401  0.1312
 6771TIP3    H120258   4.477   0.760   6.702 -0.0291  0.9887  0.1659
 6771TIP3    H220259   4.344   0.753   6.631  0.0910 -0.5076  0.0770
 6772TIP3   OH220260   6.309   1.442   2.942  0.7241  0.0537  0.5369
 6772TIP3    H120261   6.352   1.415   2.861  1.5550  0.2236  0.9153
 6772TIP3    H220262   6.356   1.396   3.011 -0.7558 -1.0260  0.8459
 6773TIP3   OH220263   2.107   2.722   4.791  0.2800 -0.0332 -0.4461
 6773TIP3    H120264   2.176   2.770   4.837  1.6027 -0.5153 -1.8539
 6773TIP3    H220265   2.096   2.641   4.841  1.4614 -0.3995 -0.7498
 6774TIP3   OH220266   4.612   2.034   3.739 -0.3511 -0.1298  0.1618
 6774TIP3    H120267   4.560   1.988   3.673  1.3432 -1.9644  0.0481
 6774TIP3    H220268   4.630   1.967   3.806  0.2702  0.9836  1.1277
 6775TIP3   OH220269   3.439   2.603   4.879 -0.0689 -0.6548 -0.4694
 6775TIP3    H120270   3.392   2.673   4.924 -0.6460 -1.9734  1.0189
 6775TIP3    H220271   3.382   2.576   4.808  0.0865  0.2637 -0.9495
 6776TIP3   OH220272   5.777   3.894   4.029 -0.0025 -0.5169 -0.0044
 6776TIP3    H120273   5.753   3.914   3.939 -0.3423 -1.9343 -0.2353
 6776TIP3    H220274   5.857   3.842   4.022 -0.4019 -1.1993  0.4803
 6777TIP3   OH220275   5.745   5.312   1.282 -0.2495  0.8035 -0.0925
 6777TIP3    H120276   5.839   5.298   1.266 -0.5678  0.1438 -1.4771
 6777TIP3    H220277   5.707   5.225   1.279 -0.9187  1.0746  0.4722
 6778TIP3   OH220278   0.463   5.145   0.590  0.1360  0.0453  0.0922
 6778TIP3    H120279   0.392   5.080   0.580  0.9690 -1.0109  0.9571
 6778TIP3    H220280   0.468   5.187   0.504 -0.8084 -0.6392 -0.3156
 6779TIP3   OH220281   3.397   1.796   2.804 -0.6986 -0.0901 -0.7514
 6779TIP3    H120282   3.394   1.723   2.742  0.8880 -1.2745  0.5323
 6779TIP3    H220283   3.483   1.788   2.846 -1.5224  1.0496  1.1773
 6780TIP3   OH220284   3.338   1.015   3.257 -0.0646  0.1612  0.1208
 6780TIP3    H120285   3.379   1.052   3.335 -0.0634  1.2935 -0.4111
 6780TIP3    H220286   3.322   1.090   3.200 -1.4171 -0.4662 -0.3487
 6781TIP3   OH220287   5.445   2.056   6.932 -0.4643 -0.5850  0.4551
 6781TIP3    H120288   5.474   2.042   6.842  1.8659  1.5759  0.8242
 6781TIP3    H220289   5.450   1.969   6.973  1.2972 -1.0438 -0.6959
 6782TIP3   OH220290   7.805   2.663   4.764 -0.4369  0.4354  0.3914
 6782TIP3    H120291   7.799   2.758   4.765 -0.0965  0.4500  0.9589
 6782TIP3    H220292   7.887   2.645   4.717 -0.0335  0.4453  1.0839
 6783TIP3   OH220293   5.637   2.723   4.030  0.5496 -0.3138  0.1906
 6783TIP3    H120294   5.698   2.707   4.102 -0.1321 -0.3676  0.7659
 6783TIP3    H220295   5.574   2.786   4.065  0.1140 -0.4683 -0.3032
 6784TIP3   OH220296   6.406   4.235   4.961 -0.2408 -0.3856  0.5992
 6784TIP3    H120297   6.367   4.292   4.894  0.6257  0.3443  0.7184
 6784TIP3    H220298   6.407   4.148   4.920  1.6820  0.3306 -0.9221
 6785TIP3   OH220299   5.195   1.790   4.114 -0.0440 -0.1874 -0.2291
 6785TIP3    H120300   5.145   1.793   4.196 -0.8428 -2.6935 -0.5763
 6785TIP3    H220301   5.250   1.869   4.116 -0.1411 -0.1529  2.6445
 6786TIP3   OH220302   5.631   3.100   4.458 -0.0268 -0.7244  0.4360
 6786TIP3    H120303   5.647   3.160   4.386  0.4815 -1.3155  0.0569
 6786TIP3    H220304   5.611   3.157   4.533  2.1768 -0.0239  0.5147
 6787TIP3   OH220305   5.027   0.702   3.408  0.8370 -0.0556  0.0662
 6787TIP3    H120306   5.108   0.652   3.417  0.2990 -0.9362  0.0223
 6787TIP3    H220307   5.052   0.778   3.356  1.8617  0.1904  0.9004
 6788TIP3   OH220308   6.021   2.250   4.197 -0.1004  0.4472 -0.1199
 6788TIP3    H120309   5.987   2.274   4.111 -1.7590  1.2235  0.7281
 6788TIP3    H220310   5.970   2.172   4.222  0.7585 -0.1061 -0.0702
 6789TIP3   OH220311   5.979   3.567   1.719  0.4839 -0.1682 -0.3588
 6789TIP3    H120312   5.893   3.606   1.707  0.5490 -0.0601 -0.4780
 6789TIP3    H220313   6.021   3.621   1.786  1.2568  1.0942 -1.8226
 6790TIP3   OH220314   6.459   3.148   4.184 -0.3478 -0.0088  0.7566
 6790TIP3    H120315   6.373   3.153   4.225  0.5230  2.1742  2.4170
 6790TIP3    H220316   6.517   3.195   4.243  1.7620 -0.3648 -0.9470
 6791TIP3   OH220317   8.467   3.615   4.381  0.6041 -0.3426  0.3137
 6791TIP3    H120318   8.555   3.646   4.359  0.9162 -1.8226 -0.6436
 6791TIP3    H220319   8.423   3.607   4.296  0.1386 -1.2947  0.6355
 6792TIP3   OH220320   8.281   3.733   3.286 -0.1045  0.6385 -0.0076
 6792TIP3    H120321   8.331   3.814   3.293 -0.7004  0.9478  0.7855
 6792TIP3    H220322   8.254   3.728   3.194 -0.0915  1.3542 -0.0512
 6793TIP3   OH220323   6.020   3.038   2.434 -0.8306  0.4116  0.1332
 6793TIP3    H120324   6.071   3.036   2.353 -0.7691 -1.4859  0.1934
 6793TIP3    H220325   6.087   3.043   2.503 -0.8790  1.8985  0.0873
 6794TIP3   OH220326   0.180   1.450   3.176  0.0915 -0.5149 -0.1508
 6794TIP3    H120327   0.251   1.427   3.236 -1.5940 -1.2599  1.6018
 6794TIP3    H220328   0.206   1.411   3.093  1.2783 -1.6348  0.7226
 6795TIP3   OH220329   5.356   1.248   4.606 -0.1505  0.2142 -0.1021
 6795TIP3    H120330   5.312   1.332   4.591  1.0063  0.9640  0.6746
 6795TIP3    H220331   5.359   1.239   4.701  2.9062  1.0038 -0.0930
 6796TIP3   OH220332   6.685   3.143   4.606  0.3344  0.5536 -0.1191
 6796TIP3    H120333   6.731   3.207   4.660 -0.4635  0.0562  1.1994
 6796TIP3    H220334   6.618   3.194   4.560 -0.3358  0.6790  0.9703
 6797TIP3   OH220335   3.525   2.277   5.691 -0.0481  0.1622  0.3933
 6797TIP3    H120336   3.493   2.320   5.612 -0.1968  1.4863  1.1645
 6797TIP3    H220337   3.492   2.187   5.684 -2.9297  1.1578  0.5727
 6798TIP3   OH220338   5.594   3.922   5.761  0.1777  0.0934  0.4897
 6798TIP3    H120339   5.537   3.934   5.837  2.4412  1.3454  2.0289
 6798TIP3    H220340   5.644   3.843   5.780 -0.4827 -0.6097 -0.5580
 6799TIP3   OH220341   4.595   2.751   6.178 -0.2126  0.1372  0.3305
 6799TIP3    H120342   4.589   2.835   6.225 -1.4254  0.4696 -0.4051
 6799TIP3    H220343   4.504   2.722   6.170 -0.1383  0.5779 -2.6957
 6800TIP3   OH220344   7.759   1.443   6.248 -0.0842  0.5788  0.2351
 6800TIP3    H120345   7.719   1.530   6.252 -1.0764  0.1181  0.4921
 6800TIP3    H220346   7.746   1.415   6.158 -2.0797 -0.3709  0.8006
 6801TIP3   OH220347   8.210   3.531   2.597  0.1606 -0.3171 -0.6646
 6801TIP3    H120348   8.228   3.437   2.593  0.8906 -0.1942 -0.4269
 6801TIP3    H220349   8.231   3.563   2.509  0.9126 -0.2111 -0.4517
 6802TIP3   OH220350   4.739   4.133   4.181 -0.3665 -0.0411 -0.0836
 6802TIP3    H120351   4.723   4.225   4.161 -2.2133 -0.2277  0.4096
 6802TIP3    H220352   4.673   4.085   4.130 -0.3968 -0.9773  0.8157
 6803TIP3   OH220353   5.177   2.147   6.079 -0.3045 -0.2177 -0.0484
 6803TIP3    H120354   5.150   2.238   6.071  1.3770  0.3862  0.8193
 6803TIP3    H220355   5.117   2.099   6.023 -0.5221  1.5644 -1.3826
 6804TIP3   OH220356   5.094   1.456   5.276  0.1187  0.4044 -0.0272
 6804TIP3    H120357   5.013   1.405   5.272 -0.0324  0.7214 -1.3016
 6804TIP3    H220358   5.148   1.410   5.341 -0.4258 -0.7568 -0.3781
 6805TIP3   OH220359   7.608   3.689   2.443 -0.3007  0.5962 -0.1765
 6805TIP3    H120360   7.624   3.641   2.524  1.8023  0.8704 -0.3972
 6805TIP3    H220361   7.692   3.686   2.396 -1.0687  1.6943 -1.6750
 6806TIP3   OH220362   6.401   2.463   5.528 -0.0816 -0.3098 -0.1713
 6806TIP3    H120363   6.434   2.467   5.618 -2.4780 -0.4427  0.7689
 6806TIP3    H220364   6.458   2.523   5.479  1.1820 -0.1303  1.4550
 6807TIP3   OH220365   7.852   1.700   4.884 -0.5830 -0.3732  0.1924
 6807TIP3    H120366   7.915   1.641   4.926 -1.2538 -1.0125  0.3205
 6807TIP3    H220367   7.835   1.659   4.799 -0.7621 -0.1642  0.1276
 6808TIP3   OH220368   5.925   1.832   1.577  0.0414 -0.5939  0.3835
 6808TIP3    H120369   5.932   1.840   1.672 -0.0414 -1.5839  0.4833
 6808TIP3    H220370   5.869   1.905   1.550  1.3187  0.6011  0.9080
 6809TIP3   OH220371   7.287   1.338   2.810  0.1803  0.3617  0.0189
 6809TIP3    H120372   7.335   1.267   2.767 -0.6184 -0.2123  0.0582
 6809TIP3    H220373   7.346   1.370   2.878 -0.2284 -1.6200  1.3408
 6810TIP3   OH220374   4.450   3.741   4.653  0.1835 -0.3151 -0.0174
 6810TIP3    H120375   4.358   3.716   4.660  0.6066 -1.4727  1.7147
 6810TIP3    H220376   4.489   3.674   4.596 -0.3492  1.1126 -2.1378
 6811TIP3   OH220377   5.665   2.423   2.493 -0.2633  0.3137 -0.4410
 6811TIP3    H120378   5.640   2.339   2.454  0.0131  0.6773 -1.4361
 6811TIP3    H220379   5.612   2.488   2.447  0.4322  0.8016 -0.5791
 6812TIP3   OH220380   3.946   3.805   3.432  0.4023 -0.1974  0.1116
 6812TIP3    H120381   3.980   3.741   3.370 -2.2855 -1.5528 -0.0321
 6812TIP3    H220382   3.861   3.770   3.459 -0.3278  2.4279  1.4148
 6813TIP3   OH220383   0.254   3.999   3.292  0.0555  0.1909 -0.4318
 6813TIP3    H120384   0.341   4.030   3.268 -0.1312 -0.1712 -1.6060
 6813TIP3    H220385   0.268   3.913   3.332  0.1269 -0.5556 -2.0071
 6814TIP3   OH220386   3.584   8.031   2.354  0.0374 -0.0061  0.5051
 6814TIP3    H120387   3.625   8.009   2.271  1.6235  2.2985  0.6510
 6814TIP3    H220388   3.533   7.953   2.376  1.5687 -1.6069 -1.3870
 6815TIP3   OH220389   5.664   3.839   4.884  0.3245 -0.2506  0.6122
 6815TIP3    H120390   5.717   3.919   4.891  1.5958 -1.0806  0.6183
 6815TIP3    H220391   5.587   3.856   4.939 -0.7032  1.9630 -1.4105
 6816TIP3   OH220392   4.720   3.736   4.265  0.3683  0.6424  0.5224
 6816TIP3    H120393   4.670   3.655   4.253 -2.2593  2.2364  0.4612
 6816TIP3    H220394   4.789   3.732   4.199  0.2023 -1.4710  0.4425
 6817TIP3   OH220395   4.452   3.205   6.193 -0.2168  0.2193 -0.2136
 6817TIP3    H120396   4.498   3.286   6.215  0.5907 -0.3706  0.3192
 6817TIP3    H220397   4.363   3.233   6.172 -0.1303  1.1741  0.6346
 6818TIP3   OH220398   5.174   0.582   4.336  0.2355 -0.0694 -0.0444
 6818TIP3    H120399   5.108   0.596   4.268  0.6786  1.0356 -0.2588
 6818TIP3    H220400   5.189   0.487   4.336 -2.0941 -0.4898  0.7181
 6819TIP3   OH220401   5.998   3.793   5.037  0.2804  0.3296  0.2015
 6819TIP3    H120402   5.939   3.820   4.966 -2.7330 -2.4390  1.4891
 6819TIP3    H220403   5.990   3.862   5.103 -1.6033 -0.0127  0.3666
 6820TIP3   OH220404   4.256   3.301   3.854  0.5979  0.0901 -0.0174
 6820TIP3    H120405   4.210   3.383   3.836 -0.9474 -0.5082  1.1589
 6820TIP3    H220406   4.224   3.273   3.940 -0.2271 -2.6680 -1.1850
 6821TIP3   OH220407   5.318   2.992   5.404  0.1110 -0.0448  0.4274
 6821TIP3    H120408   5.345   2.901   5.416  0.1933  0.0800  1.2218
 6821TIP3    H220409   5.397   3.035   5.371 -0.2047 -0.4556 -0.8815
 6822TIP3   OH220410   0.263   7.544   1.118  0.4542  0.4623 -0.3771
 6822TIP3    H120411   0.335   7.487   1.144  0.7709  0.9791 -0.1101
 6822TIP3    H220412   0.194   7.485   1.089  1.4555  0.0020 -1.8669
 6823TIP3   OH220413   6.077   2.405   4.898  0.7688 -0.2513  0.2573
 6823TIP3    H120414   6.142   2.410   4.969  0.7293  0.6018  0.2466
 6823TIP3    H220415   6.067   2.312   4.881 -0.9860 -0.6017  2.9888
 6824TIP3   OH220416   7.585   2.062   4.928  0.1195 -0.1168 -0.4966
 6824TIP3    H120417   7.585   1.998   4.999  0.0164  0.8057  0.3372
 6824TIP3    H220418   7.678   2.081   4.914  0.0749  0.7883  0.3842
 6825TIP3   OH220419   6.998   0.750   2.903  0.0206 -0.1111 -0.0434
 6825TIP3    H120420   7.080   0.717   2.868 -0.3860  0.1077 -1.2425
 6825TIP3    H220421   6.967   0.682   2.962 -0.4905 -1.5924 -1.9935
 6826TIP3   OH220422   7.143   2.235   3.651 -0.1596  0.8634 -0.0871
 6826TIP3    H120423   7.224   2.240   3.601 -0.1011 -1.6668 -0.3095
 6826TIP3    H220424   7.149   2.307   3.714  2.6347  0.1988  0.4403
 6827TIP3   OH220425   5.244   3.023   3.402  0.0538 -0.7931 -0.4404
 6827TIP3    H120426   5.161   3.004   3.358 -0.6729  0.0062  0.5485
 6827TIP3    H220427   5.265   2.943   3.450 -0.3019 -0.8987 -0.4626
 6828TIP3   OH220428   5.629   0.839   5.725  0.4375  0.2262  0.2086
 6828TIP3    H120429   5.591   0.876   5.645  2.5984  3.7062  0.7033
 6828TIP3    H220430   5.555   0.834   5.786 -1.0085 -1.4913 -1.5953
 6829TIP3   OH220431   6.018   1.804   4.568 -0.8525 -0.2775 -0.9687
 6829TIP3    H120432   6.030   1.896   4.545 -2.5328  0.2832  0.3458
 6829TIP3    H220433   6.099   1.762   4.538  0.4974  1.8322 -0.4235
 6830TIP3   OH220434   7.320   2.185   4.950  0.2310  0.8157 -0.2959
 6830TIP3    H120435   7.369   2.106   4.927 -0.6033  0.7172 -1.7955
 6830TIP3    H220436   7.380   2.257   4.929  0.7480  0.6102  0.4550
 6831TIP3   OH220437   6.119   3.719   4.361  0.3628  0.3037 -0.3057
 6831TIP3    H120438   6.047   3.753   4.415 -0.7450 -0.2306 -1.4326
 6831TIP3    H220439   6.164   3.798   4.330  0.8207  0.6243  1.1219
 6832TIP3   OH220440   0.021   3.724   0.763 -0.1165 -0.4403 -0.1522
 6832TIP3    H120441   0.088   3.656   0.767 -0.1318 -0.4094  0.8092
 6832TIP3    H220442  -0.001   3.731   0.670  1.3238 -0.3334 -0.4857
 6833TIP3   OH220443   5.844   3.237   2.381 -0.8415  0.4634 -0.5827
 6833TIP3    H120444   5.895   3.177   2.435 -1.5879  0.4648  0.1324
 6833TIP3    H220445   5.846   3.320   2.428  0.2397  1.0349 -1.6000
 6834TIP3   OH220446   5.432   5.884   1.815  0.3763 -0.0679 -0.4307
 6834TIP3    H120447   5.490   5.959   1.825 -2.7183  2.4408 -0.6957
 6834TIP3    H220448   5.425   5.870   1.721  1.9395 -1.5541 -0.3582
 6835TIP3   OH220449   6.821   4.453   1.615 -0.4218 -0.2656  0.2855
 6835TIP3    H120450   6.848   4.408   1.696 -1.9062 -0.9118  0.4345
 6835TIP3    H220451   6.887   4.429   1.551  0.8857  0.4041  1.3440
 6836TIP3   OH220452   5.810   3.904   2.606  0.0070  0.2234  0.3277
 6836TIP3    H120453   5.840   3.840   2.671 -0.6094 -1.4073 -0.9308
 6836TIP3    H220454   5.888   3.922   2.553 -0.4359 -1.6904 -1.0573
 6837TIP3   OH220455   0.209   3.170   3.594  0.4905  0.5062  0.1010
 6837TIP3    H120456   0.279   3.179   3.658  1.5989 -1.1160 -0.8383
 6837TIP3    H220457   0.195   3.075   3.586 -0.7486  0.7494 -0.8584
 6838TIP3   OH220458   4.885   2.198   4.131  0.3684 -0.3587 -0.2219
 6838TIP3    H120459   4.797   2.224   4.160 -0.0640  1.5949 -3.1033
 6838TIP3    H220460   4.873   2.174   4.039  2.4902 -2.1903 -0.0536
 6839TIP3   OH220461   7.131   2.633   4.484 -0.7021  0.0578  0.7434
 6839TIP3    H120462   7.216   2.678   4.482 -0.6159 -0.1739 -0.8642
 6839TIP3    H220463   7.142   2.566   4.552  0.5242 -0.2090  0.3005
 6840TIP3   OH220464   7.306   1.781   4.028  0.0707  0.2591 -0.2142
 6840TIP3    H120465   7.285   1.738   3.945 -1.7387  0.2549  0.2216
 6840TIP3    H220466   7.330   1.870   4.004 -0.2471  0.1949 -0.7703
 6841TIP3   OH220467   4.833   2.153   3.602 -0.1582  0.0940  0.3848
 6841TIP3    H120468   4.842   2.149   3.507 -0.7529  1.7736  0.2331
 6841TIP3    H220469   4.749   2.113   3.620 -0.1187 -0.0813  0.1851
 6842TIP3   OH220470   6.107   1.555   2.148  0.1823 -0.1613  0.3692
 6842TIP3    H120471   6.175   1.592   2.205 -1.6609  2.4537  0.9821
 6842TIP3    H220472   6.086   1.470   2.187  0.7375  0.4809  2.1153
 6843TIP3   OH220473   7.117   3.625   4.905 -0.2800 -0.1670  0.4290
 6843TIP3    H120474   7.155   3.585   4.827  1.0607 -1.7192  1.8420
 6843TIP3    H220475   7.100   3.551   4.964  0.2326  1.1298  2.2372
 6844TIP3   OH220476   7.703   2.370   5.053  0.0032 -0.1378  0.2591
 6844TIP3    H120477   7.656   2.447   5.085  0.4959  1.0718 -1.8228
 6844TIP3    H220478   7.654   2.344   4.975  0.1103 -1.6715  0.7029
 6845TIP3   OH220479   6.053   3.181   1.271  0.5846  0.2282 -0.6713
 6845TIP3    H120480   6.143   3.149   1.264 -0.9068 -3.8790 -2.7259
 6845TIP3    H220481   6.008   3.143   1.196 -3.3919  0.3641  1.5152
 6846TIP3   OH220482   4.864   1.227   3.532 -0.2766 -0.0993  0.5364
 6846TIP3    H120483   4.852   1.287   3.605 -1.7919  1.3075 -0.8319
 6846TIP3    H220484   4.819   1.269   3.459  2.6784 -0.6639 -1.6696
 6847TIP3   OH220485   6.297   1.066   3.328  0.0070 -0.0156 -0.8554
 6847TIP3    H120486   6.312   1.005   3.256  0.3289  1.9512 -2.4914
 6847TIP3    H220487   6.382   1.072   3.372  0.3595  0.3826 -1.5898
 6848TIP3   OH220488   5.881   0.783   2.535 -0.0199  0.2152  0.1150
 6848TIP3    H120489   5.885   0.807   2.442 -2.3209  0.5894  0.1009
 6848TIP3    H220490   5.924   0.855   2.580 -0.9147  1.1190 -0.4721
 6849TIP3   OH220491   7.647   1.177   2.834  0.5475 -0.2830  0.3437
 6849TIP3    H120492   7.725   1.193   2.888  0.5748  0.5144  0.0808
 6849TIP3    H220493   7.647   1.248   2.770 -1.4292  0.8504  1.5471
 6850TIP3   OH220494   6.132   3.641   5.214 -0.0411  0.6815  0.4082
 6850TIP3    H120495   6.179   3.724   5.229  0.0332  0.4342  1.6029
 6850TIP3    H220496   6.070   3.661   5.144  0.3852  1.5880  0.2783
 6851TIP3   OH220497   6.541   0.869   1.900  0.2418 -0.1708 -0.4528
 6851TIP3    H120498   6.562   0.944   1.844  0.0272 -1.4755 -2.3254
 6851TIP3    H220499   6.623   0.849   1.945  0.3182  1.1315 -0.0013
 6852TIP3   OH220500   4.872   1.373   4.656  0.1365 -0.1514  0.4314
 6852TIP3    H120501   4.949   1.323   4.681  0.1484 -0.0013  0.6978
 6852TIP3    H220502   4.858   1.352   4.564 -0.6071 -1.6342  0.8758
 6853TIP3   OH220503   6.544   2.950   4.009 -0.2193 -0.7891 -1.1568
 6853TIP3    H120504   6.490   2.962   3.931 -0.7101  0.1928 -0.6811
 6853TIP3    H220505   6.495   2.994   4.079  0.7467 -0.6863 -0.5281
 6854TIP3   OH220506   6.703   2.328   4.474  0.4145 -0.6613  0.2023
 6854TIP3    H120507   6.799   2.328   4.465  0.2528 -1.3089 -1.5743
 6854TIP3    H220508   6.677   2.418   4.452  0.6390 -0.3462  1.1749
 6855TIP3   OH220509   7.225   1.957   3.775  0.4758  0.6914  0.1682
 6855TIP3    H120510   7.204   2.040   3.818  1.0324 -0.0948  2.0017
 6855TIP3    H220511   7.223   1.978   3.681 -1.4399  2.2642  0.5338
 6856TIP3   OH220512   6.872   3.176   3.540 -0.3320  0.7187 -0.2624
 6856TIP3    H120513   6.881   3.224   3.622  1.0242  1.3705 -0.7792
 6856TIP3    H220514   6.778   3.164   3.529 -0.5352  0.8073  1.2783
 6857TIP3   OH220515   6.515   0.786   3.432  0.3937  0.3764  0.0387
 6857TIP3    H120516   6.434   0.789   3.381  0.6161  2.2760 -0.2506
 6857TIP3    H220517   6.582   0.756   3.370  0.3456  1.0462 -0.3359
 6858TIP3   OH220518   6.793   5.279   4.322  0.3804 -0.3357  0.0568
 6858TIP3    H120519   6.813   5.185   4.314  0.7202 -0.3624  1.1557
 6858TIP3    H220520   6.726   5.283   4.390  0.3655  0.2197  0.0078
 6859TIP3   OH220521   7.514   2.062   5.249  0.2931  0.3558 -0.5282
 6859TIP3    H120522   7.600   2.029   5.225  0.1278  0.5124 -1.3722
 6859TIP3    H220523   7.493   2.126   5.181  0.2801  1.6432  0.6588
 6860TIP3   OH220524   5.422   2.282   4.267  0.0210 -0.2842  0.3618
 6860TIP3    H120525   5.391   2.197   4.237  0.7561 -1.1925  2.1081
 6860TIP3    H220526   5.349   2.318   4.318  0.7322 -1.1355  2.0110
 6861TIP3   OH220527   5.246   0.672   3.880 -0.2563 -0.3784  0.3021
 6861TIP3    H120528   5.247   0.631   3.794 -2.0374  0.9197 -0.3715
 6861TIP3    H220529   5.186   0.619   3.932 -1.3246  0.4413 -0.0907
 6862TIP3   OH220530   0.270   2.697   3.880  0.1580 -0.2069  0.0486
 6862TIP3    H120531   0.329   2.660   3.814 -0.7286  0.2296 -1.0035
 6862TIP3    H220532   0.183   2.670   3.852 -0.1107 -1.3940  1.9496
 6863TIP3   OH220533   6.726   3.244   2.517 -0.7462 -0.2070  0.7440
 6863TIP3    H120534   6.776   3.314   2.561  0.9920 -0.4056 -0.8692
 6863TIP3    H220535   6.793   3.186   2.481 -2.1529 -0.7630 -1.0341
 6864TIP3   OH220536   5.498   2.916   4.916  0.3771 -0.4292  0.5026
 6864TIP3    H120537   5.564   2.856   4.950  0.6187 -0.5541 -0.1807
 6864TIP3    H220538   5.476   2.881   4.830 -0.2320 -0.1201  0.5274
 6865TIP3   OH220539   7.154   0.590   4.766 -0.2915  0.2133  0.1928
 6865TIP3    H120540   7.230   0.559   4.814  0.0735  2.0346  0.8208
 6865TIP3    H220541   7.094   0.515   4.764  0.5375 -0.4996  1.7247
 6866TIP3   OH220542   3.847   2.067   3.952 -0.3691  1.0073  0.6210
 6866TIP3    H120543   3.819   2.155   3.924 -0.5752  0.0299 -2.4774
 6866TIP3    H220544   3.912   2.041   3.887 -1.0380 -1.5441  0.9285
 6867TIP3   OH220545   5.731   1.070   6.137  0.7686 -0.1370  0.3014
 6867TIP3    H120546   5.777   1.125   6.073  0.8899  1.4466  1.7052
 6867TIP3    H220547   5.782   1.081   6.218 -0.3612 -0.7442  1.0994
 6868TIP3   OH220548   5.400   2.578   3.874  0.0342 -0.1239 -0.0427
 6868TIP3    H120549   5.490   2.555   3.897  0.4258  0.1912 -1.2256
 6868TIP3    H220550   5.386   2.664   3.914  1.1572  1.0263 -2.0122
 6869TIP3   OH220551   4.706   2.995   2.591 -0.0469 -0.9039  0.3974
 6869TIP3    H120552   4.762   3.012   2.515 -0.6360 -0.4199  0.0647
 6869TIP3    H220553   4.755   3.030   2.665 -0.5637  0.9425 -0.0873
 6870TIP3   OH220554   4.420   1.748   5.767  0.4626 -0.0992 -0.3103
 6870TIP3    H120555   4.395   1.694   5.693 -1.9564 -1.4046  1.3994
 6870TIP3    H220556   4.392   1.699   5.844  1.0925  2.1268  1.4160
 6871TIP3   OH220557   6.120   3.178   3.989 -0.3949  0.1566  0.1531
 6871TIP3    H120558   6.162   3.198   4.073  0.7959 -0.9700 -0.1641
 6871TIP3    H220559   6.051   3.115   4.011 -1.6477  1.6520  0.6068
 6872TIP3   OH220560   3.985   1.890   3.764 -0.1741  0.3721 -0.0510
 6872TIP3    H120561   3.939   1.935   3.693  0.0646 -0.6002 -0.8403
 6872TIP3    H220562   3.957   1.799   3.756 -1.2751  0.5188  2.0233
 6873TIP3   OH220563   0.128   2.746   2.465 -0.1865 -0.8666 -0.0664
 6873TIP3    H120564   0.132   2.744   2.560  0.8741 -0.4796 -0.0968
 6873TIP3    H220565   0.206   2.699   2.436  1.1239  1.5956 -0.7254
 6874TIP3   OH220566   0.491   0.983   4.359  0.1711  0.4912  0.0504
 6874TIP3    H120567   0.503   0.893   4.331  0.2515  0.4268  0.2889
 6874TIP3    H220568   0.567   1.030   4.325  0.8337  0.1942  1.0943
 6875TIP3   OH220569   7.053   1.718   4.447  0.5751 -0.0151 -0.0619
 6875TIP3    H120570   6.984   1.781   4.467  1.4177  1.2262 -0.9509
 6875TIP3    H220571   7.018   1.666   4.375  0.5850  0.7030 -0.6021
 6876TIP3   OH220572   7.080   1.975   2.663 -0.0101  0.3834 -0.0624
 6876TIP3    H120573   7.006   2.029   2.692  1.0782  0.4599  2.7294
 6876TIP3    H220574   7.042   1.889   2.648 -0.6926  0.4341  1.2921
 6877TIP3   OH220575   6.039   0.457   6.347 -0.2297 -0.7739 -0.0749
 6877TIP3    H120576   6.130   0.481   6.366 -0.4860 -0.5036  0.8583
 6877TIP3    H220577   6.007   0.526   6.289  0.0106 -0.6001 -0.0007
 6878TIP3   OH220578   4.964   1.911   2.980 -0.4306  0.0580 -0.2651
 6878TIP3    H120579   4.924   1.842   3.032  0.6278  0.2331  0.7816
 6878TIP3    H220580   5.054   1.915   3.010 -0.9043  3.0725  0.9146
 6879TIP3   OH220581   4.903   2.548   5.838 -0.6903 -0.2797 -1.1387
 6879TIP3    H120582   4.870   2.634   5.863 -0.3663 -0.6769  0.8082
 6879TIP3    H220583   4.989   2.564   5.800 -0.2068  0.2065  0.1135
 6880TIP3   OH220584   7.564   3.701   3.410  0.3392 -0.3400 -0.3122
 6880TIP3    H120585   7.485   3.695   3.357  0.1754 -0.1414 -0.0937
 6880TIP3    H220586   7.581   3.611   3.439  0.4987 -0.4685 -0.7967
 6881TIP3   OH220587   4.961   4.084   4.477 -0.6911  0.5598 -0.2104
 6881TIP3    H120588   5.050   4.081   4.441 -0.6486  1.7617 -0.2439
 6881TIP3    H220589   4.923   3.999   4.455  0.3303  0.1771 -0.5180
 6882TIP3   OH220590   6.103   4.143   2.732  0.1333 -0.0755 -0.6568
 6882TIP3    H120591   6.043   4.104   2.795 -0.7847 -0.1830 -1.5932
 6882TIP3    H220592   6.047   4.189   2.670  0.9147 -1.5157 -2.4646
 6883TIP3   OH220593   4.858   2.505   1.896 -0.4102 -0.1160 -0.3374
 6883TIP3    H120594   4.776   2.518   1.944 -1.4389  1.2257 -2.4244
 6883TIP3    H220595   4.881   2.414   1.913 -0.4872  0.4186  3.0685
 6884TIP3   OH220596   7.210   1.755   2.232  0.2290  0.1694  0.1361
 6884TIP3    H120597   7.120   1.781   2.251  0.1696 -0.3641  0.5946
 6884TIP3    H220598   7.262   1.790   2.305  0.1920 -0.7122  0.5915
 6885TIP3   OH220599   7.506   2.122   1.090 -0.0372 -0.4943  0.2109
 6885TIP3    H120600   7.434   2.113   1.027 -0.6664 -2.2823  1.1398
 6885TIP3    H220601   7.494   2.208   1.130  0.9153  1.0795 -2.7458
 6886TIP3   OH220602   6.060   4.490   5.037 -0.0462  0.4013  0.5920
 6886TIP3    H120603   5.997   4.420   5.020 -0.7409  0.8771  1.2009
 6886TIP3    H220604   6.033   4.526   5.121 -0.3037  2.0827 -0.1991
 6887TIP3   OH220605   6.087   1.273   1.477 -0.4893 -0.1568 -0.2843
 6887TIP3    H120606   6.178   1.254   1.499 -1.0118 -1.0045  1.1763
 6887TIP3    H220607   6.049   1.307   1.558 -2.1558 -2.2863 -0.1161
 6888TIP3   OH220608   5.189   4.418   5.145  0.2214 -0.2072 -0.2893
 6888TIP3    H120609   5.265   4.438   5.200  1.6198 -0.6221 -2.0322
 6888TIP3    H220610   5.193   4.323   5.132 -0.3147 -0.1609 -0.8059
 6889TIP3   OH220611   4.708   3.285   6.401 -0.0757  0.7032 -0.0745
 6889TIP3    H120612   4.667   3.340   6.335  2.0321  2.3136 -0.1003
 6889TIP3    H220613   4.771   3.343   6.444  1.6434 -1.4897  0.4286
 6890TIP3   OH220614   5.167   2.199   3.322  0.4051  0.2249 -0.3355
 6890TIP3    H120615   5.200   2.109   3.328  1.8439  0.6211 -2.0699
 6890TIP3    H220616   5.225   2.250   3.378 -0.6329  0.0503  0.9387
 6891TIP3   OH220617   4.015   1.503   6.366 -0.0263 -0.1309  0.6367
 6891TIP3    H120618   4.095   1.554   6.372  0.2028 -0.0916 -2.0937
 6891TIP3    H220619   4.034   1.436   6.301 -2.3464  0.1443 -0.3818
 6892TIP3   OH220620   4.468   8.031   5.582  0.3854  0.1692  0.2542
 6892TIP3    H120621   4.562   8.047   5.592 -0.0686  2.1249  1.7612
 6892TIP3    H220622   4.452   7.951   5.632  1.4368 -0.8109 -0.9659
 6893TIP3   OH220623   6.718   1.199   4.310  0.4003  0.0548  0.6317
 6893TIP3    H120624   6.738   1.277   4.362 -0.6381  0.3439  0.5963
 6893TIP3    H220625   6.759   1.128   4.359  2.1528  0.7152  0.1900
 6894TIP3   OH220626   7.619   3.502   2.010  0.3177  0.1842  0.1012
 6894TIP3    H120627   7.563   3.533   2.081 -0.7117 -0.3240 -0.4759
 6894TIP3    H220628   7.632   3.409   2.028 -0.9454 -0.2274 -1.0096
 6895TIP3   OH220629   7.579   1.104   3.977  0.0003  0.3012 -0.0010
 6895TIP3    H120630   7.555   1.162   3.905  0.3003 -1.2813 -1.4032
 6895TIP3    H220631   7.536   1.142   4.054  0.8398  2.8145 -0.7193
 6896TIP3   OH220632   5.577   1.147   5.052  0.5007  0.0092 -0.0966
 6896TIP3    H120633   5.603   1.235   5.026  0.0267 -0.1543 -1.1607
 6896TIP3    H220634   5.505   1.160   5.112  0.2154  0.3416 -0.5094
 6897TIP3   OH220635   0.916   5.348   0.311 -0.4339  0.3453 -0.1002
 6897TIP3    H120636   0.884   5.436   0.291 -1.6022 -0.0168  0.1453
 6897TIP3    H220637   0.953   5.354   0.399 -0.6716  0.5615 -0.0146
 6898TIP3   OH220638   8.035   1.275   1.671  0.0031 -0.0684 -0.0718
 6898TIP3    H120639   7.941   1.287   1.660  0.0583  0.5350  0.1174
 6898TIP3    H220640   8.053   1.190   1.631 -0.4746  0.2232 -0.9120
 6899TIP3   OH220641   7.042   6.255   0.136  0.0206  0.1347 -0.5169
 6899TIP3    H120642   6.963   6.248   0.189  0.0339 -0.1776 -0.5383
 6899TIP3    H220643   7.077   6.342   0.157  0.5766 -0.3865  0.7531
 6900TIP3   OH220644   7.012   2.872   4.419 -0.1150 -0.1696 -0.0701
 6900TIP3    H120645   7.061   2.922   4.484 -3.5495  0.0281  2.4780
 6900TIP3    H220646   7.041   2.782   4.431  1.1440  0.2211 -0.0799
 6901TIP3   OH220647   4.753   1.042   3.249  0.4155  0.4046 -0.0178
 6901TIP3    H120648   4.730   1.125   3.206  1.3544 -0.1244 -1.5546
 6901TIP3    H220649   4.847   1.049   3.267  0.7956 -0.9114 -1.4483
 6902TIP3   OH220650   6.629   4.253   4.158 -0.1322  0.0775  0.2042
 6902TIP3    H120651   6.624   4.222   4.067  0.6818  1.2534 -0.2530
 6902TIP3    H220652   6.686   4.190   4.201  0.7035  0.3570 -0.4747
 6903TIP3   OH220653   7.262   3.340   3.421  0.3559  0.0260 -0.2316
 6903TIP3    H120654   7.291   3.248   3.428  0.6575  0.2531  2.0650
 6903TIP3    H220655   7.215   3.356   3.503  0.4344  1.9902 -0.5538
 6904TIP3   OH220656   6.438   3.862   1.082  0.2549  0.1744  0.2078
 6904TIP3    H120657   6.408   3.927   1.145 -1.0558 -0.1750 -0.0474
 6904TIP3    H220658   6.437   3.907   0.998 -1.2769 -0.3447 -0.0686
 6905TIP3   OH220659   3.933   2.018   4.961 -0.5765 -0.3601 -0.1123
 6905TIP3    H120660   4.011   2.073   4.953 -0.6765 -0.0939  0.6889
 6905TIP3    H220661   3.859   2.078   4.950 -0.7023 -0.1171  1.9308
 6906TIP3   OH220662   5.800   3.004   0.641  0.3295  0.1540  0.0041
 6906TIP3    H120663   5.742   3.078   0.660  1.6685  0.9920  0.8596
 6906TIP3    H220664   5.771   2.936   0.703  0.5452  0.7245  0.7463
 6907TIP3   OH220665   5.598   3.770   5.212  0.0423  0.2451  0.0918
 6907TIP3    H120666   5.561   3.856   5.189 -1.7983 -0.0824  1.7400
 6907TIP3    H220667   5.662   3.789   5.280  0.8838  0.4942 -0.7603
 6908TIP3   OH220668   6.271   4.480   4.837  0.8815  0.2865 -0.0128
 6908TIP3    H120669   6.200   4.444   4.890  0.2056  0.0243 -1.0885
 6908TIP3    H220670   6.227   4.538   4.775  1.9045  2.6022  1.3570
 6909TIP3   OH220671   5.934   3.839   3.072 -0.1201 -0.3278 -0.5585
 6909TIP3    H120672   5.981   3.758   3.054 -0.4848 -0.7133  0.1957
 6909TIP3    H220673   5.866   3.842   3.005  0.9709  0.2372 -1.6531
 6910TIP3   OH220674   6.859   1.603   4.291  0.4789  0.1498 -0.3357
 6910TIP3    H120675   6.781   1.643   4.330  1.0989 -0.0192  1.0961
 6910TIP3    H220676   6.832   1.580   4.202 -0.7147  1.2635 -0.2795
 6911TIP3   OH220677   6.972   1.869   3.489 -0.0588 -0.3922 -0.1358
 6911TIP3    H120678   6.883   1.889   3.461  0.4225 -0.0052 -1.4521
 6911TIP3    H220679   6.962   1.816   3.568 -1.4496 -0.4728 -0.3589
 6912TIP3   OH220680   6.898   1.167   6.881  0.4264  0.0994  0.0274
 6912TIP3    H120681   6.982   1.125   6.896 -0.2670 -1.7365 -1.0849
 6912TIP3    H220682   6.856   1.167   6.967 -0.2214 -2.9961 -0.2478
 6913TIP3   OH220683   5.757   1.910   2.566 -0.5029  0.2850 -0.1496
 6913TIP3    H120684   5.801   1.990   2.593  0.3578 -0.4521  0.6330
 6913TIP3    H220685   5.750   1.857   2.646 -0.7016 -0.5975 -0.7382
 6914TIP3   OH220686   5.868   1.141   6.375  0.6062 -0.1873 -0.0516
 6914TIP3    H120687   5.912   1.225   6.391  1.1554 -0.5182  0.2105
 6914TIP3    H220688   5.940   1.079   6.365  0.2440 -0.2898 -2.1659
 6915TIP3   OH220689   7.047   4.845   2.298 -0.2015 -0.9525 -0.3196
 6915TIP3    H120690   7.060   4.940   2.296 -0.0763 -0.9216  1.0343
 6915TIP3    H220691   7.135   4.808   2.303 -0.2904 -1.0867  0.3192
 6916TIP3   OH220692   5.679   3.610   4.419  0.6452 -0.0968  0.8188
 6916TIP3    H120693   5.761   3.652   4.394  0.8187 -0.6032  0.5407
 6916TIP3    H220694   5.672   3.623   4.513  0.2645  1.3458  0.6061
 6917TIP3   OH220695   4.987   3.558   5.745  0.5204  0.0026  0.0691
 6917TIP3    H120696   4.924   3.487   5.761 -0.3173  0.6272 -0.4220
 6917TIP3    H220697   4.987   3.569   5.650  1.1593  0.2071  0.0917
 6918TIP3   OH220698   6.620   1.746   4.608  0.9823 -0.3019 -0.0039
 6918TIP3    H120699   6.706   1.735   4.648  1.3295  3.6548  0.5977
 6918TIP3    H220700   6.638   1.757   4.514  1.1602  0.5422  0.1241
 6919TIP3   OH220701   6.006   4.041   5.791 -0.3553  0.9546  0.1062
 6919TIP3    H120702   6.042   4.126   5.813  0.5152  0.4503  0.6413
 6919TIP3    H220703   5.973   4.051   5.701  1.6172  1.2585 -0.6014
 6920TIP3   OH220704   5.715   2.296   2.987 -0.1732  0.0888 -0.1386
 6920TIP3    H120705   5.718   2.384   2.949 -1.0425 -0.2370 -0.9817
 6920TIP3    H220706   5.789   2.250   2.948 -0.5884  0.0019 -0.8324
 6921TIP3   OH220707   6.093   3.423   4.784  0.0944 -0.4213 -0.5065
 6921TIP3    H120708   6.012   3.469   4.807 -0.3611 -1.1405 -0.6576
 6921TIP3    H220709   6.082   3.335   4.821  1.5547  0.0082  1.0192
 6922TIP3   OH220710   5.780   2.146   3.488  0.3518 -0.6452  0.9403
 6922TIP3    H120711   5.769   2.078   3.421 -1.1112 -1.2578  1.7663
 6922TIP3    H220712   5.843   2.109   3.549  1.7930 -0.0291 -0.1553
 6923TIP3   OH220713   6.427   1.477   5.429  0.2741 -0.0725  0.3340
 6923TIP3    H120714   6.482   1.530   5.371  0.3622  1.6975  2.0319
 6923TIP3    H220715   6.341   1.476   5.385  0.3843  1.1005  0.0726
 6924TIP3   OH220716   5.464   1.572   4.104 -0.2855 -0.1165 -0.0273
 6924TIP3    H120717   5.533   1.568   4.170 -0.3552 -0.6005  0.0197
 6924TIP3    H220718   5.490   1.643   4.046  0.7352 -0.9209 -0.5528
 6925TIP3   OH220719   5.677   1.449   3.518  0.1312  0.0748  0.1492
 6925TIP3    H120720   5.582   1.448   3.529  0.1020 -1.2613 -0.1828
 6925TIP3    H220721   5.695   1.532   3.475 -1.0762 -0.4731 -1.4616
 6926TIP3   OH220722   6.011   1.139   5.325  0.3257  0.9985  0.3292
 6926TIP3    H120723   6.034   1.209   5.386 -3.0588  1.2762  1.3772
 6926TIP3    H220724   6.022   1.059   5.376  1.3417  0.9526  0.0463
 6927TIP3   OH220725   6.907   4.045   3.040  0.0750 -0.3316  0.2124
 6927TIP3    H120726   6.933   3.953   3.042  0.5815 -0.2893 -2.5292
 6927TIP3    H220727   6.849   4.052   2.964 -0.6748  1.4377  0.9276
 6928TIP3   OH220728   7.558   1.755   5.561 -0.1681 -0.0623  0.2908
 6928TIP3    H120729   7.635   1.809   5.579  1.4591 -1.9528 -0.7279
 6928TIP3    H220730   7.483   1.810   5.585  1.4630  2.1458  0.4616
 6929TIP3   OH220731   5.019   7.897   3.335  0.4901 -0.1587  0.0413
 6929TIP3    H120732   5.052   7.877   3.247  1.6289  0.3628  0.3349
 6929TIP3    H220733   5.094   7.883   3.393 -0.1432 -0.1294  0.8816
 6930TIP3   OH220734   7.077   2.650   6.710  1.0441 -0.7786  0.0340
 6930TIP3    H120735   6.998   2.657   6.656  1.0231  0.2999  0.1975
 6930TIP3    H220736   7.052   2.591   6.781  0.2154 -0.0242  0.3774
 6931TIP3   OH220737   2.935   6.103   0.311  0.6234  0.1940 -0.0826
 6931TIP3    H120738   3.006   6.160   0.338  0.2629  0.3180  0.6150
 6931TIP3    H220739   2.966   6.063   0.230  2.3913 -1.4202  1.3463
 6932TIP3   OH220740   6.065   2.139   4.884  0.0698 -0.2777  0.1022
 6932TIP3    H120741   6.148   2.121   4.839 -1.6800 -2.8117 -2.2610
 6932TIP3    H220742   6.068   2.082   4.961  0.1804 -1.0319 -0.4465
 6933TIP3   OH220743   5.652   0.271   4.943 -0.0168  0.1920  0.1223
 6933TIP3    H120744   5.602   0.198   4.978 -0.6477  0.5989  0.0820
 6933TIP3    H220745   5.730   0.275   4.998 -0.5875  0.2824  0.9409
 6934TIP3   OH220746   5.927   1.725   6.070  0.6875  0.8070 -0.4473
 6934TIP3    H120747   5.857   1.707   6.007  0.9847 -0.0213 -0.5442
 6934TIP3    H220748   5.957   1.813   6.048  0.4918  0.6941 -1.1778
 6935TIP3   OH220749   6.263   2.664   6.091 -0.2460 -0.4759  0.4292
 6935TIP3    H120750   6.232   2.674   6.001 -0.5925 -2.8182  0.2516
 6935TIP3    H220751   6.227   2.739   6.138 -0.4536  0.5070 -1.2823
 6936TIP3   OH220752   6.762   3.993   1.829 -0.0829 -0.2038 -0.1353
 6936TIP3    H120753   6.837   4.000   1.769  0.2372  0.1727  0.3093
 6936TIP3    H220754   6.686   3.985   1.771  0.1616  0.7809 -0.5927
 6937TIP3   OH220755   4.872   3.795   4.490  0.8895  0.3371 -0.2224
 6937TIP3    H120756   4.901   3.721   4.543  0.4972  0.0644 -0.3958
 6937TIP3    H220757   4.793   3.765   4.447  1.9776  0.0824 -2.0695
 6938TIP3   OH220758   0.088   4.274   2.255 -0.3571 -0.4809 -0.4681
 6938TIP3    H120759   0.132   4.306   2.176 -0.9984  0.2404 -0.5400
 6938TIP3    H220760   0.022   4.341   2.274  0.0715 -0.4374  0.9209
 6939TIP3   OH220761   3.633   0.971   4.183 -0.0753 -0.0982 -0.4474
 6939TIP3    H120762   3.624   1.033   4.111  0.9832  1.2958  0.5681
 6939TIP3    H220763   3.555   0.984   4.237 -0.9182 -1.2171 -1.3849
 6940TIP3   OH220764   7.491   1.828   3.376 -0.4292 -0.7543  0.2942
 6940TIP3    H120765   7.508   1.918   3.402 -1.7590 -0.9391  1.8891
 6940TIP3    H220766   7.405   1.831   3.333 -0.9586 -1.4008  1.2704
 6941TIP3   OH220767   6.787   4.615   3.333  0.2591  0.0870 -0.0409
 6941TIP3    H120768   6.726   4.584   3.266  1.7069 -1.2216 -0.7843
 6941TIP3    H220769   6.873   4.598   3.296  1.0834 -0.6434  2.1640
 6942TIP3   OH220770   7.647   5.157   4.980 -0.0115  0.0041  0.6771
 6942TIP3    H120771   7.609   5.072   4.959  1.2249 -0.7449  1.4418
 6942TIP3    H220772   7.574   5.219   4.969 -0.5198 -0.9227 -1.4571
 6943TIP3   OH220773   7.724   3.142   4.488 -0.3309  0.0466  0.1261
 6943TIP3    H120774   7.727   3.188   4.572  0.2197 -1.4389  0.9321
 6943TIP3    H220775   7.633   3.114   4.479 -0.4173  0.3113  0.1707
 6944TIP3   OH220776   6.674   3.664   4.001 -0.1718  0.3584  0.2346
 6944TIP3    H120777   6.585   3.690   3.976 -0.7513 -2.1800 -0.4916
 6944TIP3    H220778   6.662   3.606   4.076  0.6156 -2.4106 -1.7249
 6945TIP3   OH220779   6.325   2.137   4.787 -0.2294  0.2587 -0.7765
 6945TIP3    H120780   6.321   2.048   4.752  1.5435 -0.8554  1.6958
 6945TIP3    H220781   6.392   2.180   4.734  0.4442 -0.5505 -0.6036
 6946TIP3   OH220782   6.960   3.228   1.434 -0.6097 -0.4828 -0.1936
 6946TIP3    H120783   6.907   3.269   1.366  0.3624 -0.7059 -1.0915
 6946TIP3    H220784   7.022   3.173   1.387  1.0699  0.5180  0.7789
 6947TIP3   OH220785   5.971   1.934   3.921 -0.4572 -0.1623  0.3750
 6947TIP3    H120786   5.906   1.868   3.898 -0.6400  0.5712 -1.2667
 6947TIP3    H220787   6.055   1.894   3.896 -0.5904  0.3244 -0.8706
 6948TIP3   OH220788   6.005   0.720   1.018  0.4057 -0.2342 -0.2570
 6948TIP3    H120789   6.035   0.772   1.092  1.1784 -0.9755 -0.0465
 6948TIP3    H220790   6.081   0.713   0.960 -0.1568  0.2376 -1.0693
 6949TIP3   OH220791   5.507   2.758   5.413 -0.8026 -0.4257 -0.8467
 6949TIP3    H120792   5.535   2.667   5.415 -1.2550 -0.5998 -1.8479
 6949TIP3    H220793   5.589   2.808   5.409 -0.5713 -0.8457 -1.5750
 6950TIP3   OH220794   6.586   2.565   4.382  0.4343 -0.0723  0.0996
 6950TIP3    H120795   6.591   2.593   4.291 -0.1365  1.6724  0.5778
 6950TIP3    H220796   6.572   2.646   4.431 -0.6583 -1.1462  1.6116
 6951TIP3   OH220797   7.598   1.937   6.833  0.2529  0.5993 -0.3875
 6951TIP3    H120798   7.595   2.030   6.855 -0.9819  0.6144 -0.5573
 6951TIP3    H220799   7.590   1.935   6.737  1.4414  0.3573 -0.4950
 6952TIP3   OH220800   7.961   3.405   5.606 -0.4975  0.0464  0.5662
 6952TIP3    H120801   7.957   3.483   5.661  0.8742 -0.1272  0.9202
 6952TIP3    H220802   8.051   3.375   5.613 -1.0167 -1.5697  0.4070
 6953TIP3   OH220803   7.595   0.597   1.349 -0.3801 -0.3988 -0.6776
 6953TIP3    H120804   7.557   0.546   1.420  0.5161 -0.8206 -0.4975
 6953TIP3    H220805   7.533   0.586   1.276 -2.5505  1.9817  0.7202
 6954TIP3   OH220806   7.792   0.939   3.922 -0.4976 -0.4222  0.6285
 6954TIP3    H120807   7.715   0.992   3.940  0.2252 -0.0044  2.6391
 6954TIP3    H220808   7.865   0.988   3.959  0.5653 -1.4468 -0.0439
 6955TIP3   OH220809   6.926   2.201   2.785  0.3405  0.1984 -0.1339
 6955TIP3    H120810   6.897   2.290   2.764 -1.7622 -0.2955  0.4956
 6955TIP3    H220811   6.920   2.196   2.880 -0.0694 -0.7604 -0.2005
 6956TIP3   OH220812   5.557   2.473   5.408  0.4553 -1.0411 -0.6147
 6956TIP3    H120813   5.503   2.439   5.336 -1.4027 -2.0809  1.2239
 6956TIP3    H220814   5.607   2.397   5.437  1.1052 -0.6541 -0.7283
 6957TIP3   OH220815   4.544   2.066   6.195 -0.1650  0.5148 -0.5443
 6957TIP3    H120816   4.560   2.160   6.206 -2.4116  0.7930  0.5970
 6957TIP3    H220817   4.600   2.025   6.260 -1.0146  1.2199  0.6522
 6958TIP3   OH220818   0.640   5.502   4.821  0.0406 -1.2003 -0.3970
 6958TIP3    H120819   0.714   5.562   4.818 -1.5065  0.7361 -0.7353
 6958TIP3    H220820   0.640   5.460   4.734  0.9157 -1.4679 -0.2771
 6959TIP3   OH220821   6.541   2.062   2.902  0.1177  0.1103  0.0114
 6959TIP3    H120822   6.481   2.021   2.964 -1.2676  0.8649 -0.7949
 6959TIP3    H220823   6.599   2.116   2.956 -1.4919  1.2816  0.5976
 6960TIP3   OH220824   4.739   2.794   5.023  0.1264  0.1455  0.2887
 6960TIP3    H120825   4.818   2.793   5.077  2.3488 -0.7467 -2.8521
 6960TIP3    H220826   4.726   2.887   5.002  1.5278  0.0853 -0.8593
 6961TIP3   OH220827   5.699   6.228   5.740  0.0306 -0.6040 -0.0470
 6961TIP3    H120828   5.710   6.321   5.719 -1.9997 -0.3788 -0.2252
 6961TIP3    H220829   5.754   6.182   5.677 -0.1204  0.4115 -0.9214
 6962TIP3   OH220830   8.281   3.264   4.822 -0.0448 -0.4856  0.0215
 6962TIP3    H120831   8.294   3.351   4.786  0.6702 -0.0496  1.3070
 6962TIP3    H220832   8.368   3.225   4.823 -0.0448 -0.4614  1.3401
 6963TIP3   OH220833   6.882   1.994   4.803  0.1385  0.0665 -0.1719
 6963TIP3    H120834   6.893   1.973   4.710  1.0892 -2.9438  0.5476
 6963TIP3    H220835   6.790   1.975   4.822 -0.1993  1.2442 -0.6231
 6964TIP3   OH220836   7.362   0.388   4.505  0.1949 -0.2356  1.1631
 6964TIP3    H120837   7.372   0.335   4.426 -1.3289 -1.0293  1.4858
 6964TIP3    H220838   7.268   0.388   4.522  0.2019  2.2039  1.4364
 6965TIP3   OH220839   7.404   2.642   3.272 -0.1369 -0.2475  0.0722
 6965TIP3    H120840   7.369   2.717   3.322 -0.1027 -1.8830  2.6436
 6965TIP3    H220841   7.483   2.676   3.232 -0.2115  1.1738  1.0720
 6966TIP3   OH220842   6.502   2.739   5.437 -0.2956  0.2120 -0.1276
 6966TIP3    H120843   6.494   2.834   5.447 -0.3101  0.1767  0.1931
 6966TIP3    H220844   6.532   2.728   5.347 -0.2502  0.5229 -0.1540
 6967TIP3   OH220845   5.419   2.536   6.447 -0.0709 -0.4127  0.6107
 6967TIP3    H120846   5.392   2.533   6.355  1.9811 -0.8603 -0.0087
 6967TIP3    H220847   5.392   2.451   6.482 -1.5524  0.0570  0.6505
 6968TIP3   OH220848   6.154   2.964   4.425 -0.1319  0.1343  0.6872
 6968TIP3    H120849   6.060   2.961   4.444 -0.1852  0.6114  0.5026
 6968TIP3    H220850   6.195   2.967   4.511 -0.3113  0.5702  0.7623
 6969TIP3   OH220851   7.906   2.235   5.993 -0.0220  0.4874  0.4592
 6969TIP3    H120852   7.988   2.192   5.972 -0.1933  0.3144  0.1460
 6969TIP3    H220853   7.932   2.321   6.026  0.3535 -0.0849  1.6879
 6970TIP3   OH220854   4.957   1.750   5.253 -0.2512  0.2820 -0.2674
 6970TIP3    H120855   4.986   1.662   5.226 -0.2675  0.7045 -1.6970
 6970TIP3    H220856   4.925   1.738   5.343 -0.8896 -1.3075 -0.6855
 6971TIP3   OH220857   7.752   1.923   5.668  0.0226  0.6483 -0.2135
 6971TIP3    H120858   7.846   1.909   5.660 -0.0245  0.7807 -1.0071
 6971TIP3    H220859   7.733   1.902   5.759  0.8122  0.5810 -0.0577
 6972TIP3   OH220860   5.871   1.633   6.559  0.0189 -0.6797  0.2082
 6972TIP3    H120861   5.949   1.683   6.581 -1.5374  1.3741  1.2616
 6972TIP3    H220862   5.811   1.650   6.632 -1.3857 -2.2733 -0.5504
 6973TIP3   OH220863   4.644   4.064   5.155 -0.0983  0.1185 -0.3199
 6973TIP3    H120864   4.610   4.105   5.234  0.6867 -0.2072  0.1918
 6973TIP3    H220865   4.647   3.971   5.175  2.5706  0.2794  0.2351
 6974TIP3   OH220866   6.435   4.408   5.847 -0.1281 -0.1916 -0.2719
 6974TIP3    H120867   6.421   4.346   5.776 -0.6316 -0.8985  0.4372
 6974TIP3    H220868   6.520   4.384   5.884 -0.7781 -1.1240  0.6520
 6975TIP3   OH220869   6.778   3.029   4.158 -0.3150 -0.1129 -0.0277
 6975TIP3    H120870   6.739   2.976   4.228 -1.1678  0.4557 -0.0592
 6975TIP3    H220871   6.706   3.043   4.096  0.4639 -0.7349 -1.1051
 6976TIP3   OH220872   6.432   2.129   5.590  0.4430 -0.0399  0.1245
 6976TIP3    H120873   6.522   2.129   5.559  0.0396  0.1424 -1.0911
 6976TIP3    H220874   6.385   2.185   5.528 -1.2777 -3.3144 -1.6613
 6977TIP3   OH220875   5.503   0.469   5.083 -0.4075 -0.2667  0.2639
 6977TIP3    H120876   5.430   0.439   5.029  0.5445 -2.3449  0.0746
 6977TIP3    H220877   5.578   0.418   5.053  1.2931  2.2390  0.0412
 6978TIP3   OH220878   5.754   3.595   5.060 -0.0084  0.5065 -0.1723
 6978TIP3    H120879   5.730   3.514   5.104 -0.3579 -1.0514 -3.1418
 6978TIP3    H220880   5.701   3.662   5.103 -0.8429 -1.0354  1.2791
 6979TIP3   OH220881   7.489   1.675   4.960  0.3719 -0.0259 -0.0647
 6979TIP3    H120882   7.428   1.742   4.991 -0.4373 -0.5720 -0.4710
 6979TIP3    H220883   7.545   1.657   5.036 -0.1873  0.2306  0.4112
 6980TIP3   OH220884   5.849   3.185   3.790 -0.4724 -0.1038  0.2477
 6980TIP3    H120885   5.907   3.251   3.752  2.4763 -1.6399  1.9232
 6980TIP3    H220886   5.829   3.125   3.718 -0.9399  1.0729 -0.6168
 6981TIP3   OH220887   0.001   0.700   3.662  0.1411  0.7399  0.3564
 6981TIP3    H120888  -0.020   0.780   3.710  1.1508  2.4989 -2.0535
 6981TIP3    H220889   0.082   0.668   3.703 -0.5031  0.6582  1.6181
 6982TIP3   OH220890   0.838   1.747   4.992 -0.0966 -0.4527  0.2223
 6982TIP3    H120891   0.927   1.732   5.026  0.4998 -1.7438 -1.8230
 6982TIP3    H220892   0.850   1.758   4.898 -1.7130  3.1952  0.3601
 6983TIP3   OH220893   6.140   1.864   2.646 -0.4333  0.2329 -0.1579
 6983TIP3    H120894   6.077   1.934   2.660 -1.5165 -0.8184  0.2574
 6983TIP3    H220895   6.152   1.824   2.732 -0.9557 -1.0347 -0.6532
 6984TIP3   OH220896   4.286   1.062   3.259 -0.2838  0.0154 -0.2037
 6984TIP3    H120897   4.312   1.111   3.181  0.7724 -1.9463 -1.0925
 6984TIP3    H220898   4.329   1.108   3.332 -1.0761  1.7043 -0.7612
 6985TIP3   OH220899   5.609   0.490   5.639 -0.1201 -0.0443  0.4347
 6985TIP3    H120900   5.524   0.529   5.662 -0.5009  0.9733 -2.3955
 6985TIP3    H220901   5.589   0.432   5.565  1.5680 -0.0897 -0.0006
 6986TIP3   OH220902   7.184   2.370   5.131  0.4827 -0.1142  0.2442
 6986TIP3    H120903   7.094   2.364   5.099  0.2223 -0.7995  1.0693
 6986TIP3    H220904   7.231   2.302   5.083 -0.0090 -1.4523  1.5965
 6987TIP3   OH220905   6.578   3.220   3.120  0.2046 -0.4858  0.0657
 6987TIP3    H120906   6.627   3.144   3.091  1.2886  0.1027  0.3297
 6987TIP3    H220907   6.486   3.196   3.109  0.5258 -2.1196  0.8875
 6988TIP3   OH220908   5.402   1.385   4.898  0.2673  0.2697  0.1799
 6988TIP3    H120909   5.492   1.409   4.879 -0.5820  2.2983 -1.5088
 6988TIP3    H220910   5.389   1.406   4.990  1.5851 -0.3141  0.5012
 6989TIP3   OH220911   2.370   7.618   5.281  0.1110  0.2565  0.1922
 6989TIP3    H120912   2.433   7.690   5.291  1.2691 -0.4222 -1.9980
 6989TIP3    H220913   2.417   7.541   5.312 -1.1023  0.3745  2.4624
 6990TIP3   OH220914   6.897   0.476   4.160  0.1771  0.0266  0.2682
 6990TIP3    H120915   6.990   0.462   4.140 -0.5129 -0.8557 -2.5578
 6990TIP3    H220916   6.887   0.572   4.158  1.4545  0.2652  2.8799
 6991TIP3   OH220917   7.209   3.285   3.122  0.1045 -0.1532 -0.3732
 6991TIP3    H120918   7.265   3.281   3.200 -1.3992 -1.7869  0.6481
 6991TIP3    H220919   7.249   3.222   3.061  0.4080  0.0036 -0.3387
 6992TIP3   OH220920   6.308   2.336   2.771 -0.0941 -0.2846  0.0087
 6992TIP3    H120921   6.263   2.348   2.687  0.5634 -0.5477 -0.3917
 6992TIP3    H220922   6.363   2.259   2.757  2.5510  1.5825 -0.4388
 6993TIP3   OH220923   5.973   1.162   4.689  0.0013  0.1308  0.2079
 6993TIP3    H120924   6.055   1.211   4.677 -0.8178  1.5168  0.2511
 6993TIP3    H220925   5.992   1.102   4.762  1.4861 -0.6867 -0.8324
 6994TIP3   OH220926   7.828   1.008   4.511 -0.1146 -0.2873 -0.4573
 6994TIP3    H120927   7.825   0.957   4.592  1.5703  0.5913  0.2033
 6994TIP3    H220928   7.765   1.079   4.526 -0.3341 -0.5322 -0.2051
 6995TIP3   OH220929   5.406   3.001   3.932  0.2383  0.0871  0.2684
 6995TIP3    H120930   5.491   3.045   3.925 -0.0508  1.0360  2.3503
 6995TIP3    H220931   5.418   2.939   4.005 -0.2474 -1.2362 -0.7603
 6996TIP3   OH220932   0.427   3.211   6.139 -0.4525 -0.0222 -0.1345
 6996TIP3    H120933   0.417   3.294   6.185 -0.0881 -0.0128 -0.0758
 6996TIP3    H220934   0.347   3.162   6.161 -0.1798 -0.1091  0.6859
 6997TIP3   OH220935   5.958   5.493   2.010  0.1307 -0.2196  0.3171
 6997TIP3    H120936   5.900   5.492   2.086  1.6632  0.4375  1.5182
 6997TIP3    H220937   5.971   5.400   1.989  0.9101 -0.4707  1.8181
 6998TIP3   OH220938   7.589   1.804   4.296 -0.0816 -0.0162  0.9142
 6998TIP3    H120939   7.626   1.764   4.217  0.0904  0.7661  0.5941
 6998TIP3    H220940   7.547   1.731   4.342  0.0073 -0.5207  0.2141
 6999TIP3   OH220941   6.712   1.934   1.974 -0.3194 -0.0704  0.0812
 6999TIP3    H120942   6.739   1.847   2.005 -1.2156  0.0246  1.1261
 6999TIP3    H220943   6.786   1.991   1.994  0.5572 -0.7139 -1.2290
 7000TIP3   OH220944   6.211   1.955   4.171  0.0618 -0.1095  0.0950
 7000TIP3    H120945   6.239   2.009   4.245 -0.0743 -0.7556  0.6173
 7000TIP3    H220946   6.119   1.938   4.188  0.2040 -0.8404  0.1371
 7001TIP3   OH220947   0.437   2.241   4.487  0.0695  0.2007 -0.1921
 7001TIP3    H120948   0.460   2.300   4.414  1.2800  0.2134  0.1920
 7001TIP3    H220949   0.434   2.154   4.447  0.4010  0.2524 -0.3359
 7002TIP3   OH220950   3.393   5.433   4.992  0.0959 -0.1032  0.1538
 7002TIP3    H120951   3.422   5.364   5.052 -0.6738 -0.6930 -0.1421
 7002TIP3    H220952   3.459   5.434   4.922  0.0090 -0.6695  0.0648
 7003TIP3   OH220953   7.198   3.453   2.470  0.1655  0.3393 -0.2446
 7003TIP3    H120954   7.166   3.541   2.454  1.0444  0.8479  0.7377
 7003TIP3    H220955   7.200   3.445   2.565  0.3945 -0.6305 -0.3245
 7004TIP3   OH220956   0.629   2.441   1.265 -0.7523  0.8628  0.9639
 7004TIP3    H120957   0.633   2.346   1.260 -1.4075  0.9143 -0.7446
 7004TIP3    H220958   0.720   2.469   1.266 -0.5610  0.2963 -0.2591
 7005TIP3   OH220959   8.268   0.308   3.850  0.5358  0.6620  0.2954
 7005TIP3    H120960   8.203   0.366   3.809  1.4413  0.0289 -2.1150
 7005TIP3    H220961   8.345   0.313   3.793  1.3430 -1.3438  1.1394
 7006TIP3   OH220962   6.965   2.425   4.334 -0.0671  0.8027  0.3204
 7006TIP3    H120963   6.980   2.342   4.379 -1.4176  0.5727  0.3834
 7006TIP3    H220964   7.047   2.473   4.343  0.8276 -0.6328  0.0588
 7007TIP3   OH220965   5.864   7.660   4.881  0.1772  0.2293 -0.1336
 7007TIP3    H120966   5.903   7.628   4.962  0.2297  1.5238  0.3731
 7007TIP3    H220967   5.919   7.622   4.812  0.0437 -0.9943  0.4234
 7008TIP3   OH220968   7.986   2.716   3.607 -0.5119  0.3010  0.2789
 7008TIP3    H120969   7.939   2.739   3.688  0.5069 -0.7975  1.1882
 7008TIP3    H220970   7.970   2.622   3.596 -0.4695  0.4058 -0.6872
 7009TIP3   OH220971   7.421   3.124   5.252 -0.3461  0.0709 -0.8149
 7009TIP3    H120972   7.440   3.100   5.162  0.9922 -1.4339 -0.1476
 7009TIP3    H220973   7.444   3.217   5.258  1.9806 -0.4393 -1.3770
 7010TIP3   OH220974   1.133   2.614   3.170 -0.6085 -0.2560  0.1625
 7010TIP3    H120975   1.072   2.677   3.209  0.4101  0.5744  0.4135
 7010TIP3    H220976   1.191   2.667   3.116  1.2353 -0.7726  1.5939
 7011TIP3   OH220977   5.182   4.020   3.916 -0.3568 -0.0220  0.2422
 7011TIP3    H120978   5.202   3.954   3.850  0.1607 -0.2401  0.6112
 7011TIP3    H220979   5.123   3.975   3.977 -0.9023  0.2052 -0.1155
 7012TIP3   OH220980   7.807   3.412   3.163 -0.2378 -0.0619  0.0532
 7012TIP3    H120981   7.823   3.388   3.255 -1.3472 -0.7056  0.0790
 7012TIP3    H220982   7.895   3.415   3.124  0.0405 -2.9952  0.3375
 7013TIP3   OH220983   0.052   0.983   3.138 -0.6247 -0.1195  0.0613
 7013TIP3    H120984   0.081   0.918   3.202 -1.4760 -0.6240 -0.0596
 7013TIP3    H220985   0.073   0.943   3.053  0.9831  0.7729  0.0286
 7014TIP3   OH220986   7.209   2.183   3.311 -0.5158 -0.9532 -0.6712
 7014TIP3    H120987   7.254   2.124   3.251  0.6100  0.5313 -1.3031
 7014TIP3    H220988   7.231   2.271   3.281 -0.7097 -0.1750  1.3348
 7015TIP3   OH220989   6.137   0.988   1.674 -0.0844  0.1246 -0.2045
 7015TIP3    H120990   6.180   1.010   1.756 -0.6492 -0.2450  0.1972
 7015TIP3    H220991   6.185   1.037   1.607  1.5140 -0.9721  0.1165
 7016TIP3   OH220992   7.761   3.224   5.652 -0.1737  0.0588  0.0869
 7016TIP3    H120993   7.750   3.238   5.746 -0.5105  0.1940  0.0256
 7016TIP3    H220994   7.841   3.273   5.630  0.6254 -1.0208  0.5452
 7017TIP3   OH220995   8.473   4.579   3.017 -0.9781 -0.6968  0.5032
 7017TIP3    H120996   8.486   4.487   3.041 -2.0303 -1.0578 -0.2974
 7017TIP3    H220997   8.391   4.604   3.061 -0.0483  0.2401  1.7604
 7018TIP3   OH220998   7.300   3.208   4.751 -0.7460  0.0972  0.0681
 7018TIP3    H120999   7.323   3.283   4.697 -0.8259  1.9665  2.5507
 7018TIP3    H221000   7.379   3.190   4.802 -0.6619 -1.6504 -0.6466
 7019TIP3   OH221001   5.172   2.867   3.760  0.2851  0.4248  0.3429
 7019TIP3    H121002   5.084   2.905   3.761  0.6181  1.2793 -1.6345
 7019TIP3    H221003   5.229   2.937   3.789  0.5261  0.4505 -0.1873
 7020TIP3   OH221004   7.852   5.482   2.121  0.1994 -0.2014  0.3452
 7020TIP3    H121005   7.776   5.522   2.163 -1.3360 -2.6565  0.0428
 7020TIP3    H221006   7.826   5.473   2.029  0.3145 -2.2482  0.4915
 7021TIP3   OH221007   7.457   3.270   3.780  0.2866 -0.0680 -0.7279
 7021TIP3    H121008   7.534   3.226   3.745  1.0343  0.3677  0.3580
 7021TIP3    H221009   7.400   3.199   3.810  0.7456 -0.3535 -0.5292
 7022TIP3   OH221010   7.800   2.820   2.663 -0.3626 -0.2967 -0.6290
 7022TIP3    H121011   7.808   2.789   2.572  1.7056  0.0119 -0.5923
 7022TIP3    H221012   7.712   2.855   2.669 -1.0216 -1.6156 -2.1213
 7023TIP3   OH221013   7.787   4.088   4.626  0.3419 -0.5551  0.7377
 7023TIP3    H121014   7.837   4.168   4.642  0.4127 -0.8232  1.8894
 7023TIP3    H221015   7.850   4.025   4.592  0.0490  0.2462 -1.3458
 7024TIP3   OH221016   6.296   2.345   5.050 -0.0744 -0.0647 -0.0596
 7024TIP3    H121017   6.318   2.302   5.132 -0.0851  0.0095 -0.0184
 7024TIP3    H221018   6.333   2.288   4.982  0.3686  0.1317  0.0144
 7025TIP3   OH221019   1.299   3.016   3.796  0.5712  0.2206  0.2587
 7025TIP3    H121020   1.289   2.965   3.716 -2.2912 -0.5255  1.0216
 7025TIP3    H221021   1.320   3.105   3.766  2.1027 -0.6301 -1.2115
 7026TIP3   OH221022   7.978   1.558   2.848 -0.0707  0.0760  0.6079
 7026TIP3    H121023   8.015   1.575   2.935 -1.3410 -1.2583  1.4346
 7026TIP3    H221024   8.005   1.468   2.828 -1.4541 -0.3301  0.5109
 7027TIP3   OH221025   1.177   1.214   2.410 -0.8359  0.0063  0.4220
 7027TIP3    H121026   1.134   1.221   2.496  0.2871 -1.7193  1.1607
 7027TIP3    H221027   1.251   1.274   2.415 -2.1477  1.7207 -0.2422
 7028TIP3   OH221028   1.000   2.832   3.263 -0.2955  0.3419 -0.2189
 7028TIP3    H121029   1.020   2.919   3.229 -0.8538  1.1819  1.5012
 7028TIP3    H221030   0.912   2.813   3.230  0.2204 -0.0173 -1.4167
 7029TIP3   OH221031   7.806   1.840   3.592  0.0911 -0.0190  0.0695
 7029TIP3    H121032   7.711   1.849   3.587 -0.1329 -1.8010  1.0361
 7029TIP3    H221033   7.824   1.829   3.685  1.2328  0.0986 -0.1321
 7030TIP3   OH221034   0.630   3.904   4.294  0.6192 -0.4602  0.7222
 7030TIP3    H121035   0.667   3.836   4.237  0.0714  0.2609 -0.5335
 7030TIP3    H221036   0.539   3.911   4.266  1.0775  1.9265 -0.3090
 7031TIP3   OH221037   5.558   7.607   2.359 -0.2400 -0.1383  0.2063
 7031TIP3    H121038   5.513   7.606   2.443  0.5315 -0.3120  0.6119
 7031TIP3    H221039   5.534   7.692   2.321 -0.2560  0.1140  0.7767
 7032TIP3   OH221040   8.120   4.450   4.896  0.2607 -0.1922  0.2728
 7032TIP3    H121041   8.091   4.415   4.811 -0.0325  0.3766  0.1340
 7032TIP3    H221042   8.203   4.493   4.877  0.8606 -1.2281  0.5371
 7033TIP3   OH221043   6.706   4.020   3.765  0.6586  0.3527 -0.2612
 7033TIP3    H121044   6.617   3.989   3.747  0.1583  1.3774  0.3744
 7033TIP3    H221045   6.752   3.943   3.797 -0.5380  0.2230  1.2018
 7034TIP3   OH221046   7.531   1.781   3.660  0.2994 -0.5797  0.1536
 7034TIP3    H121047   7.539   1.686   3.655 -0.2270 -0.5771 -0.8852
 7034TIP3    H221048   7.503   1.807   3.572 -0.6812  0.4197  0.7475
 7035TIP3   OH221049   6.409   3.784   2.012  0.3546  0.1932 -0.2373
 7035TIP3    H121050   6.491   3.789   2.061 -0.8118 -0.7356  1.8814
 7035TIP3    H221051   6.418   3.706   1.958  1.3482  0.7766 -0.9203
 7036TIP3   OH221052   7.939   3.093   6.917  0.0139  0.2857 -0.1031
 7036TIP3    H121053   7.903   3.064   6.833  0.1606  0.1225 -0.1114
 7036TIP3    H221054   7.970   3.182   6.901 -1.5112  0.9021  0.2253
 7037TIP3   OH221055   7.402   2.426   4.423  0.5628  0.1774  0.3089
 7037TIP3    H121056   7.370   2.337   4.440  0.8542 -0.2440 -1.2209
 7037TIP3    H221057   7.385   2.439   4.329  1.8248  1.1979  0.2141
 7038TIP3   OH221058   0.088   4.238   4.488 -0.1023 -0.1802  0.6644
 7038TIP3    H121059   0.078   4.151   4.447 -0.4213 -0.3749  1.1566
 7038TIP3    H221060   0.123   4.293   4.418  0.6993 -0.8568  0.5199
 7039TIP3   OH221061   0.418   1.165   5.277  0.2111  0.5473 -0.0537
 7039TIP3    H121062   0.371   1.083   5.264 -0.0006  0.6385  0.1408
 7039TIP3    H221063   0.460   1.182   5.193  1.4555 -0.5209  0.3417
 7040TIP3   OH221064   8.441   2.052   1.212  0.4529  0.1035  0.1407
 7040TIP3    H121065   8.349   2.068   1.237  0.4386 -2.6227  2.0165
 7040TIP3    H221066   8.445   2.076   1.120 -1.8166  1.5431  0.3671
 7041TIP3   OH221067   0.374   4.078   4.440  0.5299  0.1006  0.4872
 7041TIP3    H121068   0.421   4.016   4.496 -2.8863 -2.6190  0.5221
 7041TIP3    H221069   0.363   4.032   4.357 -0.8712  1.1828  0.0474
 7042TIP3   OH221070   0.273   2.143   4.037  0.2872 -0.0135  0.2990
 7042TIP3    H121071   0.240   2.225   4.074  1.2702  0.3838  0.3197
 7042TIP3    H221072   0.368   2.151   4.043  0.3641 -1.5625  1.1466
 7043TIP3   OH221073   7.794   2.925   4.744 -0.3669  0.6530 -0.3168
 7043TIP3    H121074   7.871   2.975   4.716 -0.6610  1.7190  0.7304
 7043TIP3    H221075   7.723   2.956   4.688 -0.2618  0.4299 -0.5738
 7044TIP3   OH221076   1.398   3.526   4.887 -0.3099 -0.1645  0.3484
 7044TIP3    H121077   1.449   3.489   4.959 -0.7276  0.1081  0.7857
 7044TIP3    H221078   1.410   3.463   4.815  0.3349 -0.2947  0.5617
 7045TIP3   OH221079   7.457   2.388   3.421  0.5438 -0.3675  0.3212
 7045TIP3    H121080   7.446   2.483   3.420  0.3135 -0.3898  0.5270
 7045TIP3    H221081   7.431   2.363   3.510  2.7668 -0.3723  0.9958
 7046TIP3   OH221082  -0.011   2.660   2.821  0.4493 -0.2441 -0.0714
 7046TIP3    H121083   0.076   2.657   2.780  0.4872  1.1649 -0.1055
 7046TIP3    H221084  -0.025   2.571   2.853  1.8202 -0.5340 -0.2430
 7047TIP3   OH221085   0.762   1.624   2.563 -0.5173  0.4588  0.6389
 7047TIP3    H121086   0.771   1.709   2.520 -1.0570  0.5986  0.7968
 7047TIP3    H221087   0.667   1.608   2.565 -0.4024 -0.3404  0.2251
 7048TIP3   OH221088   0.406   3.034   4.367  0.3486  0.1163 -0.2466
 7048TIP3    H121089   0.405   2.938   4.364 -0.8992  0.1394 -1.0800
 7048TIP3    H221090   0.319   3.058   4.398  0.3823  0.9977 -0.8189
 7049TIP3   OH221091   7.253   2.988   2.195 -0.5039  0.3103 -0.1222
 7049TIP3    H121092   7.185   2.998   2.128 -0.2457  1.5640 -0.2045
 7049TIP3    H221093   7.310   3.064   2.183  0.5784 -0.4315  0.3327
 7050TIP3   OH221094   5.513   3.240   5.511  0.1648  0.0184  0.2446
 7050TIP3    H121095   5.445   3.307   5.508  0.4267  0.2020 -1.9497
 7050TIP3    H221096   5.593   3.286   5.488  0.7372 -0.5852  1.0035
 7051TIP3   OH221097   7.941   1.852   6.065 -0.3467 -0.3304 -0.1242
 7051TIP3    H121098   7.963   1.906   6.141 -0.0203  0.3297 -0.6799
 7051TIP3    H221099   7.953   1.762   6.095 -0.9213 -0.0948  0.8161
 7052TIP3   OH221100   0.268   2.149   1.279  0.3794 -0.1406  0.6059
 7052TIP3    H121101   0.286   2.141   1.372  0.6876  0.5866  0.6170
 7052TIP3    H221102   0.309   2.071   1.240 -2.8223 -2.3273  1.4512
 7053TIP3   OH221103   6.688   2.961   1.238 -0.4786  0.0984 -0.3481
 7053TIP3    H121104   6.647   2.878   1.216 -0.6856  0.6234 -2.0248
 7053TIP3    H221105   6.690   3.010   1.155 -2.1093  2.5174  0.9623
 7054TIP3   OH221106   8.171   3.133   3.141 -0.1398 -0.2160  0.3544
 7054TIP3    H121107   8.145   3.053   3.096 -0.8929  0.7238 -0.9438
 7054TIP3    H221108   8.092   3.162   3.187  0.5715 -1.0583  2.1589
 7055TIP3   OH221109   8.343   4.032   3.479  0.3893 -0.5752  0.1124
 7055TIP3    H121110   8.251   4.005   3.480  0.3796 -0.5771 -0.6224
 7055TIP3    H221111   8.370   4.023   3.388  1.3266 -1.2563  0.4387
 7056TIP3   OH221112   5.871   1.427   3.717  0.8503  0.3835  0.6563
 7056TIP3    H121113   5.891   1.338   3.688  1.4590  0.2959  1.3147
 7056TIP3    H221114   5.786   1.447   3.678  0.5192 -0.6382  0.8354
 7057TIP3   OH221115   6.606   0.197   4.645  0.3545 -0.5469 -0.0353
 7057TIP3    H121116   6.532   0.222   4.589  0.0383 -0.5344  0.3906
 7057TIP3    H221117   6.611   0.266   4.711 -0.4273 -1.5126  1.0575
 7058TIP3   OH221118   5.624   2.052   3.129 -0.6715  0.5626  0.3753
 7058TIP3    H121119   5.578   2.029   3.048 -0.0337  0.3629  0.0700
 7058TIP3    H221120   5.616   2.148   3.134  1.3026  0.8435 -1.1579
 7059TIP3   OH221121   6.532   0.192   5.041  0.0375  0.0674 -0.1128
 7059TIP3    H121122   6.448   0.159   5.073 -0.6452  1.2235 -0.6501
 7059TIP3    H221123   6.592   0.179   5.114 -0.6721 -0.5201  0.3806
 7060TIP3   OH221124   0.522   4.948   4.425 -0.4984 -0.3127  0.5737
 7060TIP3    H121125   0.517   4.932   4.331 -0.1822 -0.1514  0.5279
 7060TIP3    H221126   0.491   4.867   4.465 -1.4042 -0.0914  0.3286
 7061TIP3   OH221127   4.952   3.870   4.133  0.5506 -0.4581 -0.2665
 7061TIP3    H121128   5.008   3.851   4.208  0.9549  2.2215  0.1943
 7061TIP3    H221129   4.889   3.935   4.166  1.5762  1.7811 -2.5196
 7062TIP3   OH221130   8.003   5.629   5.822  0.3232 -0.0981 -0.5551
 7062TIP3    H121131   7.961   5.583   5.749  0.0042 -2.1028  0.8421
 7062TIP3    H221132   7.965   5.717   5.819 -0.4788 -0.4627 -2.1427
 7063TIP3   OH221133   5.878   4.027   4.912 -0.0097  0.4171  0.5055
 7063TIP3    H121134   5.883   4.116   4.877  1.6692  0.8039  1.6816
 7063TIP3    H221135   5.900   4.036   5.004  1.2892 -1.3909  0.3963
 7064TIP3   OH221136   8.224   3.138   3.856  0.3892  0.1524 -0.1969
 7064TIP3    H121137   8.223   3.188   3.937  0.7224  2.3768 -1.5306
 7064TIP3    H221138   8.313   3.105   3.850  0.9353  1.6808 -0.6552
 7065TIP3   OH221139   7.396   2.531   4.170  0.2274  0.2523 -0.4646
 7065TIP3    H121140   7.387   2.536   4.075 -3.0038  0.2306 -0.2193
 7065TIP3    H221141   7.375   2.619   4.202 -0.5258 -0.2024  0.3292
 7066TIP3   OH221142   5.912   2.991   4.020 -0.3170 -0.1958  0.0715
 7066TIP3    H121143   5.833   3.043   4.003 -0.4570 -0.6294 -0.6609
 7066TIP3    H221144   5.883   2.900   4.012  0.5928 -0.3422 -1.8757
 7067TIP3   OH221145   6.876   3.544   3.660  0.0265  0.3534  0.0170
 7067TIP3    H121146   6.872   3.531   3.755 -2.3616  1.3042  0.0619
 7067TIP3    H221147   6.789   3.521   3.629  1.1675 -1.2015 -2.1404
 7068TIP3   OH221148   8.137   2.893   3.911 -0.0050  0.1930  0.3677
 7068TIP3    H121149   8.198   2.826   3.882  0.4803  0.6595  0.3094
 7068TIP3    H221150   8.174   2.975   3.879  0.3910  0.6916  2.0825
 7069TIP3   OH221151   6.343   1.181   5.345  0.4186 -0.3079 -0.3584
 7069TIP3    H121152   6.261   1.182   5.395  0.7701  0.3931  0.2113
 7069TIP3    H221153   6.316   1.162   5.255 -0.4358  0.5815 -0.2905
 7070TIP3   OH221154   6.394   1.413   2.657 -0.4633  0.4253  0.3468
 7070TIP3    H121155   6.469   1.369   2.617 -0.9348  1.1312 -1.3842
 7070TIP3    H221156   6.410   1.506   2.642 -0.7649  0.6979  1.6449
 7071TIP3   OH221157   8.196   2.011   6.497 -0.6522  0.0619  0.4430
 7071TIP3    H121158   8.165   2.091   6.540  1.8357  1.0014  0.5698
 7071TIP3    H221159   8.290   2.009   6.515 -0.6800 -2.9104  0.4321
 7072TIP3   OH221160   7.518   3.593   4.689  0.3817 -0.1011 -0.0710
 7072TIP3    H121161   7.604   3.628   4.668 -0.4431  2.1130  0.0724
 7072TIP3    H221162   7.526   3.559   4.778  0.4924  2.2911  0.8452
 7073TIP3   OH221163   7.855   1.221   3.036  0.4650  0.0636  0.1202
 7073TIP3    H121164   7.949   1.236   3.050  0.4943  2.2101 -2.1491
 7073TIP3    H221165   7.812   1.286   3.092  0.4145  1.3758 -1.4105
 7074TIP3   OH221166   0.436   1.458   1.277 -0.3782  0.0105  0.2148
 7074TIP3    H121167   0.469   1.460   1.367  1.8439 -0.0879 -0.5666
 7074TIP3    H221168   0.427   1.550   1.253 -0.4459  0.0403  0.3550
 7075TIP3   OH221169   0.056   3.881   3.588  0.6916  0.6546  0.2773
 7075TIP3    H121170  -0.022   3.921   3.549  0.9258  1.0484  0.2101
 7075TIP3    H221171   0.072   3.804   3.534  0.7150  0.9179 -0.0964
 7076TIP3   OH221172   8.178   4.914   3.835 -0.2765  0.1345 -0.1788
 7076TIP3    H121173   8.272   4.933   3.833 -0.0701 -0.7445  0.5964
 7076TIP3    H221174   8.165   4.852   3.763 -0.4529  1.0894 -0.9646
 7077TIP3   OH221175   6.911   2.323   5.056 -0.0452 -0.5095  0.5420
 7077TIP3    H121176   6.929   2.312   4.963 -1.2781 -1.5792  0.4203
 7077TIP3    H221177   6.821   2.356   5.059 -0.2217 -1.0618  1.3856
 7078TIP3   OH221178   7.061   3.061   3.411 -0.3965  0.6090  0.4029
 7078TIP3    H121179   6.989   3.101   3.459 -0.4103 -0.9120  1.6736
 7078TIP3    H221180   7.019   3.011   3.341 -0.5393  0.4589  0.5948
 7079TIP3   OH221181   5.425   2.206   2.957 -0.8763  0.0087  0.2826
 7079TIP3    H121182   5.468   2.124   2.932 -1.1687 -0.0670  0.0375
 7079TIP3    H221183   5.496   2.270   2.961 -0.7574 -0.0945 -0.2215
 7080TIP3   OH221184   5.569   3.920   2.497 -0.3797 -0.0909  0.1776
 7080TIP3    H121185   5.579   3.878   2.412 -1.0320 -1.7482  0.8912
 7080TIP3    H221186   5.654   3.912   2.539 -0.8522 -1.9418  0.8365
 7081TIP3   OH221187   7.603   4.922   4.820 -0.2830 -0.5967 -0.3227
 7081TIP3    H121188   7.554   4.875   4.753  1.7995 -1.9682 -0.9241
 7081TIP3    H221189   7.608   4.860   4.894 -0.4505 -0.0321  0.1647
 7082TIP3   OH221190   7.005   3.168   5.099 -0.2054 -0.0976 -0.7139
 7082TIP3    H121191   7.067   3.095   5.093  0.2266  0.2829 -0.8510
 7082TIP3    H221192   6.927   3.129   5.140 -0.2842 -0.8307 -1.5464
 7083TIP3   OH221193   6.764   3.378   4.728 -0.3202 -0.1373 -0.2817
 7083TIP3    H121194   6.707   3.379   4.805  1.8615  0.8471  1.3543
 7083TIP3    H221195   6.851   3.358   4.762  0.4769 -1.0102 -2.6704
 7084TIP3   OH221196   7.950   0.971   2.636  0.7858 -0.0645 -0.1906
 7084TIP3    H121197   8.013   0.921   2.688  1.0883  0.7517  0.2378
 7084TIP3    H221198   7.944   1.056   2.681  0.1671  0.2306 -0.8220
 7085TIP3   OH221199   7.741   4.074   3.263 -0.3557 -0.4085 -0.0597
 7085TIP3    H121200   7.787   3.992   3.282 -1.2263 -0.7327  0.6436
 7085TIP3    H221201   7.795   4.141   3.304  0.8209 -0.5339 -1.3682
 7086TIP3   OH221202   8.123   1.695   3.951  0.4985 -0.1861  0.6237
 7086TIP3    H121203   8.081   1.646   3.880  1.6189 -0.5286  0.1805
 7086TIP3    H221204   8.188   1.634   3.987  0.4580  0.2504  1.4513
 7087TIP3   OH221205   7.911   2.537   2.578 -0.3656 -0.1211  1.0080
 7087TIP3    H121206   7.869   2.503   2.657  0.6346 -0.0930  1.5592
 7087TIP3    H221207   7.944   2.459   2.533  0.0922 -0.0374  1.2057
 7088TIP3   OH221208   0.357   3.660   3.745 -0.3560  0.2002  0.0585
 7088TIP3    H121209   0.336   3.573   3.711 -0.4162  0.3906 -0.3956
 7088TIP3    H221210   0.380   3.711   3.667 -1.5602  0.9425  0.1738
 7089TIP3   OH221211   8.291   1.543   2.417 -0.5555  0.1096  0.1650
 7089TIP3    H121212   8.206   1.500   2.424  0.6478 -2.5631 -1.1793
 7089TIP3    H221213   8.336   1.520   2.498 -0.1183 -0.7306 -0.3107
 7090TIP3   OH221214   5.531   6.087   4.168  0.2985  0.3469 -0.2721
 7090TIP3    H121215   5.569   6.084   4.080  0.5553  2.2514 -0.2525
 7090TIP3    H221216   5.453   6.033   4.163  1.3400 -1.1164 -1.1483
 7091TIP3   OH221217   6.372   4.395   4.055  0.3989  0.0279  0.7262
 7091TIP3    H121218   6.454   4.349   4.038  0.0674  0.1463 -1.4044
 7091TIP3    H221219   6.399   4.481   4.086  1.1243  0.3111 -0.6324
 7092TIP3   OH221220   7.610   3.426   3.429 -0.1457  0.2492  0.6772
 7092TIP3    H121221   7.518   3.425   3.455 -0.1017  2.0329  1.0170
 7092TIP3    H221222   7.658   3.421   3.512  0.0498  0.6610  0.5893
 7093TIP3   OH221223   7.604   5.339   1.663 -0.1321  0.1521  0.8432
 7093TIP3    H121224   7.686   5.296   1.639 -2.2868 -2.4353 -2.3308
 7093TIP3    H221225   7.594   5.409   1.598 -1.5570 -1.0723 -0.2902
 7094TIP3   OH221226   8.172   4.346   2.480  0.1506 -0.1591  0.2806
 7094TIP3    H121227   8.218   4.264   2.496 -0.9224 -0.9588 -0.7140
 7094TIP3    H221228   8.205   4.376   2.396 -1.2213 -0.8002 -0.4983
 7095TIP3   OH221229   7.276   5.138   3.634 -0.1465  0.4953 -0.2506
 7095TIP3    H121230   7.231   5.157   3.716 -2.3539  1.4026 -1.6240
 7095TIP3    H221231   7.213   5.163   3.566  1.5322 -0.4975 -2.2154
 7096TIP3   OH221232   7.152   3.689   1.543  0.2275 -0.6392 -0.1382
 7096TIP3    H121233   7.156   3.722   1.453 -0.4068 -2.6398 -0.9343
 7096TIP3    H221234   7.239   3.655   1.560 -0.1077 -1.7618 -0.6112
 7097TIP3   OH221235   7.319   4.569   2.727  0.1249  0.4456 -0.0921
 7097TIP3    H121236   7.341   4.566   2.634  0.7083  0.9796  0.0274
 7097TIP3    H221237   7.370   4.497   2.766 -0.8256 -0.3687 -0.3244
 7098TIP3   OH221238   0.401   3.403   2.561  0.4134  0.3388  0.3008
 7098TIP3    H121239   0.494   3.424   2.550 -0.0338  1.3255 -1.8358
 7098TIP3    H221240   0.395   3.310   2.539  0.9374  0.2138  0.6807
 7099TIP3   OH221241   0.953   1.484   2.989 -0.2121  0.3813  0.5489
 7099TIP3    H121242   0.978   1.393   2.973 -2.2009  0.2891 -2.6040
 7099TIP3    H221243   1.030   1.535   2.964  0.5639 -0.3765  1.3770
 7100TIP3   OH221244   6.699   1.461   2.979 -0.0377  0.0994  0.2734
 7100TIP3    H121245   6.765   1.449   3.047 -0.6359 -1.1899  0.6569
 7100TIP3    H221246   6.615   1.460   3.027 -0.5518 -2.2354 -0.5877
 7101TIP3   OH221247   6.554   4.681   1.784 -0.2346  0.4113 -0.1731
 7101TIP3    H121248   6.561   4.628   1.863 -0.1637 -1.4165 -1.3614
 7101TIP3    H221249   6.537   4.770   1.815  1.3303 -0.0011  1.9173
 7102TIP3   OH221250   6.198   1.747   5.074  0.7634  0.0319  0.2169
 7102TIP3    H121251   6.127   1.703   5.027  1.6606 -2.0980  0.7909
 7102TIP3    H221252   6.262   1.769   5.006 -0.3489  1.8428 -0.2833
 7103TIP3   OH221253   0.052   4.986   2.840  0.0664  0.4084 -0.0232
 7103TIP3    H121254  -0.013   4.952   2.902  0.2093 -0.9013 -0.5767
 7103TIP3    H221255   0.002   5.002   2.760  0.3507 -0.2673 -0.3398
 7104TIP3   OH221256   7.069   2.598   5.361  0.0148  0.0524  0.2672
 7104TIP3    H121257   7.125   2.542   5.415  0.4271 -0.0550 -0.2702
 7104TIP3    H221258   7.102   2.686   5.377 -1.1874  0.2555  1.7880
 7105TIP3   OH221259   0.454   3.378   6.378 -0.4635  0.2227 -0.3576
 7105TIP3    H121260   0.454   3.461   6.329 -0.4172  0.7390  0.5083
 7105TIP3    H221261   0.542   3.372   6.415 -1.1928  0.9722  1.5435
 7106TIP3   OH221262   7.935   3.800   1.855  0.2558  0.3528 -0.2638
 7106TIP3    H121263   8.022   3.792   1.817  0.6370  1.0522  0.4666
 7106TIP3    H221264   7.913   3.711   1.884  0.7047  0.1696 -0.4857
 7107TIP3   OH221265   2.315   2.183   5.027 -0.0685  0.1627  0.3744
 7107TIP3    H121266   2.273   2.139   4.954  2.2671 -2.1667  0.3817
 7107TIP3    H221267   2.345   2.266   4.991 -0.8332 -0.0322 -0.7294
 7108TIP3   OH221268   7.422   4.717   5.893 -0.1575  0.2235 -1.0555
 7108TIP3    H121269   7.470   4.778   5.837 -2.6082  0.4797 -2.9855
 7108TIP3    H221270   7.484   4.645   5.909  1.4685  1.3950 -1.9305
 7109TIP3   OH221271   0.657   4.451   5.516 -0.1556 -0.3784 -0.3973
 7109TIP3    H121272   0.644   4.382   5.451  0.7162  0.0047 -0.9858
 7109TIP3    H221273   0.607   4.526   5.482 -1.5063 -0.8488  0.4848
 7110TIP3   OH221274   0.574   3.809   5.481 -0.8320 -0.4529  0.4911
 7110TIP3    H121275   0.614   3.895   5.469  1.2973 -1.4401  0.1842
 7110TIP3    H221276   0.638   3.748   5.444 -1.0432 -2.3667  3.1335
 7111TIP3   OH221277   7.991   3.235   3.384  0.1334  0.3200  0.1276
 7111TIP3    H121278   8.023   3.325   3.374 -2.9110  1.5542  0.8971
 7111TIP3    H221279   8.038   3.201   3.460  0.6517  1.5835  0.3796
 7112TIP3   OH221280   1.501   3.267   4.756  0.1117 -0.5685 -0.3321
 7112TIP3    H121281   1.468   3.258   4.667 -0.9727  0.1539 -0.0214
 7112TIP3    H221282   1.584   3.314   4.746  1.2850 -2.7789 -1.1634
 7113TIP3   OH221283   7.355   4.905   6.396  0.0906 -0.1421  0.0119
 7113TIP3    H121284   7.282   4.906   6.459  0.6079  0.1756  0.6190
 7113TIP3    H221285   7.314   4.920   6.311 -0.7106 -1.3695  0.1680
 7114TIP3   OH221286   8.080   3.378   4.476  0.0816 -0.1868  1.0498
 7114TIP3    H121287   8.089   3.285   4.453  0.4106  0.2664 -0.7915
 7114TIP3    H221288   8.155   3.396   4.533  1.2894 -0.5608 -0.3563
 7115TIP3   OH221289   2.059   3.135   5.172 -0.2547  0.5264 -0.0238
 7115TIP3    H121290   2.024   3.128   5.083 -0.2333  1.2369 -0.0915
 7115TIP3    H221291   2.021   3.060   5.218  0.6697 -0.5094 -0.9387
 7116TIP3   OH221292   4.144   3.198   4.108  0.1636  0.2510  0.4247
 7116TIP3    H121293   4.051   3.178   4.103  0.1427  0.5616 -0.6634
 7116TIP3    H221294   4.157   3.234   4.196 -0.5415 -0.7728  0.9432
 7117TIP3   OH221295   1.716   3.633   4.455 -0.4343 -0.0058 -0.0348
 7117TIP3    H121296   1.809   3.617   4.472 -0.4370  3.4117  3.8559
 7117TIP3    H221297   1.672   3.558   4.495  0.5685 -1.7668 -2.0959
 7118TIP3   OH221298   3.201   3.232   5.467 -0.2973 -0.3593 -0.1853
 7118TIP3    H121299   3.271   3.265   5.411 -0.1634 -0.3895 -0.0400
 7118TIP3    H221300   3.244   3.218   5.552 -0.0081 -2.2861 -0.6242
 7119TIP3   OH221301   1.003   3.420   6.000  0.6033 -0.0093  0.0579
 7119TIP3    H121302   1.020   3.361   5.926 -0.2416 -0.6969  0.4022
 7119TIP3    H221303   1.089   3.432   6.041  0.8291 -0.7847 -0.1748
 7120TIP3   OH221304   0.595   5.613   6.226  0.4055 -0.2747 -0.3503
 7120TIP3    H121305   0.531   5.552   6.188 -0.0735  1.5354 -2.5159
 7120TIP3    H221306   0.552   5.647   6.305 -1.2023  0.6925 -1.6147
 7121TIP3   OH221307   0.970   1.337   4.766  0.4489  0.7074  0.0002
 7121TIP3    H121308   0.888   1.288   4.764  1.6392 -1.3440  0.1642
 7121TIP3    H221309   0.970   1.386   4.683 -0.1974 -0.5366 -0.7482
 7122TIP3   OH221310   1.402   4.073   5.820  0.6655  0.1177 -0.1202
 7122TIP3    H121311   1.434   4.113   5.900 -0.5706  0.8120  0.0548
 7122TIP3    H221312   1.309   4.056   5.837  0.3929  0.2502 -1.3739
 7123TIP3   OH221313   1.044   4.030   3.662 -0.2545  0.3159  0.1467
 7123TIP3    H121314   1.033   4.125   3.660  0.8140  0.4311 -0.7374
 7123TIP3    H221315   1.022   4.006   3.751 -0.7530  1.3758  0.3211
 7124TIP3   OH221316   3.367   7.053   0.752  0.2148  0.2621  0.0434
 7124TIP3    H121317   3.345   6.970   0.794  1.4214  0.0308  0.2279
 7124TIP3    H221318   3.460   7.045   0.730  0.1730  1.3062 -0.5329
 7125TIP3   OH221319   1.120   3.397   4.708  0.4232  0.3288 -0.7217
 7125TIP3    H121320   1.122   3.441   4.623  1.4306  2.6597  0.4402
 7125TIP3    H221321   1.119   3.469   4.771 -1.4640 -1.3470  1.2410
 7126TIP3   OH221322   1.841   3.596   5.590 -0.5862 -0.5474  0.4041
 7126TIP3    H121323   1.881   3.621   5.507 -0.5692 -1.5533  0.0985
 7126TIP3    H221324   1.880   3.511   5.610  0.0236  0.0711  1.8645
 7127TIP3   OH221325   8.412   5.181   5.961  0.0812  0.1371  0.5525
 7127TIP3    H121326   8.331   5.228   5.943  0.5392  0.0922 -1.8241
 7127TIP3    H221327   8.395   5.134   6.043 -1.0629  2.8083  1.8747
 7128TIP3   OH221328   0.547   5.349   5.016  0.0470 -0.2084  0.0865
 7128TIP3    H121329   0.605   5.392   4.953 -0.6012 -0.4056 -0.6535
 7128TIP3    H221330   0.460   5.352   4.975 -0.1562 -1.4727  0.4025
 7129TIP3   OH221331   1.754   3.318   5.837 -0.3524  0.3813 -0.0426
 7129TIP3    H121332   1.728   3.240   5.787 -0.1215  0.4974 -0.3369
 7129TIP3    H221333   1.699   3.314   5.916 -0.2993 -0.1141 -0.0267
 7130TIP3   OH221334   1.531   2.845   6.761 -0.6542  0.5024 -0.5561
 7130TIP3    H121335   1.580   2.928   6.760 -0.2541  0.3504  1.9728
 7130TIP3    H221336   1.439   2.872   6.766 -0.6746  0.7814 -2.1590
 7131TIP3   OH221337   0.091   3.543   3.969 -0.2310  0.6932 -0.5731
 7131TIP3    H121338   0.045   3.545   3.885  2.2507  1.4166 -1.9420
 7131TIP3    H221339   0.086   3.633   4.001 -1.3206  0.3830  0.1603
 7132TIP3   OH221340   7.495   4.555   2.410 -0.0216  0.1905  0.0011
 7132TIP3    H121341   7.460   4.515   2.331 -0.1789 -1.3606  0.8428
 7132TIP3    H221342   7.567   4.498   2.436  0.7433  1.3066  0.3666
 7133TIP3   OH221343   2.895   4.759   4.556  0.8985 -0.7211 -0.2526
 7133TIP3    H121344   2.838   4.830   4.525  0.1642 -1.1395  0.1155
 7133TIP3    H221345   2.978   4.802   4.574  1.0619 -0.3060 -1.9177
 7134TIP3   OH221346   1.578   4.220   4.088 -0.1862  0.4213 -0.0555
 7134TIP3    H121347   1.633   4.165   4.031 -1.4051  0.0443 -0.9058
 7134TIP3    H221348   1.495   4.171   4.094 -1.2154  2.0618 -0.6520
 7135TIP3   OH221349   0.476   3.886   4.610 -0.1204 -0.3650  0.3958
 7135TIP3    H121350   0.441   3.817   4.666 -0.4137  0.2161  0.9350
 7135TIP3    H221351   0.558   3.850   4.576  0.8775 -0.1178  2.4833
 7136TIP3   OH221352   3.228   6.020   0.293  0.2251 -0.0529  0.1436
 7136TIP3    H121353   3.195   5.934   0.319 -0.7613  0.0424 -0.7824
 7136TIP3    H221354   3.257   6.060   0.375  0.9586 -1.3739  0.5561
 7137TIP3   OH221355   2.256   4.006   3.772  0.0142 -1.1222  0.5292
 7137TIP3    H121356   2.234   4.035   3.860  0.3834 -0.4079  0.3856
 7137TIP3    H221357   2.243   3.911   3.774  0.6641 -1.1916  1.5382
 7138TIP3   OH221358   8.494   4.666   4.715  0.0278  0.1376  0.1273
 7138TIP3    H121359   8.483   4.728   4.643  0.9404 -0.8798 -0.9207
 7138TIP3    H221360   8.472   4.581   4.676 -2.0628 -0.1114  1.7642
 7139TIP3   OH221361   7.772   3.860   3.630 -0.2878 -0.2538 -0.2753
 7139TIP3    H121362   7.817   3.934   3.671 -0.6318  1.7916 -3.4418
 7139TIP3    H221363   7.680   3.885   3.631 -0.4095 -0.6458 -1.3245
 7140TIP3   OH221364   7.385   5.053   5.445 -0.3475  0.4628  0.1049
 7140TIP3    H121365   7.323   5.121   5.417  0.6938  1.2943 -0.2267
 7140TIP3    H221366   7.369   5.043   5.539 -2.6535 -1.0867 -0.4274
 7141TIP3   OH221367   0.080   3.304   4.857 -0.3191  0.7583  0.8461
 7141TIP3    H121368   0.175   3.312   4.871 -0.1658  0.0483  0.2912
 7141TIP3    H221369   0.066   3.337   4.768 -0.1922 -1.5652 -0.0802
 7142TIP3   OH221370   2.230   5.649   4.488 -0.1361  0.2785  0.4191
 7142TIP3    H121371   2.289   5.599   4.544  1.1871 -1.6556 -2.5928
 7142TIP3    H221372   2.287   5.710   4.441 -0.6945 -0.5947 -1.4433
 7143TIP3   OH221373   0.093   4.028   4.262  0.0020  0.5156  0.8727
 7143TIP3    H121374   0.075   4.082   4.185 -2.4746 -2.2519 -0.5754
 7143TIP3    H221375   0.159   3.966   4.232  0.3296  0.5473  1.5293
 7144TIP3   OH221376   1.978   5.569   5.759 -0.5292 -0.3845 -0.0379
 7144TIP3    H121377   1.992   5.481   5.722 -1.7416 -0.4682 -0.3231
 7144TIP3    H221378   1.899   5.600   5.715 -0.0393  0.9021 -0.0071
 7145TIP3   OH221379   7.470   4.252   5.012 -0.1651  0.2819 -0.6694
 7145TIP3    H121380   7.511   4.171   4.981  0.5996  0.2637  0.3602
 7145TIP3    H221381   7.388   4.224   5.053 -0.1837  0.0980 -0.8309
 7146TIP3   OH221382   0.782   4.890   4.826  0.0589  0.1191  0.1454
 7146TIP3    H121383   0.690   4.881   4.803 -0.0782  1.9276 -0.0535
 7146TIP3    H221384   0.784   4.885   4.922 -0.4970  2.0983  0.2781
 7147TIP3   OH221385   0.107   3.290   5.504 -0.0588 -0.2418 -0.9716
 7147TIP3    H121386   0.193   3.248   5.506  0.5220  0.9812  0.5716
 7147TIP3    H221387   0.121   3.373   5.459 -0.2366  0.3366  0.0178
 7148TIP3   OH221388   8.337   3.970   4.244  0.5820 -0.1284  0.5644
 7148TIP3    H121389   8.420   4.007   4.276  0.1699  0.3147  1.1273
 7148TIP3    H221390   8.289   3.947   4.323  0.0618 -0.1543  0.2416
 7149TIP3   OH221391   7.485   4.574   4.108  0.0100  0.4500 -0.1165
 7149TIP3    H121392   7.437   4.526   4.041  0.3050 -0.1858  0.1316
 7149TIP3    H221393   7.537   4.638   4.058 -2.1256  2.0986 -0.3194
 7150TIP3   OH221394   1.351   6.697   4.221 -0.4570  0.2035  0.2932
 7150TIP3    H121395   1.300   6.619   4.245  1.3637 -0.8289  0.9405
 7150TIP3    H221396   1.302   6.736   4.149 -2.3874 -0.5016  1.1675
 7151TIP3   OH221397   8.196   5.905   4.480  0.0144  0.3663  0.6100
 7151TIP3    H121398   8.134   5.843   4.520 -0.1258  0.1357  0.0391
 7151TIP3    H221399   8.277   5.854   4.470 -0.0798  0.2969  0.2087
 7152TIP3   OH221400   1.235   2.349   3.254 -0.3022  0.1561  0.2526
 7152TIP3    H121401   1.307   2.383   3.308  1.2925 -0.7153 -1.2550
 7152TIP3    H221402   1.190   2.427   3.223  0.2765  0.7386  0.8530
 7153TIP3   OH221403   8.009   4.606   2.985 -0.4361  0.3372 -0.8959
 7153TIP3    H121404   8.056   4.603   2.902  1.5676  1.2902  0.1563
 7153TIP3    H221405   7.928   4.558   2.969 -1.3243  2.7304 -4.1537
 7154TIP3   OH221406   0.933   1.760   6.018 -0.7238  0.9224  0.0319
 7154TIP3    H121407   0.838   1.766   6.019 -0.9447 -1.7865  1.8751
 7154TIP3    H221408   0.952   1.694   5.951 -0.3051 -0.1121  1.1486
 7155TIP3   OH221409   1.509   4.265   5.997 -0.1213  0.2281 -0.1846
 7155TIP3    H121410   1.594   4.237   5.962  1.2592  1.3888  2.0828
 7155TIP3    H221411   1.493   4.350   5.957 -0.2659 -0.0205 -0.6633
 7156TIP3   OH221412   1.458   1.581   5.689  0.8264 -0.5478 -0.0134
 7156TIP3    H121413   1.486   1.531   5.613  2.1659  1.4142 -0.8173
 7156TIP3    H221414   1.400   1.648   5.654  2.5329  1.2207  0.5184
 7157TIP3   OH221415   1.817   3.622   4.810 -0.0740  0.1790 -0.9654
 7157TIP3    H121416   1.881   3.649   4.875 -0.5419  0.1529 -0.4848
 7157TIP3    H221417   1.791   3.703   4.766  0.9377  0.0709 -1.7642
 7158TIP3   OH221418   1.158   2.508   6.356  0.3111 -0.0032  0.1070
 7158TIP3    H121419   1.180   2.599   6.339  1.1828 -0.3441 -0.6228
 7158TIP3    H221420   1.136   2.506   6.449 -2.7012  1.5257 -0.5178
 7159TIP3   OH221421   0.563   5.072   3.550  0.2015 -0.3600  0.0576
 7159TIP3    H121422   0.574   5.076   3.645  0.1774 -0.3757  0.0608
 7159TIP3    H221423   0.584   4.982   3.527 -0.2850 -0.4832  0.1057
 7160TIP3   OH221424   0.301   3.201   6.690  0.2979  0.2482  0.2661
 7160TIP3    H121425   0.396   3.193   6.687  0.3385  0.2060  1.4587
 7160TIP3    H221426   0.284   3.263   6.761 -0.5499  0.6821 -0.2988
 7161TIP3   OH221427   0.784   4.567   6.340 -0.0503  0.0751 -0.2731
 7161TIP3    H121428   0.783   4.662   6.345  0.0470  0.0948 -0.6183
 7161TIP3    H221429   0.876   4.543   6.353 -0.1192  0.0091  0.1132
 7162TIP3   OH221430   3.960   5.632   5.252  0.5984 -0.0072 -0.0037
 7162TIP3    H121431   4.000   5.719   5.256 -0.7070  0.5934  0.5002
 7162TIP3    H221432   3.930   5.624   5.161  0.6639  0.0903 -0.0335
 7163TIP3   OH221433   2.061   2.996   3.975  0.1693  0.0422 -0.6068
 7163TIP3    H121434   2.152   3.016   3.950  0.0559  0.8903 -0.3762
 7163TIP3    H221435   2.015   2.984   3.892 -0.0502  2.1234 -0.8183
 7164TIP3   OH221436   8.355   0.570   0.043 -0.7114 -0.0782 -0.5457
 7164TIP3    H121437   8.389   0.580  -0.046  0.3327 -0.4550 -0.1943
 7164TIP3    H221438   8.324   0.658   0.067 -1.3821 -0.0629 -1.4208
 7165TIP3   OH221439   1.362   3.718   4.482 -0.3571  0.2365  0.1092
 7165TIP3    H121440   1.373   3.796   4.427 -0.8053 -0.4522 -0.9613
 7165TIP3    H221441   1.406   3.741   4.564  1.7131  0.6782 -1.0895
 7166TIP3   OH221442   0.779   3.625   5.097  0.4593  0.1586 -0.3244
 7166TIP3    H121443   0.746   3.705   5.138  0.3206 -0.0516 -0.0232
 7166TIP3    H221444   0.874   3.630   5.107  0.4885  0.5295 -0.7582
 7167TIP3   OH221445   7.469   2.900   5.041 -0.4380  0.2198  0.3292
 7167TIP3    H121446   7.458   2.840   4.967 -0.5739 -2.2303  2.2458
 7167TIP3    H221447   7.561   2.927   5.037 -0.1716 -0.7360 -0.1122
 7168TIP3   OH221448   7.085   4.085   4.563  0.0394  0.0401  0.3140
 7168TIP3    H121449   7.077   3.990   4.568  2.4136 -0.1217  1.9735
 7168TIP3    H221450   7.180   4.101   4.555 -0.4479  2.1980 -2.1408
 7169TIP3   OH221451   7.870   4.171   4.281  0.2459 -0.5663  0.3664
 7169TIP3    H121452   7.802   4.219   4.328  1.2495  0.2581  0.9973
 7169TIP3    H221453   7.854   4.190   4.189  0.6460  1.0258  0.6084
 7170TIP3   OH221454   3.844   1.183   5.743 -0.3804  0.0024 -0.0945
 7170TIP3    H121455   3.905   1.179   5.670 -0.6041  0.3365 -0.3026
 7170TIP3    H221456   3.807   1.095   5.748 -0.7388  0.1055 -0.7155
 7171TIP3   OH221457   2.928   5.226   6.281  0.5220  0.4991  0.5067
 7171TIP3    H121458   2.967   5.252   6.365  2.8770 -1.8313  0.2023
 7171TIP3    H221459   2.979   5.275   6.216 -0.1546  0.9849  0.3449
 7172TIP3   OH221460   2.797   5.238   2.986 -0.4561  0.1901  0.0390
 7172TIP3    H121461   2.875   5.238   2.931 -0.8758  0.9618 -0.5815
 7172TIP3    H221462   2.811   5.167   3.049  1.6188  1.5972  1.2041
 7173TIP3   OH221463   0.579   3.557   3.941  0.1530 -0.3870 -0.0355
 7173TIP3    H121464   0.497   3.591   3.906  0.5591  0.2898 -0.3332
 7173TIP3    H221465   0.640   3.558   3.867 -0.0991 -2.6954 -0.3064
 7174TIP3   OH221466   0.827   5.946   6.014  0.5644  0.7732  0.0412
 7174TIP3    H121467   0.853   6.014   5.951 -0.7664  1.5472  0.3266
 7174TIP3    H221468   0.867   5.974   6.096  0.2594  1.0589  0.0937
 7175TIP3   OH221469   0.253   5.488   4.632  0.2221  0.6788  0.8981
 7175TIP3    H121470   0.253   5.572   4.585  1.4172  1.1677  1.7130
 7175TIP3    H221471   0.326   5.439   4.593 -1.5173 -0.6747 -0.7196
 7176TIP3   OH221472   6.371   0.316   0.585  0.3219  0.1160 -0.1818
 7176TIP3    H121473   6.435   0.246   0.572  0.4166  0.1560  0.0622
 7176TIP3    H221474   6.299   0.294   0.526  0.0940 -0.5048  0.3153
 7177TIP3   OH221475   1.820   3.844   5.688  0.0762  0.3197 -0.3910
 7177TIP3    H121476   1.725   3.847   5.699 -0.0376  2.2217 -1.6318
 7177TIP3    H221477   1.838   3.756   5.656 -1.2051 -0.2349  0.3815
 7178TIP3   OH221478   1.162   3.656   4.973 -0.3302 -0.1337  0.0655
 7178TIP3    H121479   1.240   3.623   4.928  0.4372  0.2100  1.1302
 7178TIP3    H221480   1.193   3.682   5.059 -1.9670 -1.6235  1.1282
 7179TIP3   OH221481   1.779   3.928   6.070  0.1871  0.4752 -0.3201
 7179TIP3    H121482   1.775   3.895   6.160  0.7349 -0.7399 -0.7314
 7179TIP3    H221483   1.699   3.980   6.060 -1.1359 -1.4223  0.0799
 7180TIP3   OH221484   1.200   4.649   2.966 -0.0585 -0.1099 -0.3779
 7180TIP3    H121485   1.236   4.701   2.894  0.1234  1.6794  0.9780
 7180TIP3    H221486   1.129   4.702   3.001  0.3319 -0.6217  1.2287
 7181TIP3   OH221487   3.691   1.519   5.702 -0.3825  0.1889 -0.5676
 7181TIP3    H121488   3.635   1.515   5.625  0.9644  2.8239 -1.7394
 7181TIP3    H221489   3.656   1.590   5.754  0.9679  0.9221 -0.6250
 7182TIP3   OH221490   2.435   3.056   4.376  0.1976  0.4448  0.2600
 7182TIP3    H121491   2.370   3.109   4.422 -0.7167 -0.5315  0.0961
 7182TIP3    H221492   2.388   3.022   4.299  1.4337  1.2877 -0.8975
 7183TIP3   OH221493   1.405   5.353   4.313  0.1211 -0.0520  0.0932
 7183TIP3    H121494   1.343   5.337   4.385 -0.4666 -1.1398 -0.6349
 7183TIP3    H221495   1.443   5.267   4.296  1.0967  0.4268 -0.1398
 7184TIP3   OH221496   1.488   3.175   3.280  0.4002 -0.1976  0.2516
 7184TIP3    H121497   1.550   3.124   3.229  1.6993  1.5125  0.0968
 7184TIP3    H221498   1.482   3.259   3.235 -1.7128 -0.1792  0.4950
 7185TIP3   OH221499   7.656   4.646   4.591  0.1106 -0.3291 -0.4589
 7185TIP3    H121500   7.582   4.626   4.534 -0.3647  1.7683 -0.6352
 7185TIP3    H221501   7.616   4.660   4.678  0.0862  2.1460 -0.8329
 7186TIP3   OH221502   8.352   4.847   5.384 -0.0378  0.0169 -0.3569
 7186TIP3    H121503   8.259   4.868   5.377 -0.1438 -0.0935  0.6689
 7186TIP3    H221504   8.362   4.815   5.473  0.7034 -1.3902 -0.9311
 7187TIP3   OH221505   0.213   4.220   5.516  0.2762 -0.1163 -0.6074
 7187TIP3    H121506   0.285   4.233   5.454  0.8608  1.6080  0.3943
 7187TIP3    H221507   0.206   4.303   5.562  0.9742 -1.8644  2.8015
 7188TIP3   OH221508   4.359   6.613   6.921 -0.1321 -0.2038 -0.8067
 7188TIP3    H121509   4.296   6.578   6.858 -0.3914  1.1517 -1.3261
 7188TIP3    H221510   4.343   6.563   7.001 -2.0973  0.3193 -0.8411
 7189TIP3   OH221511   0.637   4.425   2.931 -0.0743  0.1874 -0.0855
 7189TIP3    H121512   0.598   4.422   3.018 -0.7602  0.2589 -0.3916
 7189TIP3    H221513   0.730   4.443   2.947 -0.4623  1.6591  0.5653
 7190TIP3   OH221514   1.866   4.794   5.586  0.0788 -0.2260  0.4139
 7190TIP3    H121515   1.924   4.809   5.511  0.5922  1.2815  1.0963
 7190TIP3    H221516   1.925   4.775   5.659 -0.3833 -0.8484  0.6301
 7191TIP3   OH221517   8.164   4.437   4.583  0.1215 -0.1739 -0.6578
 7191TIP3    H121518   8.125   4.350   4.588 -0.1588 -0.0534 -0.7320
 7191TIP3    H221519   8.096   4.491   4.544 -0.5986  0.6146  1.6201
 7192TIP3   OH221520   3.129   4.597   6.322  0.1128  0.1445  0.2597
 7192TIP3    H121521   3.113   4.663   6.389  0.1868  0.3853  0.0418
 7192TIP3    H221522   3.131   4.646   6.239 -1.4603 -0.3490 -0.0826
 7193TIP3   OH221523   8.101   4.948   4.626 -0.1044  0.3577 -0.4151
 7193TIP3    H121524   8.031   4.940   4.691  0.6124  0.7011  0.3957
 7193TIP3    H221525   8.174   4.988   4.673  1.7194 -2.8032 -0.4279
 7194TIP3   OH221526   0.631   3.505   4.342 -0.1170  0.3334 -0.4272
 7194TIP3    H121527   0.622   3.582   4.286  0.0056  0.5483 -0.1535
 7194TIP3    H221528   0.554   3.507   4.399  0.5793  1.0205  0.5098
 7195TIP3   OH221529   3.146   3.255   6.183 -0.5478 -0.1574  0.2219
 7195TIP3    H121530   3.082   3.272   6.114  1.9097  0.0503 -2.0976
 7195TIP3    H221531   3.188   3.340   6.198 -0.0714 -0.5154  0.9639
 7196TIP3   OH221532   1.252   2.965   6.868 -0.6543 -0.4230 -0.7359
 7196TIP3    H121533   1.226   2.959   6.960  2.7973 -0.8939  0.2967
 7196TIP3    H221534   1.226   3.053   6.842 -3.0951 -0.8303  0.2051
 7197TIP3   OH221535   0.607   2.851   4.150  0.2914  0.3708 -0.4514
 7197TIP3    H121536   0.575   2.924   4.095 -0.8486  0.4497  0.2914
 7197TIP3    H221537   0.549   2.778   4.128  1.2853 -0.2614 -1.0192
 7198TIP3   OH221538   0.600   4.854   5.366  0.1132  0.5057 -0.2290
 7198TIP3    H121539   0.685   4.817   5.343 -0.3132  0.1056 -1.2030
 7198TIP3    H221540   0.549   4.779   5.397 -0.4985  0.4043 -1.4595
 7199TIP3   OH221541   6.786   6.233   2.494  0.2403 -0.1567 -0.7760
 7199TIP3    H121542   6.759   6.248   2.404  0.7167  1.5418 -0.6566
 7199TIP3    H221543   6.727   6.164   2.526 -0.9520  0.3247 -1.8950
 7200TIP3   OH221544   2.356   6.071   5.131  0.5033 -0.0916 -0.1312
 7200TIP3    H121545   2.326   5.982   5.116  1.3620 -0.1226 -1.7577
 7200TIP3    H221546   2.428   6.062   5.194  1.9394 -0.8028 -1.8002
 7201TIP3   OH221547   0.568   5.695   2.509  0.4421  0.2299 -0.0253
 7201TIP3    H121548   0.655   5.673   2.475  0.5433 -0.7855  0.8703
 7201TIP3    H221549   0.550   5.781   2.473  1.3682 -0.0107 -1.0970
 7202TIP3   OH221550   2.662   3.290   5.635 -0.2254  0.1114 -0.4666
 7202TIP3    H121551   2.680   3.360   5.697 -3.2847  0.9420 -0.4196
 7202TIP3    H221552   2.687   3.327   5.550 -0.7622  0.8675 -0.3068
 7203TIP3   OH221553   7.740   3.470   3.680  0.3306 -0.0051 -0.0134
 7203TIP3    H121554   7.799   3.523   3.626  0.1933 -1.0275 -1.2041
 7203TIP3    H221555   7.692   3.533   3.734  2.4836  0.8348  0.9435
 7204TIP3   OH221556   8.436   5.481   2.603 -0.3897 -0.1994 -0.3859
 7204TIP3    H121557   8.472   5.505   2.518 -0.6934 -0.2462 -0.5284
 7204TIP3    H221558   8.497   5.415   2.638 -1.0729 -1.2955 -1.2304
 7205TIP3   OH221559   7.752   3.740   4.660  0.6004  0.1105  0.8636
 7205TIP3    H121560   7.767   3.725   4.753  3.3594 -1.9238  0.1602
 7205TIP3    H221561   7.832   3.783   4.629 -0.3885  0.9980 -0.5433
 7206TIP3   OH221562   1.595   3.907   5.355 -0.0841 -0.3718 -0.2654
 7206TIP3    H121563   1.510   3.893   5.312 -0.0451  0.0416 -0.4735
 7206TIP3    H221564   1.585   3.864   5.440 -1.1387  1.2145  0.4390
 7207TIP3   OH221565   1.209   1.590   5.853 -0.1382  0.2078  0.6524
 7207TIP3    H121566   1.289   1.541   5.873 -0.9193 -2.6228 -2.6683
 7207TIP3    H221567   1.233   1.646   5.779 -0.0811  2.7923  2.5339
 7208TIP3   OH221568   1.788   1.993   3.335  0.1802 -0.7422  0.2591
 7208TIP3    H121569   1.846   1.950   3.398  0.1533 -0.9885  0.1169
 7208TIP3    H221570   1.704   1.949   3.347  0.2550 -1.0061 -0.1670
 7209TIP3   OH221571   1.715   4.417   4.830  0.2693 -0.0453  0.5136
 7209TIP3    H121572   1.643   4.427   4.768  0.0314  0.7945  0.9178
 7209TIP3    H221573   1.794   4.430   4.778  0.1484 -1.4301 -0.0199
 7210TIP3   OH221574   1.192   3.660   5.241  0.5161  0.6080 -0.9140
 7210TIP3    H121575   1.248   3.588   5.271 -0.1647  1.2056  1.9391
 7210TIP3    H221576   1.247   3.738   5.248  1.0355  0.5275 -3.3820
 7211TIP3   OH221577   0.419   4.186   3.487 -0.3363  0.4726  0.4582
 7211TIP3    H121578   0.367   4.113   3.520 -1.1374  2.0006  2.6871
 7211TIP3    H221579   0.507   4.151   3.477 -1.3194 -1.6001 -1.3971
 7212TIP3   OH221580   6.655   0.118   0.089  0.1989 -0.1005  0.0378
 7212TIP3    H121581   6.619   0.098   0.002  0.7563 -0.3800 -0.1312
 7212TIP3    H221582   6.648   0.213   0.096 -2.1834 -0.2990  0.7171
 7213TIP3   OH221583   1.191   3.794   6.216  0.4801 -0.4186 -0.2162
 7213TIP3    H121584   1.105   3.751   6.211 -1.1264  1.8340  4.4593
 7213TIP3    H221585   1.174   3.884   6.187  1.7494 -0.4644 -1.1502
 7214TIP3   OH221586   7.749   2.912   5.801 -0.4450  0.0541  0.1264
 7214TIP3    H121587   7.666   2.955   5.782 -0.5923 -0.4776 -0.4113
 7214TIP3    H221588   7.789   2.896   5.716 -0.2592 -0.6237  0.3367
 7215TIP3   OH221589   8.070   5.068   4.395  0.8916  0.0453 -0.2104
 7215TIP3    H121590   8.071   5.022   4.479  0.6676  1.4497  0.5766
 7215TIP3    H221591   7.977   5.071   4.370  0.7329  1.4474  0.5186
 7216TIP3   OH221592   0.857   3.518   4.623 -0.5682  0.4839 -0.4502
 7216TIP3    H121593   0.895   3.572   4.693  1.7901 -1.8029  0.0751
 7216TIP3    H221594   0.924   3.515   4.556 -0.1366 -2.8205  0.0646
 7217TIP3   OH221595   1.999   5.589   4.642 -0.1608 -0.0456 -0.2378
 7217TIP3    H121596   2.038   5.534   4.710  0.6594 -1.2547 -1.6900
 7217TIP3    H221597   1.927   5.634   4.687 -0.3407 -1.6873  1.1501
 7218TIP3   OH221598   1.973   3.401   3.839  0.0465 -0.0494  0.1246
 7218TIP3    H121599   1.907   3.423   3.773 -0.5862 -2.7994 -0.2436
 7218TIP3    H221600   1.940   3.441   3.920 -0.6566  0.9228 -0.6391
 7219TIP3   OH221601   7.297   4.441   6.655 -0.5025  0.1821 -0.1025
 7219TIP3    H121602   7.373   4.497   6.638 -0.4451 -0.1494 -1.0225
 7219TIP3    H221603   7.224   4.502   6.663 -0.2283  0.4713  0.1966
 7220TIP3   OH221604   2.050   4.289   2.809  0.2451  0.4899  0.2295
 7220TIP3    H121605   2.031   4.291   2.902  2.6058  1.9310  0.7177
 7220TIP3    H221606   2.140   4.322   2.802  0.1749  0.2049 -2.5237
 7221TIP3   OH221607   1.930   4.456   4.647 -0.8752 -0.7244 -0.5589
 7221TIP3    H121608   2.000   4.406   4.689 -0.0810  0.1708 -0.8040
 7221TIP3    H221609   1.948   4.547   4.671 -1.3851 -0.3848 -1.4365
 7222TIP3   OH221610   0.460   4.554   4.161 -0.2073 -0.0544  0.3762
 7222TIP3    H121611   0.553   4.548   4.141 -0.0539 -0.1570  1.0847
 7222TIP3    H221612   0.443   4.478   4.218 -0.8890 -0.4716 -0.3676
 7223TIP3   OH221613   7.826   2.606   5.625  0.0854  0.1187  0.5712
 7223TIP3    H121614   7.793   2.562   5.704 -1.4890  0.9257  0.3795
 7223TIP3    H221615   7.749   2.647   5.587  0.7267 -0.7336 -1.7070
 7224TIP3   OH221616   8.135   6.366   4.683 -0.1677  0.1194  0.0520
 7224TIP3    H121617   8.148   6.459   4.670  0.4863 -0.1522 -1.2916
 7224TIP3    H221618   8.207   6.325   4.635 -0.3339 -1.0731  0.7921
 7225TIP3   OH221619   6.954   4.857   4.119 -0.4895 -0.1416 -0.2394
 7225TIP3    H121620   6.968   4.767   4.090  1.3091  0.1099 -0.1645
 7225TIP3    H221621   6.893   4.894   4.055  0.5985 -0.7005 -1.6186
 7226TIP3   OH221622   1.259   6.010   4.355 -0.3676  0.6656 -0.0896
 7226TIP3    H121623   1.317   6.079   4.387 -0.3242  0.0595  1.2008
 7226TIP3    H221624   1.298   5.929   4.389 -1.5768  0.1927  0.1906
 7227TIP3   OH221625   1.394   4.692   4.684 -0.2819  0.5706 -0.0606
 7227TIP3    H121626   1.324   4.628   4.670 -1.9224  2.3040 -0.0547
 7227TIP3    H221627   1.380   4.724   4.773  2.1473 -0.9182  0.9317
 7228TIP3   OH221628   0.126   6.169   4.646  0.3056 -0.2102 -0.4049
 7228TIP3    H121629   0.094   6.085   4.681 -1.0990 -0.2186 -1.6445
 7228TIP3    H221630   0.097   6.169   4.555  1.0043  1.2835 -0.6369
 7229TIP3   OH221631   7.437   3.491   3.631  0.1624  0.3382  0.4071
 7229TIP3    H121632   7.435   3.564   3.692  0.2324 -0.1504  0.9945
 7229TIP3    H221633   7.441   3.413   3.686 -4.1605 -0.3623 -0.0232
 7230TIP3   OH221634   0.542   4.357   3.182 -0.4877 -1.1339 -0.1303
 7230TIP3    H121635   0.452   4.362   3.215  0.3111 -2.0738  2.3467
 7230TIP3    H221636   0.596   4.356   3.261  1.9303  2.5655 -1.6227
 7231TIP3   OH221637   0.722   5.449   6.432 -0.3755  0.3006 -0.0896
 7231TIP3    H121638   0.735   5.542   6.416 -0.0806  0.1543 -0.7274
 7231TIP3    H221639   0.641   5.444   6.482  0.4571  1.0263  1.3984
 7232TIP3   OH221640   6.354   6.164   3.009  0.3267  0.4462 -0.1017
 7232TIP3    H121641   6.260   6.144   3.008  0.3090  0.5552 -1.2529
 7232TIP3    H221642   6.394   6.089   3.054 -0.3843  0.7830  1.1254
 7233TIP3   OH221643   7.834   3.184   4.227 -0.0580 -0.0257 -0.3486
 7233TIP3    H121644   7.927   3.196   4.207  0.2794 -1.9202 -0.0066
 7233TIP3    H221645   7.829   3.180   4.322 -0.2852 -1.4526 -0.4145
 7234TIP3   OH221646   2.212   4.166   5.433  0.0314  0.5167  0.3323
 7234TIP3    H121647   2.196   4.240   5.376  1.8931  0.8878  0.2587
 7234TIP3    H221648   2.254   4.204   5.511 -0.1601 -0.2935  0.8405
 7235TIP3   OH221649   1.400   3.386   3.500 -0.4580  0.1152  0.6425
 7235TIP3    H121650   1.339   3.381   3.426  1.2763 -0.8884 -0.7446
 7235TIP3    H221651   1.474   3.436   3.467  0.7770 -1.1938  1.3676
 7236TIP3   OH221652   2.057   5.428   4.366 -0.0830 -0.2021  0.4388
 7236TIP3    H121653   2.001   5.395   4.297 -2.2315  1.7008  1.2192
 7236TIP3    H221654   2.126   5.362   4.375 -0.8232 -1.3777 -2.1933
 7237TIP3   OH221655   8.264   5.097   4.775  0.2561 -0.6497  0.0177
 7237TIP3    H121656   8.359   5.096   4.763  0.2312 -1.6953 -0.0985
 7237TIP3    H221657   8.245   5.186   4.805  1.1211 -0.0618 -1.1574
 7238TIP3   OH221658   3.702   7.953   0.336  0.3618 -0.5624  0.2673
 7238TIP3    H121659   3.717   7.861   0.314  0.3722 -0.4021 -0.3914
 7238TIP3    H221660   3.686   7.996   0.252  2.2513  0.3969  0.3708
 7239TIP3   OH221661   0.333   3.436   5.227  0.4287 -0.7789  0.3396
 7239TIP3    H121662   0.357   3.438   5.320  1.8316 -0.5374 -0.0167
 7239TIP3    H221663   0.326   3.529   5.203 -1.1824 -0.8408  0.5029
 7240TIP3   OH221664   2.691   4.611   6.710 -0.3056  0.0413  0.1510
 7240TIP3    H121665   2.598   4.586   6.718 -0.3638 -0.0104 -0.6306
 7240TIP3    H221666   2.731   4.536   6.666 -0.3806  1.1108 -1.7691
 7241TIP3   OH221667   6.446   7.041   1.981  0.9785  0.1687  0.4935
 7241TIP3    H121668   6.413   7.068   1.895 -1.1160 -1.6646  0.6863
 7241TIP3    H221669   6.537   7.016   1.964  0.5073 -0.4385 -1.2475
 7242TIP3   OH221670   2.345   5.771   4.980 -0.2165  0.0755  0.0082
 7242TIP3    H121671   2.376   5.832   4.913 -1.5834  2.4585  1.4750
 7242TIP3    H221672   2.347   5.685   4.937 -1.0567  1.5343 -3.0889
 7243TIP3   OH221673   1.677   4.221   5.018  0.1163  0.2689  0.3749
 7243TIP3    H121674   1.610   4.163   4.983  0.4583 -0.1099  0.3393
 7243TIP3    H221675   1.697   4.281   4.946  0.9429 -0.6150 -0.1460
 7244TIP3   OH221676   0.160   2.164   4.463 -0.1486  0.5254 -0.4815
 7244TIP3    H121677   0.176   2.222   4.538 -1.4795 -0.2340  0.3986
 7244TIP3    H221678   0.203   2.082   4.486  1.6234  1.0932 -1.6745
 7245TIP3   OH221679   7.437  -0.001   0.567  0.0258  0.2662 -0.1884
 7245TIP3    H121680   7.494   0.076   0.568  1.2246 -0.5825 -0.5721
 7245TIP3    H221681   7.383   0.009   0.489 -1.4156  1.8264  0.9977
 7246TIP3   OH221682   7.515   4.680   3.640 -0.3995  0.7769 -0.3051
 7246TIP3    H121683   7.520   4.636   3.555  1.1183  2.1120 -0.9264
 7246TIP3    H221684   7.529   4.610   3.704  3.3940  0.5076 -1.3206
 7247TIP3   OH221685   2.915   4.596   2.943 -0.0326 -0.4279 -0.1044
 7247TIP3    H121686   2.828   4.575   2.911 -0.1209  0.2027 -0.2888
 7247TIP3    H221687   2.974   4.538   2.895 -0.0594  1.1845 -2.1514
 7248TIP3   OH221688   3.744   5.933   5.427  0.0827  0.1725  0.1011
 7248TIP3    H121689   3.709   6.022   5.428  1.2947  0.6552  0.1221
 7248TIP3    H221690   3.838   5.944   5.412  0.1116 -1.1482 -0.7455
 7249TIP3   OH221691   0.408   3.669   4.756  0.2208  0.9077 -0.1183
 7249TIP3    H121692   0.491   3.673   4.804 -0.4056  0.6960  1.0170
 7249TIP3    H221693   0.393   3.575   4.742 -0.5309  0.8543  0.9650
 7250TIP3   OH221694   0.592   4.128   5.025  0.1690  0.0635  0.3256
 7250TIP3    H121695   0.636   4.055   5.069 -0.0500 -0.2665 -0.0028
 7250TIP3    H221696   0.602   4.110   4.932 -0.6215  0.0102  0.2465
 7251TIP3   OH221697   2.998   6.427   5.373  0.2036  0.4253  0.1650
 7251TIP3    H121698   2.923   6.481   5.400 -0.2527  1.1222 -2.3363
 7251TIP3    H221699   3.049   6.484   5.315  2.0161 -0.4570  0.8732
 7252TIP3   OH221700   1.093   4.999   5.266  0.6737 -0.1567  0.1363
 7252TIP3    H121701   1.038   5.000   5.187  1.1822 -1.0964 -0.2342
 7252TIP3    H221702   1.117   5.091   5.279 -0.5787  0.1997  0.0233
 7253TIP3   OH221703   8.201   4.283   5.096  0.4801  0.3866 -0.1843
 7253TIP3    H121704   8.282   4.271   5.047  1.1810  2.3555  0.4263
 7253TIP3    H221705   8.146   4.338   5.040  1.2983  2.6718  1.1928
 7254TIP3   OH221706   7.365   4.355   4.400  0.7136 -0.2237 -0.3889
 7254TIP3    H121707   7.277   4.341   4.366  0.2223  1.6749  0.0150
 7254TIP3    H221708   7.421   4.300   4.346 -0.5326 -0.2120 -1.7158
 7255TIP3   OH221709   2.393   3.834   2.930  0.2647 -0.1620  0.2777
 7255TIP3    H121710   2.422   3.892   3.001 -0.6177  0.3397  0.2364
 7255TIP3    H221711   2.352   3.761   2.975 -1.8311  0.9742  0.2748
 7256TIP3   OH221712   0.683   3.745   4.867  0.0373  0.2869  0.2808
 7256TIP3    H121713   0.739   3.687   4.918 -0.4585  1.7715  2.5967
 7256TIP3    H221714   0.713   3.833   4.889 -0.3549  0.9777 -1.8356
 7257TIP3   OH221715   6.521   2.777   0.882  0.3700 -0.0166  0.4763
 7257TIP3    H121716   6.474   2.860   0.889  1.9169  0.8417  0.9201
 7257TIP3    H221717   6.599   2.788   0.937  1.0431 -1.4346 -0.1490
 7258TIP3   OH221718   0.609   3.230   5.450 -0.5386  0.1799  0.3223
 7258TIP3    H121719   0.565   3.315   5.452 -1.8464 -0.5235  2.4757
 7258TIP3    H221720   0.545   3.169   5.487  0.3241 -1.7816 -1.3512
 7259TIP3   OH221721   1.472   2.263   4.548  0.0641  0.3509 -0.2020
 7259TIP3    H121722   1.403   2.196   4.548 -0.5393  0.9237 -2.2651
 7259TIP3    H221723   1.425   2.346   4.551  0.6895  0.7348 -0.8395
 7260TIP3   OH221724   0.598   3.951   5.841 -0.0276 -0.2137  0.0972
 7260TIP3    H121725   0.682   3.905   5.840  0.3515  0.4928 -1.3737
 7260TIP3    H221726   0.611   4.027   5.784 -1.7051 -0.1718 -0.2687
 7261TIP3   OH221727   2.929   4.532   5.318  0.1974  0.0854 -0.1977
 7261TIP3    H121728   2.972   4.607   5.359 -1.4361  1.4733 -0.9631
 7261TIP3    H221729   2.939   4.546   5.224 -1.1819 -0.0035 -0.3690
 7262TIP3   OH221730   0.089   3.727   6.680 -0.4093 -0.6642  0.6876
 7262TIP3    H121731   0.087   3.675   6.599 -0.3235 -0.8109  0.7779
 7262TIP3    H221732   0.116   3.814   6.652 -0.3234 -0.7300  0.5645
 7263TIP3   OH221733   1.728   4.557   5.380 -0.3423  0.2801 -0.1144
 7263TIP3    H121734   1.671   4.633   5.375  1.4275  1.6296 -0.4550
 7263TIP3    H221735   1.687   4.492   5.323 -0.7260  1.7725 -1.5799
 7264TIP3   OH221736   1.776   4.165   5.248 -0.3727 -0.2194 -0.1798
 7264TIP3    H121737   1.764   4.177   5.154  0.1119 -1.1247 -0.3640
 7264TIP3    H221738   1.691   4.133   5.279 -0.7842  0.8596 -0.1626
 7265TIP3   OH221739   3.113   7.382   0.182  0.1949  0.9076 -0.1503
 7265TIP3    H121740   3.117   7.380   0.086  0.1650  0.4938 -0.1449
 7265TIP3    H221741   3.145   7.296   0.209  1.2775  1.4260  0.2518
 7266TIP3   OH221742   3.919   7.777   0.839  0.2080  0.5064 -0.6131
 7266TIP3    H121743   3.936   7.805   0.929  2.7637  0.3206 -1.0064
 7266TIP3    H221744   3.980   7.704   0.825 -1.7708 -0.9751 -1.7515
 7267TIP3   OH221745   8.382   2.418   4.353  0.1402 -0.2473  0.5796
 7267TIP3    H121746   8.287   2.433   4.360  0.2170  0.1166  0.8365
 7267TIP3    H221747   8.394   2.329   4.385 -0.4087 -1.1460 -1.5787
 7268TIP3   OH221748   1.804   5.291   4.671  0.0257  0.2888 -0.0757
 7268TIP3    H121749   1.805   5.262   4.580 -1.6767  0.4153 -0.1543
 7268TIP3    H221750   1.729   5.350   4.677 -0.7243 -0.8092  1.7400
 7269TIP3   OH221751   7.179   4.703   3.531 -0.3447 -0.0603 -0.5403
 7269TIP3    H121752   7.256   4.688   3.477  0.1184 -0.9047  0.3205
 7269TIP3    H221753   7.130   4.621   3.525 -0.0661 -0.3314  0.6355
 7270TIP3   OH221754   0.405   1.215   4.795 -0.7654  0.1818 -0.1834
 7270TIP3    H121755   0.440   1.138   4.749 -2.0064 -0.2315 -0.4588
 7270TIP3    H221756   0.310   1.207   4.786 -0.9131  1.6193  0.0138
 7271TIP3   OH221757   0.168   5.390   5.176 -0.1041 -0.2699 -0.3901
 7271TIP3    H121758   0.259   5.416   5.188 -0.3450  0.2478  0.3390
 7271TIP3    H221759   0.155   5.319   5.238  0.0886 -1.0534 -1.2290
 7272TIP3   OH221760   0.451   4.614   5.417 -0.1094  0.8075 -0.5752
 7272TIP3    H121761   0.442   4.589   5.326 -0.9572 -1.2813  0.0548
 7272TIP3    H221762   0.365   4.646   5.442 -0.1180  0.5605 -0.2795
 7273TIP3   OH221763   0.831   4.413   4.444  0.0762  0.3248  0.2965
 7273TIP3    H121764   0.879   4.350   4.391 -1.7121 -1.4569  0.7348
 7273TIP3    H221765   0.768   4.452   4.383  1.2930  1.8357 -0.0132
 7274TIP3   OH221766   2.353   2.740   5.739 -0.4466 -0.2294 -0.0857
 7274TIP3    H121767   2.436   2.717   5.781 -0.3704 -0.5923 -0.4266
 7274TIP3    H221768   2.379   2.782   5.657 -0.5771  1.9961  1.0022
 7275TIP3   OH221769   7.554   5.268   3.926 -0.0988  0.1346  0.6543
 7275TIP3    H121770   7.587   5.334   3.987 -0.6226  1.3128 -0.2972
 7275TIP3    H221771   7.486   5.315   3.876 -0.6989 -1.2244  0.1810
 7276TIP3   OH221772   4.215   6.620   5.922  0.4934  0.1385 -0.2505
 7276TIP3    H121773   4.267   6.558   5.870 -0.0454 -0.3825 -0.1793
 7276TIP3    H221774   4.201   6.576   6.006  0.4476  0.5234 -0.0553
 7277TIP3   OH221775   2.831   5.252   4.857  0.0465 -0.4700  0.4112
 7277TIP3    H121776   2.818   5.211   4.942  2.7977  0.7119  1.4579
 7277TIP3    H221777   2.761   5.318   4.852 -0.1276 -0.5294  1.7745
 7278TIP3   OH221778   0.218   5.693   5.294 -0.1982 -0.0219  0.4754
 7278TIP3    H121779   0.217   5.660   5.204  2.2649  1.9506 -0.3439
 7278TIP3    H221780   0.310   5.712   5.311 -0.9214  1.7633  2.6090
 7279TIP3   OH221781   0.566   3.777   6.587 -1.1884  0.3829 -0.2987
 7279TIP3    H121782   0.570   3.871   6.602 -0.6320  0.2148  0.6172
 7279TIP3    H221783   0.485   3.764   6.537 -0.7256  1.4648 -1.3433
 7280TIP3   OH221784   0.325   6.477   4.984  0.0958  0.0789  0.3647
 7280TIP3    H121785   0.392   6.440   4.927 -1.1400  1.0705 -1.7494
 7280TIP3    H221786   0.253   6.414   4.981 -0.6941  1.0124 -0.6277
 7281TIP3   OH221787   7.967   5.217   6.163 -0.0891 -0.1088 -0.7234
 7281TIP3    H121788   7.893   5.252   6.212  1.7801  1.1906  1.2306
 7281TIP3    H221789   7.988   5.284   6.099  1.0140  0.6889  0.4446
 7282TIP3   OH221790   3.233   3.115   5.135  0.3265  0.8902  0.1555
 7282TIP3    H121791   3.177   3.163   5.074  0.4784  1.7320  0.6641
 7282TIP3    H221792   3.320   3.118   5.095  0.1588  0.2582 -0.2539
 7283TIP3   OH221793   1.076   2.948   4.872  0.0048 -0.0293 -0.0543
 7283TIP3    H121794   0.987   2.975   4.850  0.7466  1.6991 -1.0646
 7283TIP3    H221795   1.074   2.933   4.966 -1.6688 -1.2875 -0.2856
 7284TIP3   OH221796   3.005   3.552   4.267 -0.0805 -0.0630  0.2285
 7284TIP3    H121797   3.002   3.647   4.267  2.3664  0.0471  0.0341
 7284TIP3    H221798   2.936   3.525   4.207 -1.6395  1.5288  1.2557
 7285TIP3   OH221799   8.191   2.260   5.276  0.0937  0.0291  0.4471
 7285TIP3    H121800   8.101   2.245   5.245 -0.6134  2.2109  1.3922
 7285TIP3    H221801   8.225   2.328   5.218 -0.4104  2.4118  2.8733
 7286TIP3   OH221802   6.995   3.368   3.334  0.1540  0.0373 -0.4529
 7286TIP3    H121803   7.058   3.383   3.405  0.3208 -0.1422 -0.5654
 7286TIP3    H221804   6.935   3.302   3.370  0.4027 -0.2596 -0.5822
 7287TIP3   OH221805   2.570   5.991   5.299 -0.7613 -0.9372 -0.5513
 7287TIP3    H121806   2.641   6.000   5.235 -1.5787  0.2304 -1.3047
 7287TIP3    H221807   2.614   5.958   5.378  0.5684 -0.5371 -1.1008
 7288TIP3   OH221808   2.813   1.811   6.104  0.3739 -0.2929 -0.1116
 7288TIP3    H121809   2.839   1.827   6.013  0.4527 -2.7036 -0.5313
 7288TIP3    H221810   2.718   1.806   6.101  0.1890  2.0329  0.3780
 7289TIP3   OH221811   6.416   4.423   5.478 -0.5829 -0.2919  0.3565
 7289TIP3    H121812   6.423   4.389   5.388  2.4644 -0.7274  0.7086
 7289TIP3    H221813   6.453   4.511   5.472 -1.1634 -0.0060  1.0264
 7290TIP3   OH221814   0.627   2.338   4.927  0.3171  0.3392  0.1034
 7290TIP3    H121815   0.698   2.396   4.953  1.1586  0.1047 -1.6073
 7290TIP3    H221816   0.605   2.289   5.007  3.6592 -1.2684  0.1067
 7291TIP3   OH221817   1.177   6.308   2.463 -0.1811  0.1402 -0.0062
 7291TIP3    H121818   1.258   6.260   2.479 -0.8095 -0.8533  0.2397
 7291TIP3    H221819   1.111   6.263   2.515 -0.8394  1.1161  0.0200
 7292TIP3   OH221820   3.274   2.832   4.610  0.2040 -0.0190  0.2273
 7292TIP3    H121821   3.188   2.810   4.574  1.3267 -2.1080 -1.2443
 7292TIP3    H221822   3.306   2.901   4.552  0.6899 -1.1936 -0.9106
 7293TIP3   OH221823   0.475   3.630   6.236  0.6252 -0.0229 -0.0587
 7293TIP3    H121824   0.406   3.691   6.263  1.4609  0.7694  0.3035
 7293TIP3    H221825   0.497   3.657   6.147  0.1191 -0.5983 -0.3613
 7294TIP3   OH221826   1.723   3.951   6.329  0.2194  0.4055 -0.6450
 7294TIP3    H121827   1.635   3.944   6.365 -0.7109  1.2909 -2.7340
 7294TIP3    H221828   1.780   3.956   6.407 -1.5988  0.4572  0.7034
 7295TIP3   OH221829   2.800   4.020   5.305 -0.1802 -0.3566  0.6149
 7295TIP3    H121830   2.711   4.041   5.334  0.1076  1.3264  0.3281
 7295TIP3    H221831   2.845   3.991   5.384 -0.9102 -0.9430  0.8147
 7296TIP3   OH221832   2.149   6.094   4.767  0.1889  0.2743 -0.7249
 7296TIP3    H121833   2.218   6.129   4.710 -0.4079  0.9430 -1.0520
 7296TIP3    H221834   2.085   6.166   4.773  0.1357  0.1290  0.6006
 7297TIP3   OH221835   3.666   4.321   6.360 -0.3898 -0.5438 -0.4300
 7297TIP3    H121836   3.686   4.352   6.272 -1.4106  1.0169 -0.1327
 7297TIP3    H221837   3.674   4.398   6.416 -1.1023 -1.2175  0.6349
 7298TIP3   OH221838   0.894   2.998   5.735 -0.7771 -0.5786 -0.1298
 7298TIP3    H121839   0.868   2.919   5.783  0.3151 -0.5254  0.5691
 7298TIP3    H221840   0.988   2.986   5.719 -1.2948 -0.9970 -3.0341
 7299TIP3   OH221841   2.718   3.964   3.887 -0.7398  0.2893 -0.4302
 7299TIP3    H121842   2.649   3.911   3.928 -0.2986 -0.7701 -1.0453
 7299TIP3    H221843   2.695   4.054   3.910 -1.2884 -0.1816  0.9551
 7300TIP3   OH221844   2.580   6.527   4.472 -0.7881  0.0245 -0.8047
 7300TIP3    H121845   2.597   6.487   4.557 -3.4395  2.0900  0.7665
 7300TIP3    H221846   2.663   6.568   4.448 -0.2447  0.1567  1.2040
 7301TIP3   OH221847   2.453   4.069   4.439  0.2840  0.1688  0.0451
 7301TIP3    H121848   2.455   4.076   4.534 -0.7034  0.9840  0.0130
 7301TIP3    H221849   2.468   4.158   4.408  2.5471 -0.4163 -0.6022
 7302TIP3   OH221850   2.403   4.669   5.529  0.7787  0.5561  0.1527
 7302TIP3    H121851   2.392   4.728   5.603  0.2902 -0.9486  1.3150
 7302TIP3    H221852   2.497   4.651   5.526  0.6336 -0.4229  1.2532
 7303TIP3   OH221853   2.533   5.732   3.272 -0.8346  0.0094 -0.4691
 7303TIP3    H121854   2.512   5.806   3.216  0.8736  0.6526 -0.2750
 7303TIP3    H221855   2.584   5.673   3.217  1.3155  0.8920  0.5093
 7304TIP3   OH221856   1.801   5.194   4.414 -0.1319  0.1101 -0.3086
 7304TIP3    H121857   1.812   5.101   4.394  0.3885  0.0591  0.1958
 7304TIP3    H221858   1.725   5.221   4.363 -1.3364 -1.0065  0.8840
 7305TIP3   OH221859   1.924   3.578   4.065  0.2278 -0.6576 -0.0182
 7305TIP3    H121860   1.986   3.554   4.134  1.7761 -0.4703 -1.2895
 7305TIP3    H221861   1.882   3.658   4.097  0.7428 -0.7116  0.8146
 7306TIP3   OH221862   6.245   7.837   0.105 -0.8643  0.0245  0.2300
 7306TIP3    H121863   6.308   7.789   0.053 -0.3292  1.4548 -0.4730
 7306TIP3    H221864   6.229   7.917   0.055 -1.2985  0.8402  1.6458
 7307TIP3   OH221865   3.097   6.009   5.261  0.8365 -0.3458 -0.1051
 7307TIP3    H121866   3.045   6.087   5.245  1.9545  0.5503  0.5289
 7307TIP3    H221867   3.108   5.969   5.175  0.1029  0.1018 -0.4059
 7308TIP3   OH221868   5.283   4.348   3.662 -0.4718 -0.1274  0.6644
 7308TIP3    H121869   5.330   4.281   3.712  0.4760  0.2988  0.3614
 7308TIP3    H221870   5.257   4.413   3.728  2.4844  1.4135  0.3669
 7309TIP3   OH221871   2.299   5.219   4.368 -0.7369  0.2190 -0.0778
 7309TIP3    H121872   2.274   5.177   4.285 -2.2476  2.9310 -1.0459
 7309TIP3    H221873   2.347   5.297   4.342  0.5332  0.0505  1.6706
 7310TIP3   OH221874   1.909   3.882   4.308  0.3895  0.3873 -0.1936
 7310TIP3    H121875   1.843   3.840   4.253  1.0937 -0.0346 -0.7311
 7310TIP3    H221876   1.974   3.814   4.323  2.4443  1.7531 -2.5457
 7311TIP3   OH221877   4.747   6.435   0.523  0.2713 -0.2253 -0.0243
 7311TIP3    H121878   4.700   6.475   0.596  0.6467  0.3469 -0.0939
 7311TIP3    H221879   4.728   6.492   0.449 -1.7991 -1.9101 -0.8658
 7312TIP3   OH221880   1.079   5.346   4.291  0.2613 -0.4658 -0.3711
 7312TIP3    H121881   1.119   5.428   4.320  1.8906 -1.1073 -0.7249
 7312TIP3    H221882   0.989   5.369   4.271  0.9387  1.4645 -1.3708
 7313TIP3   OH221883   2.522   4.838   4.208 -0.2037 -0.2348 -0.0132
 7313TIP3    H121884   2.543   4.745   4.208  0.2136 -0.1449  0.5796
 7313TIP3    H221885   2.486   4.854   4.295 -0.2710  0.1593 -0.1118
 7314TIP3   OH221886   3.845   5.597   5.005  0.4569  0.0295  0.1152
 7314TIP3    H121887   3.791   5.574   4.929 -1.2419 -1.8200  1.8106
 7314TIP3    H221888   3.786   5.647   5.061  0.7546 -1.2856  1.6160
 7315TIP3   OH221889   2.033   3.094   4.250 -0.4649  0.3094 -0.3672
 7315TIP3    H121890   2.054   3.129   4.163 -0.3596 -1.3855 -1.0313
 7315TIP3    H221891   1.944   3.060   4.241 -0.6373  0.5689  0.3330
 7316TIP3   OH221892   2.614   2.416   5.167 -0.0332  0.1590  1.2599
 7316TIP3    H121893   2.696   2.452   5.202  0.2284  0.2017  0.5930
 7316TIP3    H221894   2.572   2.490   5.123  1.1833 -0.6665 -1.3794
 7317TIP3   OH221895   2.755   5.325   2.253 -0.0370 -0.1009 -0.1123
 7317TIP3    H121896   2.810   5.376   2.193  0.8360  0.7116  1.3621
 7317TIP3    H221897   2.666   5.334   2.218  0.1057  2.4250  0.1182
 7318TIP3   OH221898   5.721   3.377   4.600  0.2217  0.2917  0.7144
 7318TIP3    H121899   5.786   3.343   4.538  1.2655  1.0402  1.3773
 7318TIP3    H221900   5.766   3.449   4.644 -0.6938  0.1194  1.9437
 7319TIP3   OH221901   3.934   5.893   4.107 -0.2684 -0.3282 -0.0537
 7319TIP3    H121902   3.938   5.913   4.013  0.4610 -0.3098 -0.0274
 7319TIP3    H221903   3.864   5.829   4.115  1.4442 -2.3727 -1.0017
 7320TIP3   OH221904   1.847   2.442   5.387  0.1526 -0.0823 -0.0398
 7320TIP3    H121905   1.844   2.465   5.294  0.1876 -0.4461 -0.1322
 7320TIP3    H221906   1.756   2.424   5.410  0.3125 -1.2885 -0.3344
 7321TIP3   OH221907   1.610   3.795   3.930  0.2570  0.3905  0.5389
 7321TIP3    H121908   1.528   3.793   3.882  1.5443  0.6882 -1.7394
 7321TIP3    H221909   1.629   3.888   3.944  0.0920  0.3176  1.2700
 7322TIP3   OH221910   3.678   3.056   5.952  0.5863 -0.2544  0.4093
 7322TIP3    H121911   3.693   2.976   6.003  2.0592  0.0165  0.4314
 7322TIP3    H221912   3.763   3.075   5.913 -0.1380  0.4493 -0.8376
 7323TIP3   OH221913   3.090   4.398   5.862 -0.5391 -0.2284 -0.2425
 7323TIP3    H121914   3.071   4.491   5.856  1.0255  0.0820 -0.6119
 7323TIP3    H221915   3.100   4.381   5.956 -1.6309 -0.2054 -0.1148
 7324TIP3   OH221916   2.879   5.741   5.284  0.8750 -0.3149 -0.0287
 7324TIP3    H121917   2.915   5.746   5.373 -0.4079  0.0105  0.4847
 7324TIP3    H221918   2.789   5.712   5.297  1.2596 -2.2209 -1.3687
 7325TIP3   OH221919   2.866   6.277   5.836 -0.2820  0.3399  0.7450
 7325TIP3    H121920   2.876   6.245   5.746  0.4227  0.1322  0.8940
 7325TIP3    H221921   2.955   6.280   5.870 -0.5296  0.6153  1.3724
 7326TIP3   OH221922   1.491   2.493   3.354  1.2122 -0.2409  0.4351
 7326TIP3    H121923   1.447   2.482   3.438  1.8389 -2.3435  0.5233
 7326TIP3    H221924   1.579   2.523   3.377 -0.1691  4.3221  0.2436
 7327TIP3   OH221925   0.239   4.608   4.502 -0.2181 -0.3202 -0.4237
 7327TIP3    H121926   0.265   4.530   4.453 -1.7532 -2.0571  1.4285
 7327TIP3    H221927   0.293   4.607   4.580 -0.1144  0.5907 -0.4773
 7328TIP3   OH221928   3.281   2.288   4.491  0.5683  0.0163  0.0483
 7328TIP3    H121929   3.375   2.296   4.472  0.8038 -1.3333  0.6060
 7328TIP3    H221930   3.238   2.339   4.422  1.5045 -2.8136 -2.7349
 7329TIP3   OH221931   2.466   7.552   6.145  0.2788 -0.0042  0.2239
 7329TIP3    H121932   2.418   7.487   6.196  0.4019  0.0565  0.4155
 7329TIP3    H221933   2.546   7.508   6.118  0.2097 -0.0391  0.0743
 7330TIP3   OH221934   2.340   0.219   0.285  0.1823 -0.6706 -0.7146
 7330TIP3    H121935   2.363   0.282   0.353 -0.0419 -0.5638 -0.7360
 7330TIP3    H221936   2.408   0.152   0.291 -0.0880 -0.8917 -0.0903
 7331TIP3   OH221937   0.276   3.766   2.735  0.0781  0.0363  0.0497
 7331TIP3    H121938   0.284   3.724   2.650  1.3626  0.0762  0.1441
 7331TIP3    H221939   0.290   3.696   2.798 -2.5380 -0.3367  0.2671
 7332TIP3   OH221940   4.999   3.607   2.184 -0.1593 -0.5662  0.2395
 7332TIP3    H121941   5.067   3.585   2.121  1.0853  2.2590  0.5390
 7332TIP3    H221942   5.045   3.616   2.267 -1.3331 -1.3094  0.9940
 7333TIP3   OH221943   2.667   3.592   6.122 -0.6856  0.2608 -0.2234
 7333TIP3    H121944   2.655   3.621   6.031  0.6381  0.3162 -0.3826
 7333TIP3    H221945   2.625   3.660   6.174 -0.1527  0.9892 -0.7313
 7334TIP3   OH221946   2.194   3.374   5.485 -0.4944  0.2368  0.4401
 7334TIP3    H121947   2.113   3.386   5.535 -1.1198 -0.3473 -0.4175
 7334TIP3    H221948   2.165   3.341   5.400  0.6452  0.0650  0.1098
 7335TIP3   OH221949   1.839   6.770   3.983 -0.4335 -0.2080  0.7221
 7335TIP3    H121950   1.801   6.832   3.921 -0.6509 -0.9655  0.0871
 7335TIP3    H221951   1.770   6.758   4.049 -0.3845  0.2368  0.8546
 7336TIP3   OH221952   4.322   4.795   5.189  0.1006  0.2001 -0.1273
 7336TIP3    H121953   4.327   4.876   5.241  1.8821 -0.0771  0.1804
 7336TIP3    H221954   4.383   4.809   5.117  0.7766 -1.0560  0.1938
 7337TIP3   OH221955   2.859   5.651   4.353  0.2464 -0.1769  0.1254
 7337TIP3    H121956   2.879   5.622   4.442 -0.7236  0.0744  0.4284
 7337TIP3    H221957   2.809   5.732   4.364 -0.7364 -0.6680 -0.6147
 7338TIP3   OH221958   2.374   4.967   4.029  0.1897 -0.3999 -0.5789
 7338TIP3    H121959   2.413   4.953   3.943  2.0769  0.4342  0.1152
 7338TIP3    H221960   2.422   4.908   4.087 -0.8838 -0.7510 -0.0370
 7339TIP3   OH221961   2.365   5.804   5.290  0.2961  0.2858  0.2636
 7339TIP3    H121962   2.388   5.760   5.208 -1.6301  0.3282 -0.3377
 7339TIP3    H221963   2.448   5.840   5.322  1.5357 -1.9274 -0.3254
 7340TIP3   OH221964   2.852   4.376   4.111  0.0546  0.3005 -0.2811
 7340TIP3    H121965   2.847   4.439   4.183 -0.0573  0.8140 -0.7303
 7340TIP3    H221966   2.917   4.312   4.140  0.5855  0.9302 -0.0503
 7341TIP3   OH221967   3.839   3.340   5.589  0.0457  0.3539  0.1574
 7341TIP3    H121968   3.876   3.391   5.661 -0.7013  1.4424 -0.2255
 7341TIP3    H221969   3.908   3.276   5.568  2.4446  3.3718 -1.6148
 7342TIP3   OH221970   1.736   4.200   5.842  0.4021 -1.0352 -0.2525
 7342TIP3    H121971   1.807   4.139   5.863  1.9470  0.3255 -1.4241
 7342TIP3    H221972   1.766   4.284   5.875 -0.6000 -0.4052 -0.9201
 7343TIP3   OH221973   3.335   3.926   5.516 -1.3250  0.3417  0.7019
 7343TIP3    H121974   3.306   3.943   5.426 -0.4719  1.1055  0.5570
 7343TIP3    H221975   3.422   3.966   5.520 -0.6547 -1.1559  1.3717
 7344TIP3   OH221976   3.837   3.807   5.140 -0.1003 -0.3492  0.1126
 7344TIP3    H121977   3.837   3.717   5.172 -0.7637  0.0121  1.1492
 7344TIP3    H221978   3.791   3.803   5.056 -0.2360 -0.9585  0.2159
 7345TIP3   OH221979   2.820   4.804   4.848  0.4759  0.0564  0.7330
 7345TIP3    H121980   2.727   4.787   4.833  0.6432 -0.0783 -0.1898
 7345TIP3    H221981   2.862   4.783   4.765  1.4040 -0.4251  1.3114
 7346TIP3   OH221982   3.209   2.280   4.018  0.5555  0.5383  0.2149
 7346TIP3    H121983   3.123   2.271   3.978  0.8657 -0.5106 -0.2201
 7346TIP3    H221984   3.248   2.193   4.012  1.5470  0.9433  0.6442
 7347TIP3   OH221985   2.922   2.406   3.058 -0.2368  0.0819  0.1521
 7347TIP3    H121986   2.981   2.479   3.043  0.7622 -0.1980  2.5667
 7347TIP3    H221987   2.834   2.443   3.048  0.2769  1.4353  0.6080
 7348TIP3   OH221988   4.057   3.433   4.576 -0.2264 -0.3189 -0.2644
 7348TIP3    H121989   4.011   3.475   4.503 -2.2720 -0.6807  0.7935
 7348TIP3    H221990   4.001   3.360   4.601  1.3081 -1.2376  0.5617
 7349TIP3   OH221991   4.845   5.188   6.377 -0.5505  0.2648 -0.3108
 7349TIP3    H121992   4.752   5.186   6.355 -0.2416 -0.1662 -1.6420
 7349TIP3    H221993   4.857   5.118   6.441 -1.0618  0.0512 -0.4500
 7350TIP3   OH221994   1.555   3.720   2.414  0.2657 -0.4465  0.2908
 7350TIP3    H121995   1.611   3.673   2.353 -0.0643  0.6805 -0.9097
 7350TIP3    H221996   1.466   3.690   2.395  0.3744 -1.8157  1.8127
 7351TIP3   OH221997   3.371   3.371   4.757 -0.8238 -0.1546  0.2089
 7351TIP3    H121998   3.431   3.406   4.691 -0.9184 -0.4151 -0.0164
 7351TIP3    H221999   3.382   3.276   4.752 -1.0751 -0.1924  0.3363
 7352TIP3   OH222000   2.613   2.763   5.672  0.2422 -0.3964  0.3908
 7352TIP3    H122001   2.625   2.826   5.743  2.7447 -1.5065  1.0101
 7352TIP3    H222002   2.651   2.806   5.595 -1.0003  0.1450  0.0661
 7353TIP3   OH222003   3.882   2.577   4.743  0.1089  0.0843 -0.1857
 7353TIP3    H122004   3.966   2.536   4.720  0.2980  0.2388  0.2189
 7353TIP3    H222005   3.827   2.503   4.771 -0.3326 -0.1833 -1.7112
 7354TIP3   OH222006   0.447   3.456   4.524 -0.2274  0.2856  0.2151
 7354TIP3    H122007   0.504   3.411   4.587  2.1025 -0.7091 -2.5138
 7354TIP3    H222008   0.378   3.392   4.504  0.3474 -0.2614 -0.0198
 7355TIP3   OH222009   4.167   3.447   5.638 -0.1499  0.1473  0.4136
 7355TIP3    H122010   4.160   3.366   5.588 -3.4054  0.7319 -0.1895
 7355TIP3    H222011   4.177   3.418   5.729 -0.3166 -0.9562  0.0849
 7356TIP3   OH222012   0.516   3.138   4.620 -0.1356 -0.0141  0.1480
 7356TIP3    H122013   0.551   3.207   4.675  0.3862 -0.2679  0.1389
 7356TIP3    H222014   0.441   3.103   4.669 -1.4251  1.6427 -0.5777
 7357TIP3   OH222015   0.244   3.387   3.785  0.7276 -0.1159 -0.0611
 7357TIP3    H122016   0.187   3.421   3.853  0.3978 -0.2096 -0.2875
 7357TIP3    H222017   0.185   3.347   3.722  1.0529 -0.3433 -0.2268
 7358TIP3   OH222018   0.917   3.999   5.535 -0.0022  0.6775 -0.0275
 7358TIP3    H122019   0.848   3.988   5.601 -0.1252 -0.9902 -0.4049
 7358TIP3    H222020   0.991   3.949   5.569  0.0494  0.0891 -0.9766
 7359TIP3   OH222021   5.278   4.635   5.494  0.4191  0.4192  0.4286
 7359TIP3    H122022   5.354   4.636   5.551  0.2829 -2.2081  0.7237
 7359TIP3    H222023   5.243   4.546   5.502 -2.5777  1.5198  0.1816
 7360TIP3   OH222024   7.477   0.187  -0.002 -0.4393  0.0449  0.4126
 7360TIP3    H122025   7.563   0.225  -0.017  0.7733 -3.2965 -1.8144
 7360TIP3    H222026   7.495   0.103   0.040 -2.4938 -1.2535 -1.1632
 7361TIP3   OH222027   2.707   2.521   4.165  0.4191  0.6108 -0.3283
 7361TIP3    H122028   2.619   2.544   4.193  0.8603  0.0483  1.6353
 7361TIP3    H222029   2.732   2.590   4.104 -1.8184  0.1198 -1.8671
 7362TIP3   OH222030   3.582   2.904   4.125  0.1146 -0.7492  0.0816
 7362TIP3    H122031   3.629   2.957   4.190 -0.1177 -0.5877  0.1185
 7362TIP3    H222032   3.609   2.814   4.144  0.1775 -0.6870  0.2939
 7363TIP3   OH222033   3.367   4.281   5.313 -0.2195  0.3226  0.4516
 7363TIP3    H122034   3.401   4.358   5.268 -0.2659  0.5318  0.7712
 7363TIP3    H222035   3.277   4.271   5.282 -0.0209  0.0460 -0.0401
 7364TIP3   OH222036   3.770   2.635   3.701 -0.2559  0.3336  0.3877
 7364TIP3    H122037   3.845   2.680   3.741  0.7153 -0.7248 -0.2101
 7364TIP3    H222038   3.707   2.624   3.772  0.8606 -0.2660  1.2998
 7365TIP3   OH222039   8.306   0.394   0.358  0.0946  0.4584  0.0301
 7365TIP3    H122040   8.257   0.472   0.381  1.0566  1.3727 -0.9274
 7365TIP3    H222041   8.375   0.388   0.425 -1.5929 -1.1217  1.6809
 7366TIP3   OH222042   3.689   2.380   4.773 -0.0742  0.4233  0.2659
 7366TIP3    H122043   3.695   2.332   4.691  0.2534  0.1351  0.4596
 7366TIP3    H222044   3.595   2.389   4.789 -0.1670 -2.0562  1.3446
 7367TIP3   OH222045   8.222   0.157   0.553 -0.0202  0.5039  0.2668
 7367TIP3    H122046   8.227   0.189   0.463 -1.0312 -1.6029 -0.5574
 7367TIP3    H222047   8.142   0.195   0.588  0.4641  1.4644  0.3534
 7368TIP3   OH222048   1.694   2.032   2.701 -0.2621 -0.1596 -0.6339
 7368TIP3    H122049   1.627   2.078   2.651 -0.9060 -0.0552  0.3079
 7368TIP3    H222050   1.731   2.100   2.759 -0.7222 -0.6573  0.2554
 7369TIP3   OH222051   3.491   4.977   6.156 -0.2727  0.6042 -0.4645
 7369TIP3    H122052   3.466   4.885   6.159 -2.5614  1.2193  0.8819
 7369TIP3    H222053   3.540   4.991   6.237 -1.8891  1.0874  0.4379
 7370TIP3   OH222054   3.390   5.673   4.157  0.1538 -0.6207 -0.1849
 7370TIP3    H122055   3.360   5.610   4.091  0.8837 -1.7581  0.5555
 7370TIP3    H222056   3.352   5.642   4.239  0.2902  0.0694  0.1402
 7371TIP3   OH222057   2.578   4.630   5.094 -0.3528  0.2409 -0.0717
 7371TIP3    H122058   2.608   4.602   5.008 -1.5736  0.8763 -0.7277
 7371TIP3    H222059   2.606   4.561   5.154  1.9291  0.5767 -0.7193
 7372TIP3   OH222060   2.300   5.233   1.928  0.7831 -0.8536  0.5258
 7372TIP3    H122061   2.273   5.168   1.993 -0.3606 -0.8776  0.0415
 7372TIP3    H222062   2.232   5.301   1.933  1.4893 -0.1369  0.4004
 7373TIP3   OH222063   2.416   4.250   5.644  0.8171  0.2872 -0.1603
 7373TIP3    H122064   2.355   4.317   5.674  0.1192  0.3101 -1.5561
 7373TIP3    H222065   2.503   4.290   5.654  0.5253  0.7009  0.7299
 7374TIP3   OH222066   2.737   2.303   4.933 -0.4026  0.6422  0.1809
 7374TIP3    H122067   2.665   2.287   4.872 -0.3066 -0.5430  0.3711
 7374TIP3    H222068   2.695   2.338   5.011 -0.9097 -1.0976  0.7094
 7375TIP3   OH222069   0.622   3.440   3.670  0.4755 -0.1205 -0.5572
 7375TIP3    H122070   0.664   3.390   3.600  0.6485  1.0265 -1.2971
 7375TIP3    H222071   0.547   3.482   3.627 -0.4412 -0.8027  0.3603
 7376TIP3   OH222072   0.546   6.065   4.489 -0.2759 -0.3617  0.3519
 7376TIP3    H122073   0.554   6.144   4.436 -0.5963  0.5639  1.6532
 7376TIP3    H222074   0.506   6.095   4.570 -0.8890 -1.9605  0.6553
 7377TIP3   OH222075   2.207   4.091   4.608 -0.5471 -0.3080  0.3355
 7377TIP3    H122076   2.283   4.073   4.553 -0.0134  0.2795  0.8814
 7377TIP3    H222077   2.230   4.054   4.693 -0.1417  1.4227  0.9919
 7378TIP3   OH222078   2.928   3.699   6.205 -0.0056 -0.2093  0.3917
 7378TIP3    H122079   2.950   3.651   6.125 -0.8478 -2.1570  1.3044
 7378TIP3    H222080   2.848   3.656   6.237 -0.5451  1.5420  1.4539
 7379TIP3   OH222081   2.230   5.224   5.135  0.1410  0.3803 -0.6029
 7379TIP3    H122082   2.143   5.231   5.096 -0.4282 -0.0082  0.5749
 7379TIP3    H222083   2.237   5.132   5.160 -0.2451  0.9956  1.8920
 7380TIP3   OH222084   2.621   5.744   3.988 -0.1570  0.0762 -0.3450
 7380TIP3    H122085   2.537   5.704   4.011 -0.0806  0.0482 -0.1132
 7380TIP3    H222086   2.686   5.678   4.013  0.0050  0.5605  0.5387
 7381TIP3   OH222087   4.018   6.826   6.836 -0.4887  0.2008 -0.5370
 7381TIP3    H122088   3.922   6.825   6.840 -0.4429  1.1273  2.3739
 7381TIP3    H222089   4.045   6.758   6.898  0.7327  0.4697 -0.7714
 7382TIP3   OH222090   2.802   4.179   3.006 -0.1124  0.1632  0.4750
 7382TIP3    H122091   2.868   4.234   2.963  0.7509 -0.3270  1.1338
 7382TIP3    H222092   2.718   4.212   2.975  0.4474  0.8912 -0.2780
 7383TIP3   OH222093   2.410   5.303   4.723 -0.0009 -0.0587  0.2630
 7383TIP3    H122094   2.406   5.244   4.647 -2.0485  2.4174 -1.6556
 7383TIP3    H222095   2.331   5.283   4.773 -0.6685  0.9893 -0.3600
 7384TIP3   OH222096   1.022   3.310   3.683  0.6544 -0.0086 -0.4295
 7384TIP3    H122097   1.117   3.311   3.695  0.6702  0.6214 -0.5875
 7384TIP3    H222098   1.000   3.400   3.660  0.1443 -0.3607 -1.3389
 7385TIP3   OH222099   2.127   6.217   5.387 -0.0565 -0.6517  0.7929
 7385TIP3    H122100   2.073   6.149   5.347  3.3697 -1.8755 -1.9837
 7385TIP3    H222101   2.118   6.292   5.328 -0.2300 -0.1745  1.4129
 7386TIP3   OH222102   3.281   5.766   4.566  0.1562 -0.2664 -0.2559
 7386TIP3    H122103   3.306   5.854   4.593 -0.9627  0.5140 -1.6668
 7386TIP3    H222104   3.225   5.734   4.637  1.0729 -0.1008  0.5521
 7387TIP3   OH222105   7.173   3.129   3.689  0.0928 -0.3027  0.5139
 7387TIP3    H122106   7.135   3.215   3.674 -0.0035 -0.2516  1.0310
 7387TIP3    H222107   7.194   3.096   3.602  0.0277  0.1974  0.3082
 7388TIP3   OH222108   3.193   3.970   3.729  0.3119  0.3404  0.2970
 7388TIP3    H122109   3.131   3.986   3.800  0.3737  2.5282 -0.1109
 7388TIP3    H222110   3.143   3.985   3.649  1.3150  2.1444 -0.0396
 7389TIP3   OH222111   2.037   4.719   4.694 -0.1480 -0.6818  0.7529
 7389TIP3    H122112   2.112   4.673   4.732  0.9559 -0.1259 -0.7043
 7389TIP3    H222113   2.076   4.781   4.631 -1.7923 -0.0341  0.3479
 7390TIP3   OH222114   4.558   3.637   3.234  0.6646  0.3459 -0.0462
 7390TIP3    H122115   4.639   3.670   3.197 -0.4500  0.7037 -2.2126
 7390TIP3    H222116   4.512   3.596   3.161 -0.4385 -1.1747  1.4592
 7391TIP3   OH222117   2.187   4.791   3.671 -0.5373  0.1717 -0.5456
 7391TIP3    H122118   2.226   4.723   3.616  0.7168  0.5150 -0.0925
 7391TIP3    H222119   2.134   4.743   3.735 -2.3874 -0.2220 -2.2955
 7392TIP3   OH222120   8.134   1.530   2.134  0.3919 -0.1070  0.3739
 7392TIP3    H122121   8.044   1.504   2.115  0.0852  0.5424  0.9169
 7392TIP3    H222122   8.134   1.549   2.227  1.4563 -1.5459  0.6764
 7393TIP3   OH222123   3.698   5.316   5.237 -0.2217 -0.2512  0.0917
 7393TIP3    H122124   3.692   5.397   5.289  0.6229  0.3021 -0.6642
 7393TIP3    H222125   3.783   5.278   5.262 -0.7080 -1.0199  0.6016
 7394TIP3   OH222126   3.613   1.755   3.626  0.0988 -0.6987 -0.1638
 7394TIP3    H122127   3.590   1.763   3.534 -0.9045 -0.8059  0.0802
 7394TIP3    H222128   3.607   1.661   3.644 -0.3914 -0.5964  0.1978
 7395TIP3   OH222129   1.314   5.932   5.332 -0.0075  0.0059  0.3177
 7395TIP3    H122130   1.252   5.990   5.376 -0.4761  0.8872 -1.4654
 7395TIP3    H222131   1.398   5.949   5.376 -0.0465  2.3542 -0.4582
 7396TIP3   OH222132   3.279   3.576   3.440 -1.4091  0.1649 -0.8905
 7396TIP3    H122133   3.231   3.643   3.392 -1.5080  1.1976  0.6154
 7396TIP3    H222134   3.286   3.611   3.529  0.4680 -0.8311 -0.6267
 7397TIP3   OH222135   2.813   0.092   4.177 -0.7335 -0.0117 -0.7376
 7397TIP3    H122136   2.787   0.059   4.263 -0.5471  0.1709 -0.6112
 7397TIP3    H222137   2.892   0.041   4.156  1.1091  2.1870  0.6358
 7398TIP3   OH222138   1.744   3.401   4.669 -0.4366 -0.3837  0.1170
 7398TIP3    H122139   1.776   3.457   4.740 -0.5527 -2.4955  1.8795
 7398TIP3    H222140   1.824   3.367   4.628 -0.3741  0.6246 -0.6259
 7399TIP3   OH222141   2.312   3.567   5.719 -0.4389  0.2984  0.1658
 7399TIP3    H122142   2.259   3.498   5.678  0.3831 -0.2327 -0.0150
 7399TIP3    H222143   2.263   3.648   5.702  0.3413  0.2307 -2.7717
 7400TIP3   OH222144   1.722   6.238   2.682  0.1863 -0.2437 -0.2772
 7400TIP3    H122145   1.751   6.264   2.770  1.4927  0.5258 -0.9153
 7400TIP3    H222146   1.640   6.191   2.696  0.8560 -0.9187  1.4296
 7401TIP3   OH222147   8.146   3.117   4.431  0.2344  0.1637 -0.0375
 7401TIP3    H122148   8.121   3.126   4.523  1.1429  0.8793  0.1445
 7401TIP3    H222149   8.104   3.035   4.403 -1.9998  1.1229  0.3427
 7402TIP3   OH222150   0.401   4.984   5.030 -0.0921 -0.1047 -0.1863
 7402TIP3    H122151   0.326   4.927   5.049 -1.1462  1.3860  0.2239
 7402TIP3    H222152   0.364   5.058   4.983  1.4275 -0.2344 -1.6303
 7403TIP3   OH222153   2.833   4.981   6.346 -0.3060 -0.5078 -0.4697
 7403TIP3    H122154   2.888   4.949   6.417 -0.2864 -0.5895 -0.5220
 7403TIP3    H222155   2.857   5.073   6.336 -0.0218 -0.6011 -0.6411
 7404TIP3   OH222156   1.442   5.776   4.897 -0.8335 -0.2256 -0.5284
 7404TIP3    H122157   1.407   5.720   4.828 -0.6060  0.4714 -1.2129
 7404TIP3    H222158   1.468   5.856   4.852 -0.1958  0.0288  0.2904
 7405TIP3   OH222159   4.652   4.551   5.819 -0.6372 -0.3545 -0.4723
 7405TIP3    H122160   4.745   4.569   5.806 -0.6399 -1.7310 -2.6011
 7405TIP3    H222161   4.644   4.456   5.807 -2.2331 -0.3351  0.3016
 7406TIP3   OH222162   2.691   5.118   3.987 -0.3579 -0.0004  0.0466
 7406TIP3    H122163   2.783   5.124   3.964 -0.4218 -0.6984 -0.3989
 7406TIP3    H222164   2.685   5.158   4.073  0.4828 -0.6275  0.3989
 7407TIP3   OH222165   1.351   6.445   4.662  0.0042  0.5744  0.4916
 7407TIP3    H122166   1.326   6.518   4.606  0.8775  1.2530  0.9772
 7407TIP3    H222167   1.446   6.455   4.673  0.3917 -1.5067 -0.6935
 7408TIP3   OH222168   3.025   3.967   5.495  0.1663  0.3227 -0.6831
 7408TIP3    H122169   3.107   3.963   5.446  1.9656  0.7573  2.1312
 7408TIP3    H222170   3.040   3.910   5.571 -1.3175  2.0636  0.9897
 7409TIP3   OH222171   2.624   5.720   5.408  0.4189 -0.6337 -0.1260
 7409TIP3    H122172   2.564   5.656   5.372 -1.9776  1.6762 -0.3886
 7409TIP3    H222173   2.653   5.682   5.491 -2.0432 -1.4341  0.3947
 7410TIP3   OH222174   2.645   5.422   3.708  0.8603  0.0787 -0.0282
 7410TIP3    H122175   2.583   5.495   3.699  1.1766  0.2808 -0.6345
 7410TIP3    H222176   2.599   5.357   3.761  0.5162  0.6548  0.3870
 7411TIP3   OH222177   4.163   7.052   5.207  0.0903 -0.4128  1.0328
 7411TIP3    H122178   4.176   7.002   5.288  1.3305  0.5609  1.4504
 7411TIP3    H222179   4.232   7.119   5.209  0.0605 -0.3068 -0.7725
 7412TIP3   OH222180   4.099   4.074   6.552 -0.2940 -0.0914  0.2287
 7412TIP3    H122181   4.102   3.989   6.508 -1.6686 -0.4587  0.8104
 7412TIP3    H222182   4.021   4.117   6.515  0.1866  0.7622  0.1986
 7413TIP3   OH222183   2.015   3.727   5.086 -0.0592  0.4365 -0.0670
 7413TIP3    H122184   2.045   3.761   5.002 -1.7556  1.0239 -0.4560
 7413TIP3    H222185   1.924   3.756   5.092 -0.3495 -0.7480  1.3679
 7414TIP3   OH222186   3.725   3.303   6.314 -0.3447 -0.1810 -0.0561
 7414TIP3    H122187   3.637   3.264   6.319 -1.1114  1.5951  0.6535
 7414TIP3    H222188   3.746   3.325   6.405  0.9819 -0.9034 -0.1869
 7415TIP3   OH222189   4.109   2.490   4.614  0.2603 -1.0216  0.3061
 7415TIP3    H122190   4.162   2.551   4.563 -0.6890  1.3352  2.0053
 7415TIP3    H222191   4.122   2.405   4.573  0.7036  0.5189 -2.8720
 7416TIP3   OH222192   2.642   3.717   5.842 -0.0906 -0.3820  0.2563
 7416TIP3    H122193   2.627   3.666   5.762  3.6090 -0.2194 -0.6729
 7416TIP3    H222194   2.602   3.802   5.825  1.3420 -0.0821 -1.8337
 7417TIP3   OH222195   4.090   2.538   6.156  0.1333  0.0814 -0.4849
 7417TIP3    H122196   4.100   2.611   6.095 -0.4531  0.0723 -0.6002
 7417TIP3    H222197   4.165   2.481   6.139 -0.0176  0.0882 -1.1922
 7418TIP3   OH222198   2.277   4.702   5.099 -0.2966  0.7177 -0.1737
 7418TIP3    H122199   2.255   4.649   5.022 -1.9445  2.8680 -1.2132
 7418TIP3    H222200   2.372   4.696   5.105 -0.4191 -2.2271 -0.3405
 7419TIP3   OH222201   4.617   4.346   6.253  0.4253  0.2371  0.2241
 7419TIP3    H122202   4.628   4.277   6.188  0.0851  0.5026 -0.1186
 7419TIP3    H222203   4.575   4.418   6.205  0.1495  0.4259  0.7423
 7420TIP3   OH222204   3.807   2.999   4.897  0.5465 -0.2299  0.4425
 7420TIP3    H122205   3.837   3.072   4.951 -0.4854  0.6530 -0.1335
 7420TIP3    H222206   3.747   2.950   4.953 -0.1254  0.3915  0.2818
 7421TIP3   OH222207   3.074   1.415   5.747  0.0269  0.0595  0.3685
 7421TIP3    H122208   3.062   1.324   5.776 -1.0893  0.1386  0.1694
 7421TIP3    H222209   3.126   1.408   5.667 -1.5014 -0.5296 -0.5879
 7422TIP3   OH222210   1.126   4.058   5.851  0.1492 -0.4252 -0.3402
 7422TIP3    H122211   1.060   4.072   5.919  1.2336  0.2905  0.5994
 7422TIP3    H222212   1.126   3.963   5.836  1.5986 -0.9395  2.4801
 7423TIP3   OH222213   2.417   4.150   3.592 -0.2272  0.2287  0.0928
 7423TIP3    H122214   2.362   4.134   3.515  0.5669 -1.4618 -0.1442
 7423TIP3    H222215   2.380   4.093   3.660  2.8982 -3.1475 -0.8741
 7424TIP3   OH222216   0.790   2.501   3.702 -0.6858 -0.3353  0.0185
 7424TIP3    H122217   0.786   2.442   3.627  0.4818 -2.2423  1.3979
 7424TIP3    H222218   0.799   2.588   3.664  2.0926 -1.4518 -2.0313
 7425TIP3   OH222219   3.613   3.571   6.348 -0.0282 -0.0210  0.2116
 7425TIP3    H122220   3.664   3.490   6.348 -0.3538 -0.3087 -3.0058
 7425TIP3    H222221   3.615   3.600   6.257 -2.4203  1.9869  0.7434
 7426TIP3   OH222222   4.993   3.992   5.783 -0.4088 -0.1491 -0.3024
 7426TIP3    H122223   4.958   4.081   5.775 -0.4472 -0.1692 -0.3562
 7426TIP3    H222224   4.972   3.965   5.872  0.0011  0.0684 -0.1381
 7427TIP3   OH222225   3.869   3.181   5.076  0.0749 -0.1370  0.3978
 7427TIP3    H122226   3.953   3.205   5.114  1.0002  0.1712 -1.7249
 7427TIP3    H222227   3.805   3.233   5.124  1.2871  0.9924  0.8442
 7428TIP3   OH222228   8.073   3.272   5.351  0.0007  0.0070  0.6071
 7428TIP3    H122229   8.112   3.330   5.416  0.9827 -1.2188  1.1264
 7428TIP3    H222230   8.032   3.331   5.288 -0.3731  1.2341  1.9557
 7429TIP3   OH222231   4.477   5.716   5.415  0.1991  0.7618 -0.1356
 7429TIP3    H122232   4.413   5.787   5.416 -0.4705  0.1632  0.0549
 7429TIP3    H222233   4.451   5.661   5.342  0.6299  0.6382 -0.1964
 7430TIP3   OH222234   4.743   5.151   4.775  0.4174 -0.1022  0.1755
 7430TIP3    H122235   4.687   5.074   4.778  0.6825 -0.4274 -2.0903
 7430TIP3    H222236   4.696   5.217   4.826 -0.9840 -1.0377  0.1179
 7431TIP3   OH222237   2.845   3.619   4.590 -0.1697  0.2128  0.2706
 7431TIP3    H122238   2.926   3.569   4.584 -0.1688  0.2811 -0.3195
 7431TIP3    H222239   2.851   3.666   4.673 -0.2592 -0.9249  0.9217
 7432TIP3   OH222240   1.460   3.396   6.779  0.2522 -0.6663 -0.3107
 7432TIP3    H122241   1.520   3.436   6.716 -0.2627  1.8008  0.7049
 7432TIP3    H222242   1.518   3.359   6.846  0.7310  0.1255 -0.2670
 7433TIP3   OH222243   0.165   4.462   5.641 -0.6268  0.3825  1.0452
 7433TIP3    H122244   0.212   4.514   5.706 -1.0504  0.9634  0.8985
 7433TIP3    H222245   0.169   4.515   5.561  1.6541 -1.2610  0.0477
 7434TIP3   OH222246   1.727   4.452   4.145  0.0705  0.2508 -0.4824
 7434TIP3    H122247   1.787   4.431   4.216 -1.3766  1.2493  1.0879
 7434TIP3    H222248   1.686   4.368   4.123  0.9026 -0.1557 -0.5107
 7435TIP3   OH222249   4.216   4.376   5.682  0.4713 -0.1994  0.3146
 7435TIP3    H122250   4.185   4.333   5.602  1.9290  0.2471 -0.5060
 7435TIP3    H222251   4.311   4.374   5.674  0.5855  1.1132  1.3763
 7436TIP3   OH222252   4.264   4.079   2.236  0.0026 -0.1421  0.3783
 7436TIP3    H122253   4.320   4.155   2.252 -1.6250  1.0315  0.5312
 7436TIP3    H222254   4.262   4.033   2.320 -0.8920  0.9105  0.9385
 7437TIP3   OH222255   3.701   5.549   5.387 -0.2069 -0.1792  0.2505
 7437TIP3    H122256   3.788   5.573   5.356  0.0547 -1.1190  0.2404
 7437TIP3    H222257   3.646   5.625   5.368  0.3441 -0.0633 -0.8805
 7438TIP3   OH222258   4.134   2.775   6.002 -0.5877 -0.5370  0.2456
 7438TIP3    H122259   4.187   2.843   6.044  1.1531 -1.9424  0.3437
 7438TIP3    H222260   4.103   2.817   5.921 -1.5254  1.1731  1.4481
 7439TIP3   OH222261   3.648   4.633   4.728 -0.2296  0.0028  0.4136
 7439TIP3    H122262   3.730   4.630   4.777  1.1987 -0.8860 -1.9495
 7439TIP3    H222263   3.609   4.717   4.751  1.6775  0.7263  1.0623
 7440TIP3   OH222264   2.722   3.711   4.364 -0.2595 -0.5117  0.0897
 7440TIP3    H122265   2.755   3.692   4.452  1.1195 -0.9310 -0.5055
 7440TIP3    H222266   2.787   3.771   4.327 -1.0585 -0.0042 -0.4921
 7441TIP3   OH222267   3.473   3.275   5.033  0.1100 -0.4796 -0.2494
 7441TIP3    H122268   3.435   3.354   4.994  0.1652 -0.9937 -1.3691
 7441TIP3    H222269   3.457   3.206   4.968  1.5319 -1.0409 -0.0374
 7442TIP3   OH222270   1.708   3.715   4.174 -0.3333  0.3555  0.7720
 7442TIP3    H122271   1.626   3.689   4.215 -0.4164  0.9225  0.9757
 7442TIP3    H222272   1.689   3.716   4.080 -0.2117 -0.7035  0.7346
 7443TIP3   OH222273   2.542   3.624   3.697 -0.6679 -0.7824 -0.1535
 7443TIP3    H122274   2.508   3.551   3.645 -0.1646 -0.0227 -1.5879
 7443TIP3    H222275   2.633   3.634   3.667 -0.4642 -0.1333  0.6698
 7444TIP3   OH222276   3.727   5.999   4.349 -0.6468  0.9279  0.2123
 7444TIP3    H122277   3.815   5.965   4.363 -0.3900  1.7581  0.6248
 7444TIP3    H222278   3.676   5.923   4.320 -0.2296  0.0315  1.7488
 7445TIP3   OH222279   2.009   3.632   6.321  0.1477 -0.7865  0.1359
 7445TIP3    H122280   2.025   3.696   6.252 -0.1864 -0.8801 -0.0294
 7445TIP3    H222281   2.050   3.670   6.399  0.2732 -0.5450 -0.0486
 7446TIP3   OH222282   3.944   2.249   4.201  0.0385  0.2882 -0.6281
 7446TIP3    H122283   4.008   2.211   4.141  1.3249 -0.3638  1.1171
 7446TIP3    H222284   3.924   2.334   4.164  2.9268  1.0523 -0.5236
 7447TIP3   OH222285   3.541   2.396   4.415  0.0354 -0.2857  0.4186
 7447TIP3    H122286   3.571   2.327   4.357 -1.4575 -1.2833  0.8386
 7447TIP3    H222287   3.582   2.375   4.500 -1.5754 -1.4741  0.9129
 7448TIP3   OH222288   4.779   3.503   5.497  0.1868  0.1052  0.1942
 7448TIP3    H122289   4.736   3.418   5.505 -0.5728  0.5141  0.4595
 7448TIP3    H222290   4.867   3.482   5.465 -0.6075 -0.6281 -1.5422
 7449TIP3   OH222291   3.641   2.805   4.996 -0.2889  0.1984 -0.3384
 7449TIP3    H122292   3.555   2.817   5.035  0.2253  1.1607  0.5646
 7449TIP3    H222293   3.625   2.789   4.903 -1.3824  1.9391 -0.4755
 7450TIP3   OH222294   4.767   4.803   6.256 -0.1703  0.0656 -0.7408
 7450TIP3    H122295   4.847   4.838   6.295  0.2088 -1.4358 -0.1252
 7450TIP3    H222296   4.729   4.748   6.325 -1.9326  1.0665 -0.8974
 7451TIP3   OH222297   4.231   3.794   5.224 -0.1347 -0.3985  0.2000
 7451TIP3    H122298   4.179   3.822   5.299  1.2220  0.3751  0.8778
 7451TIP3    H222299   4.207   3.855   5.154 -2.2437 -1.8197 -0.3669
 7452TIP3   OH222300   0.608   3.085   6.380 -0.2890 -0.2012 -0.0856
 7452TIP3    H122301   0.696   3.087   6.341 -0.4048 -0.0919 -0.3411
 7452TIP3    H222302   0.556   3.142   6.324 -0.3200  0.4171  0.5685
 7453TIP3   OH222303   2.419   2.647   4.780  0.0502  0.2980 -0.0500
 7453TIP3    H122304   2.418   2.562   4.736  1.8564  1.0471 -1.5989
 7453TIP3    H222305   2.363   2.703   4.726  1.7296  1.0407 -1.0242
 7454TIP3   OH222306   5.568   5.052   5.394  0.1794  0.0336  0.5948
 7454TIP3    H122307   5.504   5.046   5.323 -0.0288 -2.3873  0.9526
 7454TIP3    H222308   5.526   5.107   5.460 -0.7654 -0.0239  0.0413
 7455TIP3   OH222309   4.271   3.440   3.240 -0.2359 -0.4043  0.0196
 7455TIP3    H122310   4.258   3.463   3.333  1.6071 -0.3241  0.2843
 7455TIP3    H222311   4.224   3.357   3.229  2.6684 -2.4431  2.0460
 7456TIP3   OH222312   0.936   2.266   3.866 -0.4317 -0.1436  0.7033
 7456TIP3    H122313   1.009   2.244   3.924  1.9404 -0.3064 -2.2141
 7456TIP3    H222314   0.946   2.359   3.848 -0.9741 -0.1580  0.3083
 7457TIP3   OH222315   2.352   4.481   4.567  0.2593  0.2568 -0.6955
 7457TIP3    H122316   2.307   4.508   4.487  0.7972  1.6052 -0.5503
 7457TIP3    H222317   2.281   4.458   4.628 -0.2695  2.7792 -0.3248
 7458TIP3   OH222318   1.465   4.557   5.600 -0.3340 -0.3743 -0.4385
 7458TIP3    H122319   1.386   4.575   5.548  0.1767  1.1406 -0.7014
 7458TIP3    H222320   1.504   4.480   5.558 -0.8900 -0.2491 -1.2018
 7459TIP3   OH222321   2.887   5.641   2.346 -0.1480 -0.0203  0.1424
 7459TIP3    H122322   2.973   5.602   2.361  0.0385  0.1058 -0.5655
 7459TIP3    H222323   2.871   5.628   2.252 -1.8914 -2.0316  0.7043
 7460TIP3   OH222324   3.252   1.701   4.067 -0.0887 -0.0268  0.1251
 7460TIP3    H122325   3.325   1.725   4.124 -0.0370  1.1297 -0.4166
 7460TIP3    H222326   3.180   1.757   4.095  0.0583  0.8458 -1.2227
 7461TIP3   OH222327   2.615   6.736   5.205 -0.0490 -0.0808 -0.4253
 7461TIP3    H122328   2.619   6.828   5.232 -1.4677 -0.2301  0.3545
 7461TIP3    H222329   2.557   6.695   5.269 -1.3523 -1.0141 -2.1724
 7462TIP3   OH222330   2.898   5.964   4.893  0.5639 -0.3368  0.4290
 7462TIP3    H122331   2.866   6.016   4.820  1.7638 -0.5297 -0.2479
 7462TIP3    H222332   2.888   5.873   4.864  0.2528 -0.4348  0.8411
 7463TIP3   OH222333   3.859   5.879   4.690 -0.2608  0.3521 -0.2201
 7463TIP3    H122334   3.892   5.891   4.602 -0.2243 -0.9997 -0.3970
 7463TIP3    H222335   3.902   5.800   4.722 -0.3754  0.7493  0.9553
 7464TIP3   OH222336   1.274   6.221   3.376  0.9871 -0.2714 -0.2069
 7464TIP3    H122337   1.235   6.281   3.312  1.1493 -1.7115 -1.6657
 7464TIP3    H222338   1.327   6.161   3.324  2.6559 -0.2876  1.4691
 7465TIP3   OH222339   2.108   4.613   2.897 -1.2530 -0.0814 -0.2902
 7465TIP3    H122340   2.186   4.628   2.843 -2.0930  1.0679 -1.2214
 7465TIP3    H222341   2.136   4.549   2.962  1.1456  2.1147  0.9076
 7466TIP3   OH222342   5.918   2.047   0.478  0.2484  0.2348 -0.1218
 7466TIP3    H122343   6.004   2.030   0.438  0.6619 -0.4803  1.0556
 7466TIP3    H222344   5.915   2.143   0.488  0.2744  0.3906 -1.5468
 7467TIP3   OH222345   1.739   6.588   6.100 -0.4689  0.0906 -0.0055
 7467TIP3    H122346   1.750   6.672   6.143  0.7710  0.5585 -1.1832
 7467TIP3    H222347   1.678   6.539   6.156 -1.4437  1.8776  0.5096
 7468TIP3   OH222348   3.285   2.894   6.191  0.4342 -0.6666  0.2168
 7468TIP3    H122349   3.343   2.944   6.134  1.9030 -2.9805 -0.4065
 7468TIP3    H222350   3.203   2.942   6.190  1.4608  1.1179 -1.2218
 7469TIP3   OH222351   1.090   3.700   6.487 -0.1330 -0.1460  0.4821
 7469TIP3    H122352   1.115   3.744   6.406  0.1300 -1.4258 -0.1431
 7469TIP3    H222353   1.028   3.760   6.529  0.8318  1.1901  0.0523
 7470TIP3   OH222354   7.905   4.306   4.709  0.2452  0.2874 -0.3879
 7470TIP3    H122355   7.884   4.376   4.647 -0.7330  0.5175  0.2096
 7470TIP3    H222356   7.846   4.319   4.782  0.6625 -0.6411  0.1252
 7471TIP3   OH222357   3.246   4.527   4.792 -0.0863 -0.5256 -0.3116
 7471TIP3    H122358   3.221   4.523   4.700 -0.6131 -0.4284 -0.1709
 7471TIP3    H222359   3.271   4.618   4.807 -1.6032 -0.1675  0.0657
 7472TIP3   OH222360   2.668   3.332   4.764 -0.1418 -0.3121  0.1482
 7472TIP3    H122361   2.611   3.270   4.719 -1.3123 -0.4623  1.8031
 7472TIP3    H222362   2.724   3.368   4.695 -2.9410  0.6348 -1.6677
 7473TIP3   OH222363   4.973   2.012   5.149  0.0446 -0.7440 -0.3772
 7473TIP3    H122364   4.893   2.062   5.169  2.8334  2.9789  2.1594
 7473TIP3    H222365   4.957   1.927   5.190 -2.7236 -0.1670 -0.1007
 7474TIP3   OH222366   4.677   3.414   4.634 -0.3522  0.1067  0.5934
 7474TIP3    H122367   4.606   3.460   4.589 -1.1391 -1.2138  0.4797
 7474TIP3    H222368   4.750   3.477   4.633 -1.1174  0.9971 -0.3885
 7475TIP3   OH222369   4.339   3.604   3.992  0.2946 -0.0881  0.4289
 7475TIP3    H122370   4.391   3.620   3.913  0.7375 -0.0495  0.7266
 7475TIP3    H222371   4.303   3.689   4.015 -0.8043 -0.3145 -0.4061
 7476TIP3   OH222372   2.954   1.338   4.562 -0.1048  0.3141  0.4465
 7476TIP3    H122373   3.019   1.316   4.496  0.5854 -1.1413  1.5835
 7476TIP3    H222374   2.957   1.266   4.625 -2.0649  0.7516  1.0937
 7477TIP3   OH222375   2.446   3.615   4.706  0.1951  0.2389  0.0824
 7477TIP3    H122376   2.435   3.536   4.653 -1.7042  0.5676 -0.0513
 7477TIP3    H222377   2.467   3.684   4.643 -0.2586  0.2583 -0.0525
 7478TIP3   OH222378   2.482   3.831   3.387 -0.2874 -0.1810 -0.0203
 7478TIP3    H122379   2.502   3.738   3.384  1.8814  0.2792 -0.8743
 7478TIP3    H222380   2.388   3.837   3.369  0.0992 -1.9979 -2.9160
 7479TIP3   OH222381   2.484   3.001   3.597  0.4308  0.2227  0.2006
 7479TIP3    H122382   2.414   2.970   3.655 -1.0723  1.3647 -0.9592
 7479TIP3    H222383   2.455   2.976   3.509  0.7248  2.0769 -0.4420
 7480TIP3   OH222384   1.384   2.926   4.884 -0.0986 -0.3173  0.2647
 7480TIP3    H122385   1.290   2.910   4.890 -0.0456 -0.6256  0.2354
 7480TIP3    H222386   1.418   2.857   4.826  0.2056 -0.4389  0.5857
 7481TIP3   OH222387   2.013   4.419   5.102  0.2435  0.2701 -0.0467
 7481TIP3    H122388   1.978   4.508   5.092  0.1189  0.3729  1.1776
 7481TIP3    H222389   1.961   4.381   5.173  1.3187 -0.2391  0.4926
 7482TIP3   OH222390   1.908   2.397   4.687 -0.3481  0.2474 -0.3028
 7482TIP3    H122391   1.939   2.439   4.767 -2.5157  2.0587 -0.3786
 7482TIP3    H222392   1.926   2.460   4.618 -2.3744  0.5290 -0.6061
 7483TIP3   OH222393   4.281   1.232   4.211  0.3071 -0.6670  0.2002
 7483TIP3    H122394   4.274   1.312   4.262  0.0196 -0.5667  0.0080
 7483TIP3    H222395   4.233   1.251   4.130  0.4347 -0.9528  0.0566
 7484TIP3   OH222396   2.679   6.128   2.912 -0.2869 -0.2649 -0.2338
 7484TIP3    H122397   2.744   6.165   2.971 -0.8582 -0.9494  0.8518
 7484TIP3    H222398   2.730   6.090   2.840  0.5553 -1.1967  0.8337
 7485TIP3   OH222399   3.001   0.803   4.090  0.0104  0.0035 -0.0417
 7485TIP3    H122400   3.086   0.779   4.128 -0.4054 -0.5920  0.5237
 7485TIP3    H222401   3.004   0.899   4.084  0.8930 -0.0394 -0.4452
 7486TIP3   OH222402   1.248   4.890   4.903 -0.6323  0.0430  0.3243
 7486TIP3    H122403   1.266   4.977   4.940 -3.3827  0.4069  0.8868
 7486TIP3    H222404   1.180   4.904   4.837  0.0377 -1.4674 -0.7312
 7487TIP3   OH222405   3.769   5.998   5.748 -0.2742  0.2928 -0.0750
 7487TIP3    H122406   3.701   6.009   5.683 -1.4114 -2.6645  0.5423
 7487TIP3    H222407   3.723   5.999   5.832  0.6442  0.0264  0.4444
 7488TIP3   OH222408   3.227   4.723   6.096 -0.0315  0.5101  0.3199
 7488TIP3    H122409   3.315   4.685   6.100  0.3115  1.2214 -0.3460
 7488TIP3    H222410   3.219   4.755   6.006 -0.6910  1.1194  0.5941
 7489TIP3   OH222411   4.406   5.046   5.303  0.1190 -0.3909  0.0306
 7489TIP3    H122412   4.462   5.079   5.233  0.4020 -1.7361 -0.3911
 7489TIP3    H222413   4.455   5.064   5.383 -0.1930  1.1252 -0.1199
 7490TIP3   OH222414   3.684   4.105   5.360 -0.5898  0.2071  0.0643
 7490TIP3    H122415   3.754   4.058   5.314 -0.9222 -1.3446  1.0912
 7490TIP3    H222416   3.653   4.170   5.297 -0.4441 -1.2792 -1.5870
 7491TIP3   OH222417   4.642   3.569   2.798 -0.2216  0.2121 -0.5674
 7491TIP3    H122418   4.597   3.536   2.875  1.2314 -0.4329  0.0347
 7491TIP3    H222419   4.716   3.510   2.787 -0.4091  0.3084 -2.4553
 7492TIP3   OH222420   6.358   4.347   3.423 -0.0845  0.6627 -0.2937
 7492TIP3    H122421   6.347   4.431   3.378 -0.6972  0.3756 -0.6855
 7492TIP3    H222422   6.304   4.286   3.374 -0.4024  0.2411  0.5628
 7493TIP3   OH222423   7.425   5.970   3.967 -0.0612  0.0319  0.4721
 7493TIP3    H122424   7.459   6.054   3.937 -1.2081  0.5959  0.7492
 7493TIP3    H222425   7.462   5.906   3.905  1.4197  0.6428  0.7212
 7494TIP3   OH222426   5.755   4.135   5.758  0.0052  0.9824  0.4677
 7494TIP3    H122427   5.800   4.114   5.840 -0.9923 -0.4938  0.6413
 7494TIP3    H222428   5.697   4.061   5.741 -1.0590  2.0361 -0.6950
 7495TIP3   OH222429   5.734   5.634   3.883  0.6197  0.3626  0.1151
 7495TIP3    H122430   5.694   5.595   3.961  1.1356  0.7556  0.5811
 7495TIP3    H222431   5.820   5.591   3.877  0.5566  0.2873 -0.2747
 7496TIP3   OH222432   5.970   4.860   5.475  0.1443  0.6175  0.1399
 7496TIP3    H122433   6.063   4.842   5.488  0.3249  1.1294 -0.4483
 7496TIP3    H222434   5.953   4.937   5.529 -0.5290 -0.9877  2.3015
 7497TIP3   OH222435   6.036   5.484   4.973 -0.0923  0.0737 -0.0233
 7497TIP3    H122436   6.060   5.576   4.971  0.6336 -0.1340 -1.5453
 7497TIP3    H222437   5.953   5.482   5.021 -0.9393  1.7227 -1.3301
 7498TIP3   OH222438   1.996   3.862   2.250  0.4653 -0.0756  0.3280
 7498TIP3    H122439   2.021   3.792   2.310  1.5856  0.7356  0.8251
 7498TIP3    H222440   2.044   3.938   2.280 -0.6475  0.8900 -0.2897
 7499TIP3   OH222441   4.075   3.623   3.843 -0.2958 -0.4732  0.1613
 7499TIP3    H122442   4.156   3.627   3.793  0.1422  0.3436  0.9293
 7499TIP3    H222443   4.089   3.681   3.918 -1.9089  0.3919 -0.1689
 7500TIP3   OH222444   5.572   3.193   4.939  0.6163 -0.1474  0.1225
 7500TIP3    H122445   5.640   3.150   4.991 -1.0594 -1.0010  1.6628
 7500TIP3    H222446   5.518   3.121   4.906 -0.5045  0.6076  0.2786
 7501TIP3   OH222447   1.442   3.962   4.368 -0.1818 -0.1928 -0.2916
 7501TIP3    H122448   1.533   3.988   4.379 -0.5292  0.3080  1.6421
 7501TIP3    H222449   1.422   3.983   4.277  1.1939  1.0728 -0.3314
 7502TIP3   OH222450   5.304   6.079   4.643  0.7066  0.2023  0.1366
 7502TIP3    H122451   5.388   6.110   4.609 -0.0358  2.1047 -0.0454
 7502TIP3    H222452   5.292   6.129   4.724  0.0919 -0.6030  0.5508
 7503TIP3   OH222453   2.850   3.445   5.068 -0.0100  0.3772 -0.0279
 7503TIP3    H122454   2.779   3.492   5.023 -0.3569 -0.5215 -0.4469
 7503TIP3    H222455   2.875   3.502   5.140 -0.1682  1.3710 -0.7470
 7504TIP3   OH222456   6.429   4.078   3.039 -0.1519 -0.1309 -0.1432
 7504TIP3    H122457   6.368   4.084   3.112 -2.3043  2.7949 -2.0709
 7504TIP3    H222458   6.388   4.018   2.978 -1.2826  2.0529 -1.5653
 7505TIP3   OH222459   3.786   5.079   4.584 -0.3722  0.5589 -0.6791
 7505TIP3    H122460   3.825   5.082   4.496  0.3455  1.8094 -0.3334
 7505TIP3    H222461   3.844   5.022   4.634 -0.3574  0.4439 -0.8303
 7506TIP3   OH222462   4.326   3.981   4.945 -0.1937 -0.1462 -0.3879
 7506TIP3    H122463   4.254   3.918   4.932 -0.0419 -0.1868 -1.0591
 7506TIP3    H222464   4.389   3.958   4.877 -0.3713  1.0768 -0.9751
 7507TIP3   OH222465   4.716   4.830   2.725 -0.4434  0.2753 -0.9351
 7507TIP3    H122466   4.694   4.757   2.782  1.0135  1.9173  1.8625
 7507TIP3    H222467   4.644   4.893   2.738  0.1653  0.8839 -0.4520
 7508TIP3   OH222468   3.480   6.173   2.193 -0.2397  0.6888  0.1495
 7508TIP3    H122469   3.558   6.192   2.245  0.1008 -0.0730 -0.0735
 7508TIP3    H222470   3.482   6.078   2.181 -1.3003  0.6446  0.2956
 7509TIP3   OH222471   4.707   2.483   4.386 -0.5036  0.3454 -0.0929
 7509TIP3    H122472   4.648   2.492   4.311 -0.5502 -1.2401 -0.2546
 7509TIP3    H222473   4.692   2.394   4.418 -1.9306  1.6053  3.0367
 7510TIP3   OH222474   6.180   3.865   3.439 -0.5150 -0.7182 -0.5234
 7510TIP3    H122475   6.197   3.841   3.530  1.4395  0.2961 -0.5861
 7510TIP3    H222476   6.231   3.803   3.388  0.9643  0.7214 -0.8161
 7511TIP3   OH222477   5.263   3.392   2.396  0.6829 -0.1660 -0.8550
 7511TIP3    H122478   5.343   3.353   2.430  1.9332  1.3595 -1.9746
 7511TIP3    H222479   5.293   3.453   2.328 -1.1501  2.9418  0.9950
 7512TIP3   OH222480   5.428   5.334   5.758  0.2337  0.0547 -0.6471
 7512TIP3    H122481   5.398   5.425   5.752 -0.2669 -0.0870 -0.3658
 7512TIP3    H222482   5.369   5.294   5.822  1.7088  0.0407  0.7482
 7513TIP3   OH222483   5.006   3.910   5.489 -0.4959  0.1714 -0.0622
 7513TIP3    H122484   4.972   4.000   5.485  3.0931  1.5977  0.2585
 7513TIP3    H222485   5.059   3.907   5.568  0.7632 -1.7513 -0.9392
 7514TIP3   OH222486   5.997   3.264   2.670 -0.3307 -0.7600 -0.1786
 7514TIP3    H122487   5.946   3.229   2.743 -0.7013 -1.2268 -0.6573
 7514TIP3    H222488   6.085   3.229   2.684  0.2581  1.2609  1.4806
 7515TIP3   OH222489   3.245   5.572   3.299  0.5616  0.0966 -0.1638
 7515TIP3    H122490   3.168   5.629   3.294  1.4367  1.3026  0.1324
 7515TIP3    H222491   3.319   5.631   3.310  1.4154 -1.1226  0.8077
 7516TIP3   OH222492   5.914   3.773   3.696 -0.0169  0.2152  0.2915
 7516TIP3    H122493   5.897   3.864   3.719 -0.5669  0.0207  0.6701
 7516TIP3    H222494   5.833   3.727   3.720 -0.8890  0.1084 -2.6074
 7517TIP3   OH222495   5.285   3.965   6.550 -0.5432  0.5449  0.1922
 7517TIP3    H122496   5.229   4.042   6.562 -1.5151 -0.4178  2.0985
 7517TIP3    H222497   5.304   3.936   6.639  1.3440 -0.3416 -0.4881
 7518TIP3   OH222498   3.241   3.702   4.029 -0.0485 -0.4237 -0.1678
 7518TIP3    H122499   3.300   3.776   4.045 -0.2227 -0.6221  1.4544
 7518TIP3    H222500   3.156   3.741   4.014  0.5100 -0.1130 -2.8437
 7519TIP3   OH222501   5.253   1.715   4.688 -0.3956 -0.3392 -0.1782
 7519TIP3    H122502   5.302   1.796   4.703 -0.2555 -0.3674 -0.4804
 7519TIP3    H222503   5.171   1.728   4.735  0.2703 -0.6614  1.0887
 7520TIP3   OH222504   5.249   3.975   3.590  0.1317  0.1211  0.3920
 7520TIP3    H122505   5.274   3.903   3.647  0.8318 -0.2320 -0.3491
 7520TIP3    H222506   5.320   3.979   3.525 -0.1248  1.1867  0.1751
 7521TIP3   OH222507   5.887   4.255   3.321 -0.3387 -0.2322 -0.8735
 7521TIP3    H122508   5.889   4.170   3.364  1.1186  0.2740  0.0978
 7521TIP3    H222509   5.920   4.239   3.233  0.1454 -0.6377 -0.6197
 7522TIP3   OH222510   4.366   2.661   4.596 -0.3964 -0.3165 -0.1973
 7522TIP3    H122511   4.458   2.686   4.599  0.3280 -2.8847 -0.0635
 7522TIP3    H222512   4.329   2.692   4.679  0.5387 -0.0026  0.1011
 7523TIP3   OH222513   2.003   4.595   5.409 -0.3656 -0.0395 -0.0821
 7523TIP3    H122514   1.914   4.619   5.434 -0.0757  0.0494  0.8930
 7523TIP3    H222515   1.995   4.507   5.371 -0.7882 -0.2585  0.5123
 7524TIP3   OH222516   5.152   5.202   5.251 -0.2768 -0.2839  0.1725
 7524TIP3    H122517   5.130   5.280   5.199 -1.3782 -1.3885 -1.0786
 7524TIP3    H222518   5.190   5.142   5.187  0.6461 -0.7396  1.1519
 7525TIP3   OH222519   4.957   5.799   2.336 -0.5397  0.2023  0.1383
 7525TIP3    H122520   4.945   5.856   2.412  1.8104 -1.7132  2.0738
 7525TIP3    H222521   4.930   5.712   2.367  1.1196 -0.7347 -0.9616
 7526TIP3   OH222522   5.431   2.783   2.634  0.3218  0.2992  0.4520
 7526TIP3    H122523   5.402   2.828   2.713 -0.1224 -0.2039  0.5796
 7526TIP3    H222524   5.428   2.690   2.657 -0.1769  0.1330 -0.2725
 7527TIP3   OH222525   3.402   4.102   3.659  0.3876 -0.1245 -0.1555
 7527TIP3    H122526   3.383   4.192   3.685  1.3436 -0.4584  1.7787
 7527TIP3    H222527   3.319   4.056   3.673  0.2710  0.1713  0.1579
 7528TIP3   OH222528   5.478   4.124   3.534 -0.4093  0.0628 -0.0671
 7528TIP3    H122529   5.427   4.119   3.615  2.9401 -0.1166  2.1420
 7528TIP3    H222530   5.510   4.214   3.532  1.0720 -0.4517 -0.1700
 7529TIP3   OH222531   3.449   3.484   1.846 -0.5315 -0.4851 -0.4127
 7529TIP3    H122532   3.378   3.515   1.791 -0.2523 -0.3071 -0.6753
 7529TIP3    H222533   3.445   3.388   1.839 -0.3517 -0.4568 -0.9339
 7530TIP3   OH222534   6.180   3.189   4.267  0.0797 -0.2432  0.1426
 7530TIP3    H122535   6.192   3.231   4.352  0.3602 -1.8015  0.9025
 7530TIP3    H222536   6.139   3.105   4.288 -0.4688 -0.3612 -1.3273
 7531TIP3   OH222537   0.954   3.712   4.076 -0.0909 -0.0635 -0.7281
 7531TIP3    H122538   1.006   3.645   4.121 -1.1669 -1.2126 -1.1489
 7531TIP3    H222539   0.994   3.718   3.989 -0.8534 -1.1947 -1.1681
 7532TIP3   OH222540   4.911   5.260   4.587 -0.0265 -0.2636  0.7149
 7532TIP3    H122541   4.858   5.202   4.532  1.1654 -1.4341  0.7684
 7532TIP3    H222542   4.855   5.279   4.663 -0.0539 -2.2354  1.2155
 7533TIP3   OH222543   5.114   3.354   4.560  0.1740  0.0396  0.3958
 7533TIP3    H122544   5.049   3.283   4.556 -0.7521  0.8727  0.4701
 7533TIP3    H222545   5.169   3.340   4.483  1.2074 -1.9112  1.4505
 7534TIP3   OH222546   4.759   5.559   4.101  0.1258  0.8125  0.3561
 7534TIP3    H122547   4.729   5.483   4.052  0.5631  1.1658 -0.4703
 7534TIP3    H222548   4.750   5.534   4.193  1.1221 -0.5713  0.0855
 7535TIP3   OH222549   8.139   5.173   1.819 -0.2157 -0.7860 -0.2706
 7535TIP3    H122550   8.206   5.156   1.885  0.3612  0.1007 -0.6212
 7535TIP3    H222551   8.067   5.115   1.842 -0.9184  1.0760  2.4464
 7536TIP3   OH222552   4.373   2.818   3.707 -0.0551  0.4736 -0.2279
 7536TIP3    H122553   4.376   2.877   3.632  1.0513 -2.0113 -2.2022
 7536TIP3    H222554   4.431   2.858   3.772  0.5594  1.6217 -1.4698
 7537TIP3   OH222555   4.776   3.394   5.804 -0.0071 -0.5650  0.4453
 7537TIP3    H122556   4.808   3.355   5.886 -1.6050 -0.2350  1.2378
 7537TIP3    H222557   4.780   3.322   5.741  0.2860 -1.0954  1.0538
 7538TIP3   OH222558   4.497   5.148   3.914 -0.6546 -0.1933 -0.5186
 7538TIP3    H122559   4.506   5.097   3.833 -2.4429 -0.5124 -0.5394
 7538TIP3    H222560   4.550   5.101   3.978  3.8238  2.1013 -2.3626
 7539TIP3   OH222561   5.919   3.847   4.683 -0.2059  0.1167  0.3464
 7539TIP3    H122562   5.871   3.897   4.749  0.4501  1.1746  0.0271
 7539TIP3    H222563   5.937   3.909   4.613 -0.5407 -0.9058 -0.6549
 7540TIP3   OH222564   4.984   3.659   3.952 -0.3136 -0.1152 -0.0737
 7540TIP3    H122565   4.891   3.638   3.958 -0.7040  1.5355 -0.2278
 7540TIP3    H222566   4.996   3.736   4.008  0.6285  0.6868 -1.3409
 7541TIP3   OH222567   4.619   3.164   5.241  0.0015  0.4930 -0.3720
 7541TIP3    H122568   4.663   3.149   5.158 -1.0761 -0.1486 -0.8406
 7541TIP3    H222569   4.530   3.189   5.217 -0.3369  0.2528  0.5936
 7542TIP3   OH222570   4.644   2.942   4.769 -0.0090 -0.3060  0.3528
 7542TIP3    H122571   4.650   2.849   4.747 -0.8588 -0.1283 -0.6362
 7542TIP3    H222572   4.632   2.987   4.685 -2.1617  0.4707  1.0326
 7543TIP3   OH222573   3.590   1.135   5.134  0.5676 -0.4207 -0.3862
 7543TIP3    H122574   3.525   1.133   5.203 -0.3842 -1.2013 -1.2982
 7543TIP3    H222575   3.673   1.119   5.178  0.1524  0.5854  0.7805
 7544TIP3   OH222576   4.670   3.583   3.476 -0.1667  0.1624  0.0507
 7544TIP3    H122577   4.716   3.666   3.486  0.7603 -0.1471 -1.5372
 7544TIP3    H222578   4.614   3.595   3.400 -2.3250  0.3369  1.6150
 7545TIP3   OH222579   3.329   3.684   5.658 -0.1170  0.2608  0.1013
 7545TIP3    H122580   3.351   3.614   5.596 -1.1821 -0.5763  0.6490
 7545TIP3    H222581   3.307   3.759   5.602 -0.4033 -0.2826 -0.5238
 7546TIP3   OH222582   5.155   3.160   3.661 -0.2794  0.3168  0.9021
 7546TIP3    H122583   5.160   3.133   3.570 -0.1050  1.3963  0.5755
 7546TIP3    H222584   5.075   3.211   3.667 -0.3172  0.2040  1.3614
 7547TIP3   OH222585   3.621   3.173   2.821  0.5261  0.1929  0.3662
 7547TIP3    H122586   3.696   3.231   2.808  0.7173 -0.0085  0.5736
 7547TIP3    H222587   3.633   3.138   2.909 -1.3030  2.3194  1.4929
 7548TIP3   OH222588   4.127   4.599   4.597  0.1994  0.4178  0.1384
 7548TIP3    H122589   4.115   4.669   4.533 -0.4438 -0.4021 -0.6494
 7548TIP3    H222590   4.209   4.556   4.572  0.7669  1.0832  0.8191
 7549TIP3   OH222591   5.510   3.930   4.426  0.6141 -0.0085  0.0614
 7549TIP3    H122592   5.483   4.012   4.384 -0.2553 -0.0603  0.5044
 7549TIP3    H222593   5.455   3.863   4.384  2.4212 -0.5943 -1.4167
 7550TIP3   OH222594   5.148   5.712   4.268  0.4310  0.7841 -0.0053
 7550TIP3    H122595   5.122   5.762   4.346 -0.4937  0.8137 -0.3404
 7550TIP3    H222596   5.093   5.634   4.270  1.5132  0.0055  0.2320
 7551TIP3   OH222597   4.057   4.522   5.297  0.3875  0.2860 -0.2563
 7551TIP3    H122598   3.995   4.531   5.369  1.3197  1.6503  0.3737
 7551TIP3    H222599   4.001   4.509   5.220 -0.6225 -0.5638  0.5995
 7552TIP3   OH222600   5.702   5.044   4.580 -0.4019  0.3559 -0.3136
 7552TIP3    H122601   5.658   4.960   4.565  0.6222  0.1207 -2.2247
 7552TIP3    H222602   5.786   5.020   4.621 -0.9408  0.6067  0.9548
 7553TIP3   OH222603   5.704   4.748   5.198 -0.0857 -0.0824  0.0157
 7553TIP3    H122604   5.665   4.672   5.154 -0.5431 -0.3749  0.9271
 7553TIP3    H222605   5.648   4.764   5.274  0.7398  0.3827  0.5394
 7554TIP3   OH222606   5.184   4.784   3.640 -0.1422  0.1998 -0.2799
 7554TIP3    H122607   5.120   4.846   3.604 -0.4191  0.4873  0.6917
 7554TIP3    H222608   5.131   4.719   3.687  0.3813  1.8409  2.6822
 7555TIP3   OH222609   4.335   3.443   2.160  0.4336  0.5105 -0.0271
 7555TIP3    H122610   4.416   3.491   2.144 -0.1650  2.1181  1.5500
 7555TIP3    H222611   4.288   3.445   2.076  1.4793  0.6345 -0.6091
 7556TIP3   OH222612   3.975   5.713   3.774  0.0334 -0.0403  0.4721
 7556TIP3    H122613   4.039   5.783   3.769 -0.9247  0.7404 -1.3875
 7556TIP3    H222614   4.012   5.642   3.722 -0.8951  0.6725 -1.2003
 7557TIP3   OH222615   5.990   3.733   4.068  0.0630  0.1940  0.2169
 7557TIP3    H122616   6.005   3.732   4.163  0.9726  0.7556  0.0842
 7557TIP3    H222617   5.981   3.640   4.045  0.9821 -0.0213  0.6861
 7558TIP3   OH222618   5.642   3.881   3.506 -0.1767 -0.0720 -0.0332
 7558TIP3    H122619   5.588   3.960   3.495  0.7526  0.4544 -0.9305
 7558TIP3    H222620   5.725   3.903   3.464 -0.3582 -1.9818 -1.4591
 7559TIP3   OH222621   2.575   4.175   6.729 -0.6759 -0.4385  0.6723
 7559TIP3    H122622   2.577   4.087   6.692 -0.1620 -0.3909  0.5774
 7559TIP3    H222623   2.631   4.170   6.806 -0.5876 -0.1797  0.6274
 7560TIP3   OH222624   1.655   0.440   0.277  0.3372  0.3002 -0.4827
 7560TIP3    H122625   1.677   0.405   0.190  1.9820 -1.4394  0.5913
 7560TIP3    H222626   1.740   0.452   0.319 -0.5208 -0.6003  1.5504
 7561TIP3   OH222627   3.988   5.958   4.450 -0.2339 -0.4984 -0.4922
 7561TIP3    H122628   4.073   5.914   4.438 -0.1887 -0.8328  1.0192
 7561TIP3    H222629   4.009   6.052   4.446  0.5193 -0.5399  1.7211
 7562TIP3   OH222630   3.655   3.737   4.929  0.3292  0.3956 -0.2681
 7562TIP3    H122631   3.563   3.759   4.944  0.0691 -1.1362  0.5154
 7562TIP3    H222632   3.652   3.671   4.859  0.9249  1.0983 -0.9722
 7563TIP3   OH222633   4.360   3.762   3.435  0.1307 -0.3062  0.8938
 7563TIP3    H122634   4.270   3.761   3.403  0.3482  0.4163  0.2185
 7563TIP3    H222635   4.408   3.703   3.376  0.4547  0.7229  0.1067
 7564TIP3   OH222636   7.500   2.923   3.884  0.1515 -0.5459  0.2762
 7564TIP3    H122637   7.417   2.970   3.891  0.6639  0.4352 -0.1191
 7564TIP3    H222638   7.541   2.960   3.806  0.8865 -1.1436  0.3819
 7565TIP3   OH222639   3.895   4.832   3.050 -0.4337  0.2666 -0.0383
 7565TIP3    H122640   3.835   4.773   3.006  1.1575 -2.0718  0.8363
 7565TIP3    H222641   3.893   4.804   3.142  1.5714  0.5020  0.0951
 7566TIP3   OH222642   1.753   3.025   4.229  0.0333 -0.3860  0.2841
 7566TIP3    H122643   1.700   3.069   4.295 -0.2357 -0.5613  0.1851
 7566TIP3    H222644   1.699   3.024   4.151  1.6516  2.9035 -0.9750
 7567TIP3   OH222645   4.000   5.981   1.584  0.4391  0.6484 -0.3405
 7567TIP3    H122646   4.000   6.024   1.670 -1.1194  3.1601 -1.5481
 7567TIP3    H222647   4.073   6.020   1.538  1.0634 -0.4551 -0.2997
 7568TIP3   OH222648   1.017   1.852   0.300  0.6179  0.6355  0.0856
 7568TIP3    H122649   1.024   1.876   0.392  2.4550  1.5062 -0.2673
 7568TIP3    H222650   1.108   1.846   0.270  0.0258  1.0001 -1.8273
 7569TIP3   OH222651   4.559   4.257   3.754  0.0548 -0.4325 -0.0226
 7569TIP3    H122652   4.551   4.288   3.844  2.7766  0.5294 -0.0507
 7569TIP3    H222653   4.498   4.184   3.747 -0.8586  0.0827  2.3159
 7570TIP3   OH222654   5.954   4.081   2.950 -0.0022 -0.2066 -0.0893
 7570TIP3    H122655   5.964   4.005   3.009 -1.2727  0.0553  0.4706
 7570TIP3    H222656   6.002   4.151   2.994  0.4047 -0.4360 -0.1600
 7571TIP3   OH222657   2.689   4.359   2.062  0.7511 -0.2708  0.0370
 7571TIP3    H122658   2.641   4.394   2.137  1.0598  1.2534 -0.4483
 7571TIP3    H222659   2.635   4.287   2.030  0.2307 -0.4303  1.2438
 7572TIP3   OH222660   3.976   3.669   6.337  0.3847  0.1367 -0.2495
 7572TIP3    H122661   3.988   3.640   6.247 -2.1494 -0.9467 -0.2778
 7572TIP3    H222662   3.999   3.593   6.391  0.0898  0.1789 -0.0626
 7573TIP3   OH222663   5.773   3.068   3.533  0.5410  0.4377  0.4044
 7573TIP3    H122664   5.765   3.114   3.450  0.5746 -1.1239 -0.4861
 7573TIP3    H222665   5.683   3.045   3.557  0.7867 -2.1586 -0.9869
 7574TIP3   OH222666   2.483   3.830   4.067  0.1802 -0.1351  1.2418
 7574TIP3    H122667   2.510   3.749   4.110  0.9947  0.0543  1.0872
 7574TIP3    H222668   2.433   3.800   3.990  0.5057 -0.4890  1.1663
 7575TIP3   OH222669   5.370   3.401   3.020 -0.3781 -0.2416 -0.3951
 7575TIP3    H122670   5.359   3.357   2.936  0.2749  0.6866 -0.9911
 7575TIP3    H222671   5.295   3.374   3.072 -0.5118 -1.2409 -1.1017
 7576TIP3   OH222672   4.348   4.338   3.433  0.2308 -0.4151 -0.3660
 7576TIP3    H122673   4.353   4.245   3.453  1.6565 -0.5711 -1.3777
 7576TIP3    H222674   4.334   4.342   3.338 -0.5814  0.3928 -0.2239
 7577TIP3   OH222675   3.790   4.016   3.704 -0.1931 -0.3416 -0.1068
 7577TIP3    H122676   3.710   3.975   3.738 -0.1838 -0.4342 -0.1961
 7577TIP3    H222677   3.770   4.035   3.613  0.4377 -1.8091 -0.5669
 7578TIP3   OH222678   4.379   4.518   4.493  0.7564  0.2019 -0.4419
 7578TIP3    H122679   4.415   4.600   4.462  2.9475 -0.9803 -1.1580
 7578TIP3    H222680   4.435   4.493   4.566  0.9622 -1.3224 -1.0985
 7579TIP3   OH222681   5.017   3.441   4.184 -0.0475 -0.1436 -0.1783
 7579TIP3    H122682   5.081   3.443   4.254 -0.0299 -1.8932 -0.1288
 7579TIP3    H222683   5.050   3.503   4.119  1.9261 -1.3426 -0.3506
 7580TIP3   OH222684   5.304   5.960   3.374  0.5015  1.1144 -0.0798
 7580TIP3    H122685   5.338   6.046   3.350  2.3547 -0.5388 -3.7294
 7580TIP3    H222686   5.364   5.928   3.442 -0.0740  2.5709  1.1363
 7581TIP3   OH222687   3.717   7.833   4.866 -0.5062  0.0900 -0.6304
 7581TIP3    H122688   3.634   7.851   4.821 -0.0715 -0.3588 -1.6400
 7581TIP3    H222689   3.692   7.812   4.956 -1.1324  4.5168  0.3442
 7582TIP3   OH222690   4.482   3.680   5.938  0.0826 -0.1043 -0.1549
 7582TIP3    H122691   4.497   3.646   5.850 -0.6310 -0.0496 -0.3001
 7582TIP3    H222692   4.427   3.757   5.925  0.2259  0.0795  0.3142
 7583TIP3   OH222693   5.059   4.721   3.895 -0.7268 -0.3641  0.5811
 7583TIP3    H122694   5.046   4.638   3.941  1.2993 -1.4690 -0.7400
 7583TIP3    H222695   5.154   4.734   3.896 -0.9158  1.2863 -0.3948
 7584TIP3   OH222696   4.349   2.434   3.531 -0.1968  0.0151 -0.7734
 7584TIP3    H122697   4.404   2.473   3.463  0.0421 -0.9500 -1.1468
 7584TIP3    H222698   4.407   2.375   3.578 -0.8157 -0.7724 -0.9680
 7585TIP3   OH222699   5.960   3.454   3.983  0.0989 -0.1331  0.1916
 7585TIP3    H122700   5.961   3.452   4.079  0.6680 -1.2418  0.1653
 7585TIP3    H222701   5.997   3.370   3.957  0.1561  0.2599 -1.0069
 7586TIP3   OH222702   6.250   4.925   1.724 -0.1565  0.2568  0.4664
 7586TIP3    H122703   6.335   4.968   1.724 -0.9985  1.9839 -0.1175
 7586TIP3    H222704   6.195   4.979   1.780 -0.8693 -0.8836  0.8962
 7587TIP3   OH222705   2.618   2.894   5.926 -0.2833  0.0635  0.0870
 7587TIP3    H122706   2.551   2.941   5.976 -1.5009 -1.2626 -0.2774
 7587TIP3    H222707   2.639   2.818   5.980 -2.1432 -1.7837 -1.6911
 7588TIP3   OH222708   4.848   5.413   5.154 -0.1134  0.3215 -0.6196
 7588TIP3    H122709   4.867   5.392   5.246 -0.4931  0.3912 -0.5246
 7588TIP3    H222710   4.933   5.408   5.111  0.2329  1.2429 -0.0692
 7589TIP3   OH222711   4.515   4.096   4.511  0.6405  0.4841  0.1936
 7589TIP3    H122712   4.571   4.051   4.574  2.5578  0.8307 -1.2173
 7589TIP3    H222713   4.540   4.188   4.519 -0.0857  0.7066 -0.0869
 7590TIP3   OH222714   3.095   4.449   3.508 -0.3400 -0.3393 -0.2705
 7590TIP3    H122715   3.161   4.504   3.466 -0.5305 -0.6423 -0.9689
 7590TIP3    H222716   3.018   4.505   3.514  0.1538  0.2015  1.0685
 7591TIP3   OH222717   3.240   7.781   6.388  0.5865 -0.1063 -0.3586
 7591TIP3    H122718   3.216   7.690   6.369 -0.6813  0.2028 -0.3039
 7591TIP3    H222719   3.332   7.777   6.414  0.9786 -1.1868 -1.8010
 7592TIP3   OH222720   3.581   3.307   5.531  0.0825 -0.0387 -0.2428
 7592TIP3    H122721   3.553   3.368   5.463 -1.9380 -2.1439 -1.3301
 7592TIP3    H222722   3.676   3.318   5.534 -0.1305  2.4961 -1.0186
 7593TIP3   OH222723   4.280   5.137   4.062  0.6489  0.4732  0.2703
 7593TIP3    H122724   4.270   5.224   4.101  0.4409  0.3825  0.4219
 7593TIP3    H222725   4.362   5.142   4.014 -0.0513  1.2120 -0.8895
 7594TIP3   OH222726   5.193   4.139   5.072  0.6393 -0.3173 -0.1296
 7594TIP3    H122727   5.136   4.149   4.996  0.7630 -0.6127 -0.2619
 7594TIP3    H222728   5.136   4.150   5.147  0.8544  1.9666 -0.2579
 7595TIP3   OH222729   5.578   3.535   3.450  0.5294 -0.7595  0.1386
 7595TIP3    H122730   5.586   3.616   3.401  1.7360 -1.3805 -0.7045
 7595TIP3    H222731   5.616   3.468   3.393  1.1884 -1.6164  1.5536
 7596TIP3   OH222732   4.243   4.138   5.163 -0.0115  0.1126  0.1816
 7596TIP3    H122733   4.244   4.216   5.108 -1.2062 -0.2969 -0.4339
 7596TIP3    H222734   4.295   4.074   5.115 -0.0880  0.1290  0.0747
 7597TIP3   OH222735   4.106   5.687   3.026 -0.8034  0.3513  0.1510
 7597TIP3    H122736   4.093   5.780   3.044 -1.3859  0.4597 -0.8080
 7597TIP3    H222737   4.021   5.647   3.047 -0.6689  0.0859  0.1915
 7598TIP3   OH222738   4.721   3.912   5.717 -0.3087  0.0693 -0.2128
 7598TIP3    H122739   4.808   3.942   5.743 -1.7927  2.4346  2.2896
 7598TIP3    H222740   4.708   3.950   5.629  0.3475  1.5173  0.2930
 7599TIP3   OH222741   3.909   3.347   2.316 -0.4451 -0.0118  0.0421
 7599TIP3    H122742   3.947   3.327   2.231 -1.0508  0.2661 -0.2964
 7599TIP3    H222743   3.983   3.378   2.369  0.0971 -1.0253 -0.1013
 7600TIP3   OH222744   4.851   6.225   4.156  0.0549 -0.4327 -0.2441
 7600TIP3    H122745   4.786   6.163   4.121  0.0432  0.2767 -1.5264
 7600TIP3    H222746   4.833   6.228   4.250 -1.8599 -0.1528 -0.5893
 7601TIP3   OH222747   4.118   3.817   4.940  0.3233 -0.0670 -0.3020
 7601TIP3    H122748   4.029   3.852   4.933  0.6787  1.2011  1.3303
 7601TIP3    H222749   4.106   3.723   4.955 -0.7430  0.1007 -0.0662
 7602TIP3   OH222750   5.322   3.460   3.905  0.6430  0.0876 -0.1688
 7602TIP3    H122751   5.410   3.441   3.873  1.0546 -0.7262  1.4201
 7602TIP3    H222752   5.280   3.374   3.911 -0.0826  0.4221 -0.3905
 7603TIP3   OH222753   2.584   3.587   4.169 -1.0362  0.5249  0.0415
 7603TIP3    H122754   2.630   3.545   4.097 -1.4631 -0.9553  0.6208
 7603TIP3    H222755   2.652   3.605   4.235 -1.0326 -0.3069  0.2709
 7604TIP3   OH222756   5.111   4.159   3.142 -0.2731 -0.0236  0.2241
 7604TIP3    H122757   5.181   4.223   3.135  0.3886 -0.5059  2.0793
 7604TIP3    H222758   5.030   4.211   3.140  0.2425  0.8235  1.2257
 7605TIP3   OH222759   4.593   4.942   5.655 -0.4510 -0.1419 -0.1337
 7605TIP3    H122760   4.592   4.888   5.576  2.7981  0.6620 -0.7854
 7605TIP3    H222761   4.544   5.020   5.632 -3.4085 -1.8223  0.1547
 7606TIP3   OH222762   6.054   4.369   1.773  0.3852 -0.6032  0.2128
 7606TIP3    H122763   6.030   4.462   1.778 -1.2164 -0.9695 -0.3658
 7606TIP3    H222764   6.093   4.350   1.858 -1.5233  0.0095  1.2658
 7607TIP3   OH222765   5.218   3.637   5.279 -0.0851 -0.2502 -0.6168
 7607TIP3    H122766   5.250   3.671   5.363 -1.9236 -1.2531  0.5323
 7607TIP3    H222767   5.293   3.594   5.240  1.2027  1.5714 -0.2187
 7608TIP3   OH222768   4.536   3.143   5.736  0.6799  0.1591  0.2111
 7608TIP3    H122769   4.573   3.191   5.662  0.3827 -0.3801 -0.2905
 7608TIP3    H222770   4.612   3.104   5.779  0.7848 -0.2249 -0.3100
 7609TIP3   OH222771   4.904   4.457   6.813 -0.8899 -0.3571  0.2444
 7609TIP3    H122772   4.847   4.388   6.846 -0.9254  0.3877  1.8498
 7609TIP3    H222773   4.984   4.448   6.865 -0.1650 -0.4092 -0.8858
 7610TIP3   OH222774   5.755   5.395   4.855 -0.6483 -0.2137  0.5785
 7610TIP3    H122775   5.720   5.418   4.768 -0.5534 -0.6246  0.4312
 7610TIP3    H222776   5.782   5.479   4.892 -1.5909  0.0884  0.6066
 7611TIP3   OH222777   3.524   3.941   6.288 -0.1708 -0.4120 -0.5265
 7611TIP3    H122778   3.486   3.926   6.375  0.8370 -1.0690 -0.1955
 7611TIP3    H222779   3.618   3.934   6.301  0.0887  1.1590 -1.3590
 7612TIP3   OH222780   3.602   4.015   5.600  0.5670 -0.0160 -0.1658
 7612TIP3    H122781   3.642   4.046   5.519  0.1625  0.6585 -0.1134
 7612TIP3    H222782   3.650   4.059   5.669  1.3334 -1.0853 -0.0077
 7613TIP3   OH222783   6.026   4.330   5.341  0.5159 -0.6020 -0.4444
 7613TIP3    H122784   5.985   4.403   5.294 -1.4364 -1.9997 -0.9972
 7613TIP3    H222785   5.986   4.333   5.428  3.0395  1.0860  0.7020
 7614TIP3   OH222786   4.935   4.903   3.041 -0.3804  0.1596 -1.2087
 7614TIP3    H122787   4.977   4.891   2.955  0.3300  1.1880 -1.0172
 7614TIP3    H222788   4.862   4.961   3.023 -0.8092 -0.3904 -1.2718
 7615TIP3   OH222789   5.112   4.848   5.467 -0.3656 -0.1071  0.1197
 7615TIP3    H122790   5.172   4.773   5.467  0.6097  0.6195 -1.6740
 7615TIP3    H222791   5.129   4.893   5.550  0.6763 -0.6233  0.1967
 7616TIP3   OH222792   4.302   1.746   6.063  0.0724 -0.3604 -0.2981
 7616TIP3    H122793   4.392   1.778   6.065  0.0107 -0.2069  2.3932
 7616TIP3    H222794   4.252   1.814   6.107 -1.0770 -1.2853 -0.1607
 7617TIP3   OH222795   3.223   1.993   6.876 -0.4628  0.2916 -0.4350
 7617TIP3    H122796   3.151   1.946   6.917  0.5886 -0.3672  0.7147
 7617TIP3    H222797   3.301   1.940   6.897  0.4079  1.2213 -1.2522
 7618TIP3   OH222798   4.675   1.147   5.442  0.1118  0.6666  0.0773
 7618TIP3    H122799   4.601   1.124   5.387 -0.6664 -1.7881  2.0883
 7618TIP3    H222800   4.639   1.204   5.510  0.1865  0.0227  0.6642
 7619TIP3   OH222801   3.484   3.172   6.342  0.1426 -0.0737  0.6110
 7619TIP3    H122802   3.421   3.166   6.270  2.7500 -1.6997 -1.6524
 7619TIP3    H222803   3.455   3.105   6.404  0.1361 -1.5070 -0.8768
 7620TIP3   OH222804   4.211   3.290   4.368 -0.0186  0.1546 -0.0495
 7620TIP3    H122805   4.194   3.301   4.462  0.2401 -0.7197  0.1019
 7620TIP3    H222806   4.187   3.375   4.330 -0.1063  0.5264  0.8068
 7621TIP3   OH222807   2.105   4.674   3.343  0.2957 -0.1758  0.2765
 7621TIP3    H122808   2.116   4.721   3.260 -2.0152 -0.6523 -0.3254
 7621TIP3    H222809   2.011   4.677   3.360  0.5676 -1.3879  2.1288
 7622TIP3   OH222810   1.958   3.855   2.619  0.2406 -0.5113  0.3153
 7622TIP3    H122811   2.022   3.923   2.597 -1.2703  0.6135 -0.7585
 7622TIP3    H222812   1.975   3.786   2.555  0.6582 -0.3839  0.2859
 7623TIP3   OH222813   3.697   3.670   4.062 -0.1894  0.8992  0.1056
 7623TIP3    H122814   3.776   3.690   4.111 -0.3365 -0.5641  0.9700
 7623TIP3    H222815   3.726   3.662   3.971  0.5711  0.8238  0.3559
 7624TIP3   OH222816   5.064   5.290   1.600  0.7440  0.0635  0.3597
 7624TIP3    H122817   5.062   5.197   1.577  0.3771  0.1874 -0.1339
 7624TIP3    H222818   5.141   5.324   1.553 -0.8984  0.6353 -2.0105
 7625TIP3   OH222819   5.444   5.188   6.352  0.1067 -0.1502 -0.2480
 7625TIP3    H122820   5.489   5.106   6.370 -1.2239 -1.0750 -0.9980
 7625TIP3    H222821   5.503   5.256   6.383  0.3145 -1.4662  2.3602
 7626TIP3   OH222822   4.874   3.166   5.646  0.2949  0.4132 -0.0633
 7626TIP3    H122823   4.887   3.124   5.731  0.7448  2.5235  0.9625
 7626TIP3    H222824   4.962   3.170   5.608  0.0546 -0.7568 -0.7405
 7627TIP3   OH222825   6.592   3.731   2.577  0.0348 -0.1370 -0.6886
 7627TIP3    H122826   6.684   3.750   2.594  0.3717 -2.4130  0.1621
 7627TIP3    H222827   6.582   3.742   2.482  1.2695 -0.1701 -0.8237
 7628TIP3   OH222828   5.324   6.030   6.600  0.0725  0.3055  0.2994
 7628TIP3    H122829   5.388   6.090   6.639  1.6214 -1.5705  0.7687
 7628TIP3    H222830   5.366   6.000   6.519 -0.8387  0.1423 -0.1151
 7629TIP3   OH222831   5.548   1.897   4.108 -0.3743 -0.0930 -0.0236
 7629TIP3    H122832   5.472   1.955   4.101  0.1574  0.4352 -1.5623
 7629TIP3    H222833   5.546   1.846   4.027 -0.6392 -2.0051  1.1511
 7630TIP3   OH222834   3.378   5.923   0.898 -0.1263  0.0355 -0.0261
 7630TIP3    H122835   3.355   5.971   0.977  0.4320 -2.6892  1.8593
 7630TIP3    H222836   3.305   5.937   0.838 -1.7671  0.0500  1.9412
 7631TIP3   OH222837   5.129   3.113   4.192  0.4496  0.1211  0.1667
 7631TIP3    H122838   5.141   3.163   4.111  0.4523  1.6609  1.1136
 7631TIP3    H222839   5.146   3.175   4.262  2.0839 -1.6173  1.3676
 7632TIP3   OH222840   5.558   4.048   4.079 -0.4763 -0.3383 -0.0422
 7632TIP3    H122841   5.631   3.986   4.063 -0.6192  0.0917 -2.6595
 7632TIP3    H222842   5.601   4.133   4.088 -0.5091 -0.3757  0.4697
 7633TIP3   OH222843   5.427   2.862   4.160  0.5764  0.3153  0.1128
 7633TIP3    H122844   5.396   2.903   4.241  3.0023  0.5118  0.9859
 7633TIP3    H222845   5.402   2.770   4.169 -0.3926  0.6017  0.4508
 7634TIP3   OH222846   2.889   3.478   2.895  0.0975 -0.1343  0.3531
 7634TIP3    H122847   2.948   3.525   2.836  2.0936 -2.4286  0.4376
 7634TIP3    H222848   2.830   3.430   2.838  0.5823 -0.5748  0.2125
 7635TIP3   OH222849   2.284   4.262   4.273 -0.0785  0.8774  0.3894
 7635TIP3    H122850   2.250   4.340   4.230 -0.0583  0.7841  0.2043
 7635TIP3    H222851   2.206   4.218   4.308 -0.6008 -1.1733 -3.0633
 7636TIP3   OH222852   3.912   4.541   6.650 -0.6204  0.1432 -0.3124
 7636TIP3    H122853   3.823   4.556   6.618 -0.4039 -1.4307 -1.7243
 7636TIP3    H222854   3.968   4.588   6.587 -0.3587 -0.4689 -0.5398
 7637TIP3   OH222855   4.461   3.509   5.416 -0.2985 -0.0076  0.6460
 7637TIP3    H122856   4.438   3.535   5.505  3.4057 -0.1171  1.6921
 7637TIP3    H222857   4.485   3.417   5.424  1.5763  0.4040 -0.1815
 7638TIP3   OH222858   6.219   2.125   5.834 -0.0132  0.0047  0.2145
 7638TIP3    H122859   6.301   2.106   5.879 -1.3860 -0.1762  2.7884
 7638TIP3    H222860   6.219   2.069   5.756  1.7888 -0.8052  0.7861
 7639TIP3   OH222861   5.266   3.022   6.138  0.3004 -0.2306  0.1980
 7639TIP3    H122862   5.257   3.022   6.234 -2.0645  0.3166  0.0256
 7639TIP3    H222863   5.318   2.945   6.118  0.9653 -0.2503  1.9511
 7640TIP3   OH222864   5.744   2.341   5.644 -0.3220  0.1227  0.0332
 7640TIP3    H122865   5.795   2.344   5.725  1.0448 -0.8410 -0.7760
 7640TIP3    H222866   5.808   2.350   5.574 -1.2752 -0.9924 -1.0111
 7641TIP3   OH222867   5.340   5.656   0.796  0.1768  0.0097  0.3990
 7641TIP3    H122868   5.278   5.643   0.725 -1.3190  0.8470  1.5187
 7641TIP3    H222869   5.405   5.587   0.784  0.2042  0.4232 -2.0197
 7642TIP3   OH222870   3.767   1.302   5.472  0.6661  0.8179  0.4746
 7642TIP3    H122871   3.766   1.212   5.440  0.1652  0.5272  1.3226
 7642TIP3    H222872   3.815   1.298   5.554  1.3533  1.4626  0.1134
 7643TIP3   OH222873   4.618   3.960   3.529 -0.3736  0.3705 -0.6291
 7643TIP3    H122874   4.658   3.996   3.608  0.4725  3.4278 -2.3824
 7643TIP3    H222875   4.675   3.886   3.505  0.0417  0.1740  0.9068
 7644TIP3   OH222876   5.267   1.294   6.575  0.1502 -0.1979 -0.2964
 7644TIP3    H122877   5.263   1.326   6.485 -0.9160 -0.5263 -0.3702
 7644TIP3    H222878   5.357   1.314   6.603 -0.3297  2.4919 -0.4744
 7645TIP3   OH222879   3.023   4.346   2.927  0.4517 -0.0380 -0.3528
 7645TIP3    H122880   3.110   4.345   2.965  0.7185  0.2241 -0.9516
 7645TIP3    H222881   3.034   4.310   2.839 -0.4838 -2.4540  0.4704
 7646TIP3   OH222882   4.575   5.271   4.976  0.6094  1.0362 -0.5655
 7646TIP3    H122883   4.612   5.221   5.049  1.7768 -0.1532 -1.9426
 7646TIP3    H222884   4.490   5.300   5.008  0.6393 -0.4010  0.8942
 7647TIP3   OH222885   2.686   5.855   4.390  0.3833 -0.0013  0.1752
 7647TIP3    H122886   2.637   5.894   4.463  0.9801 -0.9684  1.1101
 7647TIP3    H222887   2.685   5.923   4.322 -1.9392  0.1361  0.2894
 7648TIP3   OH222888   5.726   5.222   4.384 -0.1626 -0.3531  0.0670
 7648TIP3    H122889   5.712   5.309   4.422 -2.3955 -0.9140  0.6315
 7648TIP3    H222890   5.698   5.161   4.452 -0.5173 -1.4521 -1.0342
 7649TIP3   OH222891   3.977   2.035   5.254 -0.1610 -0.0769  0.2590
 7649TIP3    H122892   3.985   2.011   5.346  0.7385  1.0022  0.4772
 7649TIP3    H222893   4.052   1.992   5.212  1.0507  1.7403  0.5303
 7650TIP3   OH222894   4.407   4.089   3.417 -0.3284 -0.1896  0.6421
 7650TIP3    H122895   4.452   4.021   3.467  1.1554  0.5612  0.3877
 7650TIP3    H222896   4.402   4.054   3.328 -1.0761 -0.6551  0.8663
 7651TIP3   OH222897   5.823   0.017   5.364 -0.1202  0.5001  0.1054
 7651TIP3    H122898   5.809   0.081   5.434  3.0543 -0.1792  1.4251
 7651TIP3    H222899   5.802  -0.067   5.404 -0.1444  0.2948 -0.3335
 7652TIP3   OH222900   4.485   5.966   2.383 -0.1148  0.5939 -0.7162
 7652TIP3    H122901   4.460   5.874   2.389  0.3982  0.5055  0.0076
 7652TIP3    H222902   4.519   5.976   2.294 -0.0562  0.0564 -0.7544
 7653TIP3   OH222903   4.662   4.995   3.425  0.2543  0.5179 -0.3160
 7653TIP3    H122904   4.621   4.964   3.505 -1.4404  1.1104 -0.9453
 7653TIP3    H222905   4.657   5.090   3.430 -0.7765  0.5464 -1.5849
 7654TIP3   OH222906   3.011   4.537   4.315  0.4859  0.1157 -0.1975
 7654TIP3    H122907   2.976   4.623   4.292  1.6359  0.4616 -0.7312
 7654TIP3    H222908   3.033   4.544   4.409  1.2337  0.6538 -0.4028
 7655TIP3   OH222909   4.784   3.440   3.840  0.1464 -0.0452  0.4148
 7655TIP3    H122910   4.713   3.504   3.836  0.6511  0.5016  0.0472
 7655TIP3    H222911   4.772   3.396   3.925 -1.1859 -0.6250 -0.0670
 7656TIP3   OH222912   5.243   3.754   3.793  0.1998  0.0342 -0.0467
 7656TIP3    H122913   5.210   3.683   3.849  1.2026 -1.4399 -1.2943
 7656TIP3    H222914   5.271   3.710   3.713  3.0572  1.5329  0.0954
 7657TIP3   OH222915   4.372   5.371   3.730  0.0745 -0.2936 -0.7252
 7657TIP3    H122916   4.425   5.303   3.772  2.3162 -0.5160 -3.7301
 7657TIP3    H222917   4.423   5.451   3.739 -0.9560  0.3185 -0.1944
 7658TIP3   OH222918   5.483   3.926   5.515 -0.4104  0.3366  0.1467
 7658TIP3    H122919   5.557   3.867   5.502 -1.0969 -0.5681  0.2543
 7658TIP3    H222920   5.488   3.952   5.607  0.3545  1.0790 -0.1062
 7659TIP3   OH222921   4.228   2.059   6.708  0.8092 -0.0243 -0.4298
 7659TIP3    H122922   4.293   2.036   6.642  2.3626  1.4086  0.5548
 7659TIP3    H222923   4.271   2.043   6.791 -1.3415 -2.3936  0.3083
 7660TIP3   OH222924   2.133   1.451   5.199 -0.4036 -0.7866  0.3899
 7660TIP3    H122925   2.198   1.465   5.269 -1.4332 -1.3905  1.4778
 7660TIP3    H222926   2.171   1.382   5.144  0.3230 -0.4401  0.4502
 7661TIP3   OH222927   3.423   4.113   2.475 -0.0013  0.0407 -0.1611
 7661TIP3    H122928   3.378   4.103   2.559  0.9720 -0.8622  0.2660
 7661TIP3    H222929   3.516   4.099   2.496  0.3254  0.4857 -1.2681
 7662TIP3   OH222930   5.004   2.815   5.461  0.5667  0.3669 -0.6581
 7662TIP3    H122931   5.048   2.730   5.474  0.4929  0.5895  1.2286
 7662TIP3    H222932   5.055   2.876   5.514 -0.5660  1.1044 -0.4077
 7663TIP3   OH222933   6.323   5.447   1.696  0.4707 -0.1652 -0.6429
 7663TIP3    H122934   6.374   5.381   1.743  0.3600  1.3960  1.7417
 7663TIP3    H222935   6.232   5.422   1.710  0.4278  0.4827  0.2808
 7664TIP3   OH222936   2.053   4.134   4.393  0.3929  0.0839  0.2957
 7664TIP3    H122937   2.097   4.132   4.478 -0.6804  0.8151  0.8613
 7664TIP3    H222938   2.038   4.041   4.372 -0.3879 -0.0504  1.4371
 7665TIP3   OH222939   4.512   3.523   4.455  0.0804  0.1827 -0.2292
 7665TIP3    H122940   4.546   3.526   4.366  1.2638 -0.1701  0.1952
 7665TIP3    H222941   4.487   3.432   4.469 -0.3221  0.2847 -0.2788
 7666TIP3   OH222942   6.070   3.610   3.016  0.1869 -0.1617 -0.2121
 7666TIP3    H122943   6.161   3.613   3.043  0.2289  1.1517 -0.4485
 7666TIP3    H222944   6.055   3.519   2.991  1.1851 -0.5674  0.6457
 7667TIP3   OH222945   4.509   5.357   4.210  1.1422  0.2405  0.3464
 7667TIP3    H122946   4.477   5.430   4.157  0.2636 -1.1224 -1.0299
 7667TIP3    H222947   4.435   5.336   4.267  1.7709  1.1027  1.5151
 7668TIP3   OH222948   5.364   4.780   4.751  0.5199 -0.3005  0.1469
 7668TIP3    H122949   5.290   4.793   4.810  0.4086 -0.4292  0.0365
 7668TIP3    H222950   5.352   4.846   4.683  0.7307 -0.0527  0.3489
 7669TIP3   OH222951   4.186   3.325   3.512  0.4731  0.2805  0.0567
 7669TIP3    H122952   4.152   3.334   3.601  0.2203  2.0148 -0.1882
 7669TIP3    H222953   4.280   3.307   3.523  0.0510 -1.6057  0.6883
 7670TIP3   OH222954   3.756   2.813   5.731 -0.7365 -0.5459 -0.1164
 7670TIP3    H122955   3.729   2.904   5.740  1.5224  0.1101  0.4943
 7670TIP3    H222956   3.770   2.783   5.821  0.4534 -0.8645 -0.3969
 7671TIP3   OH222957   2.698   5.505   2.873  0.2709  0.2562  0.2126
 7671TIP3    H122958   2.732   5.435   2.929 -1.5990 -1.0979 -0.3171
 7671TIP3    H222959   2.725   5.480   2.785 -0.0648  0.4068  0.0677
 7672TIP3   OH222960   4.676   3.409   6.770 -0.1298 -0.1884  0.1339
 7672TIP3    H122961   4.740   3.437   6.705 -0.8576 -1.1400 -1.0042
 7672TIP3    H222962   4.724   3.351   6.828  0.1667 -0.4703 -0.3939
 7673TIP3   OH222963   5.007   4.745   4.284  0.0720  0.0216 -0.5642
 7673TIP3    H122964   4.991   4.665   4.234 -1.3584  0.6599 -1.1471
 7673TIP3    H222965   5.078   4.789   4.237 -0.0980 -0.2161 -1.0430
 7674TIP3   OH222966   4.804   5.936   3.866 -0.8635  0.2920 -0.1028
 7674TIP3    H122967   4.856   6.005   3.826 -0.6719  1.2354  1.7400
 7674TIP3    H222968   4.865   5.890   3.924 -1.7829  0.6940  1.2189
 7675TIP3   OH222969   5.530   5.366   2.726  0.1228  0.0624 -0.3168
 7675TIP3    H122970   5.517   5.330   2.639 -0.7963  0.0005 -0.1608
 7675TIP3    H222971   5.466   5.437   2.732  2.0700  1.9225 -0.7196
 7676TIP3   OH222972   5.438   5.288   4.035 -0.0567 -0.5070  0.4407
 7676TIP3    H122973   5.475   5.219   4.089 -1.5854 -1.2651  0.5325
 7676TIP3    H222974   5.407   5.243   3.956 -1.7949 -0.0767  0.8491
 7677TIP3   OH222975   5.365   5.603   4.438 -0.2837  0.2336  0.4566
 7677TIP3    H122976   5.343   5.668   4.504  0.3459  0.8745  0.0462
 7677TIP3    H222977   5.295   5.610   4.373 -0.0836  0.6677  0.2904
 7678TIP3   OH222978   7.862   4.869   3.450 -0.0298 -0.4188 -0.1162
 7678TIP3    H122979   7.912   4.873   3.368 -1.1360  1.6165 -0.7071
 7678TIP3    H222980   7.928   4.854   3.517  1.1458  0.1295 -1.1308
 7679TIP3   OH222981   5.721   3.548   2.684  0.1201 -0.1527  0.2546
 7679TIP3    H122982   5.729   3.508   2.771  2.5148 -0.1837  0.0654
 7679TIP3    H222983   5.811   3.574   2.662 -0.7687  1.6254 -1.3770
 7680TIP3   OH222984   5.691   3.507   4.143  0.4359 -0.0701  0.1265
 7680TIP3    H122985   5.704   3.549   4.228 -0.0695 -0.2786  0.3048
 7680TIP3    H222986   5.720   3.572   4.080  0.2808  0.2965  0.4321
 7681TIP3   OH222987   7.571   1.425   1.559 -0.0317  0.0560 -0.4654
 7681TIP3    H122988   7.575   1.425   1.655 -2.2254 -0.3045 -0.3413
 7681TIP3    H222989   7.630   1.496   1.532  0.5058  0.2420  1.1442
 7682TIP3   OH222990   6.231   3.750   3.679  0.0448  0.2492 -0.5874
 7682TIP3    H122991   6.201   3.801   3.755  1.9339  1.4399 -0.6052
 7682TIP3    H222992   6.178   3.670   3.681  0.4027  0.0413  2.2720
 7683TIP3   OH222993   7.923   4.029   3.792 -0.1422  0.1876  0.0423
 7683TIP3    H122994   7.870   4.055   3.868 -1.9859 -1.8958 -0.4697
 7683TIP3    H222995   7.966   4.110   3.764 -2.1392  1.7259  1.2269
 7684TIP3   OH222996   5.514   5.798   2.825 -0.3773  0.0691 -0.2411
 7684TIP3    H122997   5.551   5.820   2.740  1.8218  1.0197  0.9272
 7684TIP3    H222998   5.442   5.860   2.837 -1.2860 -0.6656 -1.7852
 7685TIP3   OH222999   5.958   4.306   4.059  0.6662 -0.4860 -0.1898
 7685TIP3    H123000   5.868   4.281   4.038  0.0436  0.4402  1.2658
 7685TIP3    H223001   5.971   4.389   4.012  1.3819 -1.4989 -1.8244
 7686TIP3   OH223002   5.226   1.764   5.037 -0.0704  0.0880  0.1626
 7686TIP3    H123003   5.194   1.804   4.956  1.6434  0.5736 -0.2806
 7686TIP3    H223004   5.170   1.688   5.049 -1.3323  0.8645 -0.6617
 7687TIP3   OH223005   5.319   4.082   4.739 -0.8168  0.2307  0.0270
 7687TIP3    H123006   5.353   4.030   4.812  1.2376 -1.2468 -1.8960
 7687TIP3    H223007   5.270   4.018   4.686 -1.6804  1.1252 -0.2581
 7688TIP3   OH223008   4.219   6.294   1.975 -0.0467 -0.1158  0.5803
 7688TIP3    H123009   4.171   6.362   2.020  0.8911  1.8306 -1.2840
 7688TIP3    H223010   4.308   6.328   1.967  0.5636 -1.7525  0.0280
 7689TIP3   OH223011   6.306   3.634   3.323 -0.0772  0.0610  0.2126
 7689TIP3    H123012   6.272   3.566   3.382  0.5978  0.6864  1.3356
 7689TIP3    H223013   6.346   3.585   3.251 -3.5270 -0.6831 -1.2618
 7690TIP3   OH223014   5.971   4.919   3.338  0.1790  0.7017  0.1770
 7690TIP3    H123015   5.880   4.945   3.321  0.0226 -0.4371 -0.7829
 7690TIP3    H223016   5.966   4.866   3.418 -0.0212  0.5391  0.0578
 7691TIP3   OH223017   5.581   4.116   4.611  0.0751 -0.1704  0.1545
 7691TIP3    H123018   5.490   4.120   4.640  0.0522 -1.6547  0.3185
 7691TIP3    H223019   5.580   4.051   4.541  0.7865  0.7293 -0.6921
 7692TIP3   OH223020   5.349   5.206   4.461  0.0044  0.0739 -0.2905
 7692TIP3    H123021   5.329   5.254   4.381 -0.9714 -0.5126 -0.3993
 7692TIP3    H223022   5.330   5.269   4.531  0.6149  0.4999 -0.4993
 7693TIP3   OH223023   4.976   5.580   3.911 -0.3383  0.1345  0.2493
 7693TIP3    H123024   5.064   5.546   3.926 -0.5664 -0.5223  0.1553
 7693TIP3    H223025   4.931   5.571   3.995 -0.4681 -0.0188  0.1660
 7694TIP3   OH223026   6.177   4.250   3.035 -0.1155 -0.3733  0.7998
 7694TIP3    H123027   6.267   4.245   3.004 -1.0941 -0.2111 -2.2166
 7694TIP3    H223028   6.177   4.324   3.096  1.8790 -0.7349  1.2810
 7695TIP3   OH223029   5.014   4.426   1.308 -0.2145  0.3794  0.7851
 7695TIP3    H123030   4.992   4.333   1.312 -1.4618  0.5982 -0.6296
 7695TIP3    H223031   5.099   4.428   1.263 -0.7726  0.0063 -0.2966
 7696TIP3   OH223032   7.698   5.042   3.611  0.0167 -0.0906 -0.1175
 7696TIP3    H123033   7.741   4.973   3.559 -0.4763 -0.2587 -0.3048
 7696TIP3    H223034   7.605   5.027   3.598 -0.1215 -0.3635  1.1325
 7697TIP3   OH223035   5.653   6.393   4.713 -0.4694  0.4798  0.0622
 7697TIP3    H123036   5.584   6.441   4.668 -1.0196 -1.2569 -1.0092
 7697TIP3    H223037   5.714   6.367   4.644  1.0005  1.5405  0.9220
 7698TIP3   OH223038   6.438   4.977   3.358 -0.4280  0.1793  0.0356
 7698TIP3    H123039   6.471   5.064   3.379 -2.0450  1.3217 -2.0165
 7698TIP3    H223040   6.503   4.917   3.396  1.2853  2.2783  0.5062
 7699TIP3   OH223041   8.410   3.187   4.433 -0.1475  0.7025 -0.2475
 7699TIP3    H123042   8.319   3.157   4.428 -1.0473  3.3022  0.0974
 7699TIP3    H223043   8.431   3.214   4.344  0.8706 -1.4493 -0.6907
 7700TIP3   OH223044   5.250   5.793   4.623 -0.2980  0.1199  0.2847
 7700TIP3    H123045   5.254   5.889   4.619 -0.1098  0.0966 -0.1454
 7700TIP3    H223046   5.319   5.769   4.684 -0.0155  0.2324  0.0131
 7701TIP3   OH223047   5.668   6.009   2.616  0.3132 -0.3561  0.1489
 7701TIP3    H123048   5.591   6.056   2.582  1.2028 -0.4013 -2.0116
 7701TIP3    H223049   5.654   5.918   2.589  0.7894 -0.5054  0.3951
 7702TIP3   OH223050   6.437   4.922   5.439  0.0844  0.2233 -0.4352
 7702TIP3    H123051   6.493   4.999   5.438  1.2945 -0.6384  0.0175
 7702TIP3    H223052   6.350   4.955   5.417 -0.1324  2.2985  3.0861
 7703TIP3   OH223053   4.971   5.178   2.032  0.1297  0.0416 -0.1881
 7703TIP3    H123054   5.016   5.193   2.115 -1.0754 -1.7465  0.8320
 7703TIP3    H223055   4.985   5.258   1.981  2.7558  0.2651  0.8623
 7704TIP3   OH223056   6.735   5.164   2.714  0.0320 -0.7373  0.0008
 7704TIP3    H123057   6.745   5.255   2.684  0.3603 -1.6366 -2.7579
 7704TIP3    H223058   6.789   5.113   2.654 -0.0524 -2.7559  1.5993
 7705TIP3   OH223059   5.413   4.146   3.809  0.2812  0.1613 -0.1450
 7705TIP3    H123060   5.442   4.220   3.862  0.1591 -0.7359  1.2093
 7705TIP3    H223061   5.342   4.107   3.860 -0.0340 -0.5432 -1.1149
 7706TIP3   OH223062   6.448   4.130   2.077 -0.5869  0.8517  0.0355
 7706TIP3    H123063   6.463   4.038   2.056 -2.7862  1.0353 -2.5540
 7706TIP3    H223064   6.520   4.153   2.136  1.3498 -1.8611 -1.1716
 7707TIP3   OH223065   6.697   4.859   2.955 -0.6583 -0.2518 -0.0035
 7707TIP3    H123066   6.657   4.893   2.875  0.9839  4.3367  1.0020
 7707TIP3    H223067   6.791   4.864   2.939 -0.2693  1.8434  2.5915
 7708TIP3   OH223068   7.066   4.681   3.229  0.3941 -0.3648 -0.6603
 7708TIP3    H123069   7.130   4.615   3.202 -0.4905 -1.7719  0.5891
 7708TIP3    H223070   7.117   4.761   3.239  2.0966 -1.6123  0.9916
 7709TIP3   OH223071   4.972   5.860   2.059  0.1172  0.1397 -0.0907
 7709TIP3    H123072   4.973   5.868   2.154  1.0345  2.2878 -0.2584
 7709TIP3    H223073   5.035   5.791   2.040  0.7294  0.4448  0.8048
 7710TIP3   OH223074   7.204   4.743   4.699 -0.0956 -0.3695  0.3745
 7710TIP3    H123075   7.174   4.793   4.774 -2.0697 -1.6379  0.4752
 7710TIP3    H223076   7.252   4.669   4.737  0.0005 -0.3219  0.3448
 7711TIP3   OH223077   5.148   2.997   5.045  0.4532 -0.2048  0.0849
 7711TIP3    H123078   5.102   3.026   4.967 -0.0326  0.3123  0.5574
 7711TIP3    H223079   5.198   3.074   5.074  0.8908 -0.4913  0.0948
 7712TIP3   OH223080   6.008   4.669   2.208  0.4884  0.0428  0.0094
 7712TIP3    H123081   5.991   4.583   2.248  1.2433  0.0452  0.3438
 7712TIP3    H223082   5.999   4.731   2.281  3.5110 -0.1107  0.5688
 7713TIP3   OH223083   5.299   6.003   3.037  0.8366  0.4089 -0.1184
 7713TIP3    H123084   5.322   6.024   2.947  1.3466 -1.9165 -0.5766
 7713TIP3    H223085   5.232   5.936   3.030 -1.1404  2.1792  1.2641
 7714TIP3   OH223086   5.885   4.269   2.534  0.3999  0.3872  0.4596
 7714TIP3    H123087   5.801   4.241   2.498  0.7179 -0.8521  0.6564
 7714TIP3    H223088   5.917   4.335   2.472 -0.3422  0.2923 -0.0343
 7715TIP3   OH223089   6.024   6.002   2.843 -0.4950  0.3523 -0.5923
 7715TIP3    H123090   6.037   6.044   2.928 -2.3888  0.6895 -0.4537
 7715TIP3    H223091   5.941   5.955   2.851  0.1306 -0.9720 -1.7252
 7716TIP3   OH223092   7.494   3.387   5.247  0.2132 -0.4545 -0.4391
 7716TIP3    H123093   7.580   3.389   5.291 -0.4657 -0.8535  0.9287
 7716TIP3    H223094   7.501   3.454   5.179  0.9266  0.9565  0.9890
 7717TIP3   OH223095   6.475   5.582   4.976 -0.2321  0.4386 -0.4054
 7717TIP3    H123096   6.417   5.508   4.958 -1.5665  1.7257 -1.4831
 7717TIP3    H223097   6.490   5.578   5.071 -1.7695 -0.1338 -0.1768
 7718TIP3   OH223098   5.570   4.418   5.010 -0.3756 -0.5711  0.0565
 7718TIP3    H123099   5.527   4.358   4.948 -1.9693 -0.3230  0.8858
 7718TIP3    H223100   5.562   4.504   4.970  0.3764 -0.6756 -0.3237
 7719TIP3   OH223101   7.879   3.068   6.630  0.3120 -0.5098  0.0552
 7719TIP3    H123102   7.955   3.059   6.573  0.0094  1.5248 -0.7147
 7719TIP3    H223103   7.812   3.012   6.590  1.9366 -3.8290  1.8010
 7720TIP3   OH223104   8.062   2.888   3.089 -0.0595  0.5477  0.2440
 7720TIP3    H123105   8.011   2.819   3.046 -0.1522 -0.7169  2.3192
 7720TIP3    H223106   8.028   2.890   3.178  0.9689  2.2755  0.6029
 7721TIP3   OH223107   6.349   2.558   3.632  0.3188  0.2309 -0.1979
 7721TIP3    H123108   6.323   2.650   3.638 -0.2199  0.0969 -0.4512
 7721TIP3    H223109   6.355   2.540   3.539 -0.6066 -0.2691 -0.1734
 7722TIP3   OH223110   7.320   5.958   4.288  0.3232  0.0062  0.0836
 7722TIP3    H123111   7.300   5.937   4.197  1.7028 -0.5139 -0.1093
 7722TIP3    H223112   7.255   6.025   4.312 -0.5075 -0.3848 -1.0419
 7723TIP3   OH223113   6.117   4.994   1.394 -0.1097  0.1392 -0.4387
 7723TIP3    H123114   6.068   5.075   1.408  1.4060  0.8843  0.6011
 7723TIP3    H223115   6.058   4.925   1.426 -2.6252  0.4668 -3.9920
 7724TIP3   OH223116   6.365   5.094   2.131  0.4001  0.3974  0.1258
 7724TIP3    H123117   6.364   5.000   2.111  0.9773  0.1658  1.1781
 7724TIP3    H223118   6.333   5.100   2.220  2.3911  1.0055  0.8312
 7725TIP3   OH223119   5.813   5.159   5.355 -0.0713  0.0399  0.0501
 7725TIP3    H123120   5.725   5.123   5.354 -0.2947  0.5813 -0.6808
 7725TIP3    H223121   5.842   5.152   5.446 -1.1059  0.4384  0.4127
 7726TIP3   OH223122   5.348   3.840   1.578 -0.4477  0.6489 -0.9217
 7726TIP3    H123123   5.280   3.829   1.512  0.9680 -0.9364 -2.1546
 7726TIP3    H223124   5.354   3.935   1.590 -1.6154  0.8886 -2.1114
 7727TIP3   OH223125   6.100   0.328   2.399 -0.4673 -0.3350  0.3518
 7727TIP3    H123126   6.093   0.370   2.313 -0.9285 -0.8906  0.1116
 7727TIP3    H223127   6.033   0.371   2.452 -1.7758 -1.5759 -0.2424
 7728TIP3   OH223128   3.719   2.284   3.845 -0.4719 -0.2350 -0.0339
 7728TIP3    H123129   3.629   2.261   3.822 -0.4633 -0.1070 -0.1967
 7728TIP3    H223130   3.749   2.339   3.772 -0.9873  1.5192  1.0480
 7729TIP3   OH223131   6.602   3.314   3.389 -0.1892  0.0474 -0.0575
 7729TIP3    H123132   6.586   3.265   3.470 -0.8857  1.6769  0.8279
 7729TIP3    H223133   6.591   3.250   3.319  0.3155 -1.3674  1.1382
 7730TIP3   OH223134   4.941   2.270   3.833  0.0816  0.2752 -0.5130
 7730TIP3    H123135   4.900   2.343   3.879  0.0280 -0.1908  0.1826
 7730TIP3    H223136   4.883   2.253   3.759 -0.6420  0.0465  0.0936
 7731TIP3   OH223137   4.698   4.191   2.651 -0.3564 -0.6600  0.6405
 7731TIP3    H123138   4.732   4.171   2.564 -0.5224  0.6333  0.2788
 7731TIP3    H223139   4.772   4.175   2.709  0.6432  1.3594 -0.0589
 7732TIP3   OH223140   7.484   3.898   3.574 -0.6688 -0.1798 -0.7683
 7732TIP3    H123141   7.494   3.837   3.501  0.4056 -1.5125  0.4805
 7732TIP3    H223142   7.432   3.851   3.639  0.0193  0.2848  0.1374
 7733TIP3   OH223143   4.883   3.093   2.816 -0.4131 -0.2922  0.0897
 7733TIP3    H123144   4.931   3.057   2.891  1.2449  1.1519 -0.2563
 7733TIP3    H223145   4.942   3.081   2.742 -1.2306  0.1050 -0.6336
 7734TIP3   OH223146   6.212   6.382   4.805  0.3894 -0.0804 -0.0377
 7734TIP3    H123147   6.287   6.425   4.846 -0.0788 -0.7046  1.4996
 7734TIP3    H223148   6.140   6.444   4.818  0.3300 -0.0965 -0.2913
 7735TIP3   OH223149   3.775   4.168   4.816  0.8208  0.1986  0.3138
 7735TIP3    H123150   3.813   4.242   4.769  3.8050 -2.6605 -1.9949
 7735TIP3    H223151   3.780   4.193   4.908  1.0527  3.1584 -0.4664
 7736TIP3   OH223152   4.991   3.641   3.195 -0.7414  0.1930 -0.1331
 7736TIP3    H123153   5.051   3.713   3.178 -4.2469  3.2542 -0.0331
 7736TIP3    H223154   5.004   3.620   3.288 -1.0885  2.0731  0.3550
 7737TIP3   OH223155   7.510   6.592   1.688  0.3814 -0.2024 -0.3354
 7737TIP3    H123156   7.419   6.615   1.704  0.8066  1.7608 -0.6509
 7737TIP3    H223157   7.553   6.675   1.668  1.7317 -1.4221 -2.6835
 7738TIP3   OH223158   5.358   5.261   1.157  0.2728 -0.2635 -0.4321
 7738TIP3    H123159   5.263   5.264   1.141  0.3270 -0.1865 -0.7510
 7738TIP3    H223160   5.389   5.347   1.128  0.2206  0.2848  1.1095
 7739TIP3   OH223161   6.175   4.153   4.746  0.1214 -0.1109  0.6232
 7739TIP3    H123162   6.102   4.130   4.688 -0.0169  1.7127  0.0556
 7739TIP3    H223163   6.239   4.196   4.689 -0.7921  3.3469  2.1184
 7740TIP3   OH223164   5.770   1.590   4.102  0.7387  0.0414  0.2276
 7740TIP3    H123165   5.830   1.629   4.165  2.7178 -2.2425 -0.1782
 7740TIP3    H223166   5.790   1.497   4.105 -2.4053 -0.7049 -0.3661
 7741TIP3   OH223167   4.905   4.862   4.538 -0.2040 -0.0865 -0.0308
 7741TIP3    H123168   4.885   4.786   4.483 -0.4488  1.1818 -1.7268
 7741TIP3    H223169   4.995   4.885   4.514  0.7171 -1.2670  2.1992
 7742TIP3   OH223170   5.332   2.507   4.651  0.0047  0.4809  0.0156
 7742TIP3    H123171   5.381   2.587   4.668 -0.8482  1.0066  0.0256
 7742TIP3    H223172   5.377   2.440   4.703  0.4209  1.0523  0.4004
 7743TIP3   OH223173   5.977   2.577   6.869 -0.5489  0.7231 -1.0760
 7743TIP3    H123174   6.004   2.492   6.835  0.5302  1.0102 -0.9706
 7743TIP3    H223175   5.881   2.576   6.864 -0.5040 -0.1372 -1.9270
 7744TIP3   OH223176   3.412   4.957   3.647 -0.6657 -0.0722  0.6705
 7744TIP3    H123177   3.420   4.974   3.741  3.2430 -2.1811  0.8326
 7744TIP3    H223178   3.496   4.985   3.611 -1.0004 -2.0786 -1.7466
 7745TIP3   OH223179   2.850   3.301   3.510  0.0785 -0.6579  0.9237
 7745TIP3    H123180   2.924   3.309   3.450 -1.2999  0.7459 -0.6289
 7745TIP3    H223181   2.869   3.363   3.580  0.3050 -0.2131  0.4658
 7746TIP3   OH223182   6.416   4.824   4.754  0.4037 -0.6324 -0.1491
 7746TIP3    H123183   6.410   4.772   4.674  0.1389  0.0971 -0.6188
 7746TIP3    H223184   6.508   4.851   4.758  0.0818  0.6913 -1.1092
 7747TIP3   OH223185   6.173   2.979   2.037  0.2402 -0.1254 -0.2769
 7747TIP3    H123186   6.261   2.947   2.059  0.6001  0.2288 -1.1906
 7747TIP3    H223187   6.126   2.901   2.008  0.7662 -0.0271 -1.3978
 7748TIP3   OH223188   6.684   5.036   4.031 -0.4726 -0.2053  0.4989
 7748TIP3    H123189   6.602   5.014   3.987  0.4527 -1.7193 -0.5436
 7748TIP3    H223190   6.677   4.995   4.117 -0.6722 -0.6278  0.2828
 7749TIP3   OH223191   7.472   5.038   3.261  0.4755  0.4914  0.3978
 7749TIP3    H123192   7.480   5.019   3.354 -2.4615 -1.3462  0.3203
 7749TIP3    H223193   7.542   4.988   3.220 -0.2079 -1.2323  1.3186
 7750TIP3   OH223194   5.517   4.105   2.710 -0.0184  0.1577 -0.5136
 7750TIP3    H123195   5.607   4.128   2.734  0.0893 -1.4907  0.7436
 7750TIP3    H223196   5.527   4.039   2.641 -0.2513 -0.7788  0.3443
 7751TIP3   OH223197   4.042   1.783   5.055 -0.0976  0.2669 -0.0529
 7751TIP3    H123198   4.134   1.808   5.060  0.3034 -0.3982 -3.2491
 7751TIP3    H223199   3.996   1.865   5.038 -0.0985  0.5767  1.3922
 7752TIP3   OH223200   7.808   3.363   2.364  0.2831  0.0468 -0.0664
 7752TIP3    H123201   7.774   3.434   2.419 -1.3157  0.6013 -1.7091
 7752TIP3    H223202   7.736   3.342   2.305  2.1271 -0.1503 -2.3170
 7753TIP3   OH223203   7.092   5.733   4.741 -0.6492 -0.2827  1.0354
 7753TIP3    H123204   7.119   5.801   4.803 -2.3639  1.1124  0.2926
 7753TIP3    H223205   7.140   5.753   4.661  1.5263 -2.0557  1.8575
 7754TIP3   OH223206   4.312   6.512   1.644  0.1171  0.0680  0.1720
 7754TIP3    H123207   4.323   6.586   1.584  2.5140  1.2493  2.0084
 7754TIP3    H223208   4.368   6.443   1.608 -0.6492 -0.2286 -0.4815
 7755TIP3   OH223209   6.130   4.838   4.508 -0.1096  0.0890 -0.6594
 7755TIP3    H123210   6.179   4.898   4.452 -1.9677  1.0478 -1.2764
 7755TIP3    H223211   6.048   4.884   4.528 -0.8501 -1.5631  0.2121
 7756TIP3   OH223212   7.847   5.972   4.085  0.2871  0.0605 -0.2269
 7756TIP3    H123213   7.815   6.059   4.106  1.1240 -0.1070  1.8901
 7756TIP3    H223214   7.937   5.971   4.117  0.4905 -1.3802 -0.7858
 7757TIP3   OH223215   5.921   6.086   4.715 -0.0567  0.0763 -0.2006
 7757TIP3    H123216   5.912   6.155   4.650  2.9784  0.9255  0.1688
 7757TIP3    H223217   5.896   6.128   4.798 -4.1557 -1.0736 -0.7653
 7758TIP3   OH223218   8.072   3.524   3.831 -0.3786  0.0216 -0.3007
 7758TIP3    H123219   8.078   3.610   3.790  0.1158 -0.7342 -1.8139
 7758TIP3    H223220   8.006   3.477   3.779 -0.0770 -0.7854  0.0376
 7759TIP3   OH223221   5.551   5.527   5.203  0.4997  0.6561  0.5834
 7759TIP3    H123222   5.482   5.523   5.270 -1.4072  1.6747 -1.2910
 7759TIP3    H223223   5.508   5.498   5.123  2.3208  1.1313 -0.5763
 7760TIP3   OH223224   6.695   4.715   2.042  0.7200  0.2811  0.4597
 7760TIP3    H123225   6.717   4.732   2.133 -0.6625 -0.9125  1.0286
 7760TIP3    H223226   6.719   4.624   2.027 -0.6013 -0.0248  0.1203
 7761TIP3   OH223227   4.560   5.793   4.198 -0.2653  0.3527  0.2600
 7761TIP3    H123228   4.606   5.823   4.276  0.3195  1.3443 -0.4581
 7761TIP3    H223229   4.629   5.768   4.137 -0.7287 -1.9093  0.6068
 7762TIP3   OH223230   7.645   3.956   2.217  0.0800  0.0385 -0.5417
 7762TIP3    H123231   7.723   3.991   2.174  0.4215  0.8894  0.7463
 7762TIP3    H223232   7.671   3.868   2.247  1.1022  0.9581  1.3564
 7763TIP3   OH223233   6.641   4.504   3.827  0.3702  0.4333 -0.0022
 7763TIP3    H123234   6.720   4.493   3.775  0.1187  2.3712 -0.8188
 7763TIP3    H223235   6.672   4.515   3.917  0.9184 -0.7410 -0.0440
 7764TIP3   OH223236   5.172   6.737   5.085 -0.0909 -0.2538 -0.4888
 7764TIP3    H123237   5.261   6.714   5.058  0.0603  0.9206 -1.0072
 7764TIP3    H223238   5.136   6.785   5.010 -0.7101  0.4212  0.2426
 7765TIP3   OH223239   7.199   4.953   3.212  0.8059 -0.0165  0.6396
 7765TIP3    H123240   7.280   4.979   3.255  1.5485 -1.8846  0.3822
 7765TIP3    H223241   7.130   4.999   3.261  1.7251 -1.1774  3.0989
 7766TIP3   OH223242   6.366   1.723   0.652  0.3524  0.3755  0.3770
 7766TIP3    H123243   6.272   1.733   0.637  0.2700  1.3146  1.4995
 7766TIP3    H223244   6.384   1.772   0.732  1.6873 -0.3471  0.5427
 7767TIP3   OH223245   6.073   1.988   5.128 -0.4318  0.0259  0.3725
 7767TIP3    H123246   6.115   1.904   5.111 -0.6519 -0.0213  0.0711
 7767TIP3    H223247   6.124   2.025   5.200  2.0495  1.3172 -1.9503
 7768TIP3   OH223248   5.892   3.206   4.811 -0.1728 -0.3238  0.1678
 7768TIP3    H123249   5.797   3.213   4.801  0.1340  1.3577 -1.7176
 7768TIP3    H223250   5.910   3.113   4.802 -1.6221 -0.6519  0.4568
 7769TIP3   OH223251   5.699   3.213   4.026  0.4476  0.2402  0.4033
 7769TIP3    H123252   5.768   3.200   3.960 -1.4252  1.9128 -1.9674
 7769TIP3    H223253   5.702   3.306   4.046 -2.6428  0.8024 -1.5024
 7770TIP3   OH223254   6.670   4.099   3.196 -0.4041  0.3393  0.1590
 7770TIP3    H123255   6.748   4.090   3.141  1.1658  1.0286  2.2169
 7770TIP3    H223256   6.597   4.095   3.134  1.3585  3.4104 -2.2947
 7771TIP3   OH223257   5.555   5.127   4.215  0.2591  0.0053  0.4123
 7771TIP3    H123258   5.609   5.158   4.287  3.2582  0.2889 -1.8420
 7771TIP3    H223259   5.535   5.036   4.237  2.3680 -0.3581  0.9730
 7772TIP3   OH223260   4.297   0.730   2.367 -0.1848 -0.7843  0.3268
 7772TIP3    H123261   4.311   0.637   2.351 -0.1608 -1.1123  2.1165
 7772TIP3    H223262   4.323   0.743   2.459 -0.8130  0.8497  0.3011
 7773TIP3   OH223263   7.175   4.791   5.533  0.0012 -0.3523 -0.1512
 7773TIP3    H123264   7.215   4.864   5.580 -2.9784  0.9709  0.3963
 7773TIP3    H223265   7.186   4.716   5.591  1.5013  0.0022  0.0582
 7774TIP3   OH223266   7.610   3.674   3.798  0.3107  0.6924 -0.5052
 7774TIP3    H123267   7.522   3.712   3.793 -0.4185 -1.0097 -1.3658
 7774TIP3    H223268   7.669   3.746   3.777 -0.7709  2.2466  1.6822
 7775TIP3   OH223269   4.229   5.795   4.714  0.0995  0.0505  0.4155
 7775TIP3    H123270   4.274   5.751   4.643 -0.5117  0.5023 -0.2563
 7775TIP3    H223271   4.192   5.724   4.767  0.1716 -0.2709  0.0346
 7776TIP3   OH223272   7.055   3.228   2.395  0.6645 -0.3802  0.3811
 7776TIP3    H123273   7.102   3.308   2.416  0.8356 -0.5311  0.5679
 7776TIP3    H223274   7.004   3.250   2.317  0.5083 -0.0133  0.5877
 7777TIP3   OH223275   5.938   3.497   4.264 -0.2454 -0.0561  0.2479
 7777TIP3    H123276   5.912   3.415   4.307  0.0555 -1.2790 -1.8065
 7777TIP3    H223277   6.021   3.520   4.305 -0.7976 -0.2570  1.5065
 7778TIP3   OH223278   7.352   2.131   4.508  0.3116 -0.0819  0.1459
 7778TIP3    H123279   7.349   2.075   4.431  0.3012  1.6878 -1.1795
 7778TIP3    H223280   7.357   2.071   4.582  0.0355 -1.8112 -1.2215
 7779TIP3   OH223281   3.510   4.259   2.923  0.0579  0.2541  0.1892
 7779TIP3    H123282   3.433   4.249   2.979  0.3894  0.6570  0.7189
 7779TIP3    H223283   3.541   4.170   2.909 -1.5975 -0.0692 -1.5691
 7780TIP3   OH223284   2.800   6.784   4.247  0.0611  0.6889  0.2223
 7780TIP3    H123285   2.717   6.826   4.268 -1.5910 -1.1254 -2.4225
 7780TIP3    H223286   2.838   6.839   4.179  0.7927  1.1933  1.0209
 7781TIP3   OH223287   5.526   3.971   6.218 -0.5781 -0.0080  0.8851
 7781TIP3    H123288   5.498   4.049   6.266  0.4571  1.3672 -0.6653
 7781TIP3    H223289   5.456   3.907   6.232 -0.1247  0.1906  4.5215
 7782TIP3   OH223290   0.692   5.971   2.210  0.4308  0.0680  0.0290
 7782TIP3    H123291   0.753   6.012   2.149  0.3968 -0.1615 -0.1649
 7782TIP3    H223292   0.732   5.980   2.296 -0.6987  2.6603  0.3259
 7783TIP3   OH223293   6.051   4.754   4.956 -0.7250  0.0232  0.5107
 7783TIP3    H123294   5.974   4.801   4.985 -0.7655 -1.1569  2.4589
 7783TIP3    H223295   6.035   4.663   4.983  1.0125 -0.3650  0.3027
 7784TIP3   OH223296   8.282   6.589   0.981 -0.5569  1.0150 -0.4020
 7784TIP3    H123297   8.305   6.629   1.065  0.8042  1.3314 -0.9113
 7784TIP3    H223298   8.341   6.514   0.973 -2.9727 -1.0243  0.4705
 7785TIP3   OH223299   4.922   2.421   6.090  0.0049 -0.1275  0.1006
 7785TIP3    H123300   4.847   2.462   6.132  1.0355  0.5170  1.3329
 7785TIP3    H223301   4.922   2.455   6.000 -0.4965  0.7587  0.4386
 7786TIP3   OH223302   6.264   7.450   2.667 -0.5272  0.5204 -0.0891
 7786TIP3    H123303   6.175   7.467   2.636 -0.5815  1.1568  0.3796
 7786TIP3    H223304   6.311   7.418   2.591 -1.1390  0.2668 -0.3617
 7787TIP3   OH223305   6.383   4.257   4.606  0.3179 -0.2141  0.7677
 7787TIP3    H123306   6.400   4.253   4.512 -1.5392  0.7561  0.3487
 7787TIP3    H223307   6.463   4.293   4.644  1.5412 -1.7854 -0.2824
 7788TIP3   OH223308   6.462   5.154   4.412  0.2298 -0.1594 -0.3975
 7788TIP3    H123309   6.432   5.228   4.360  1.1094 -0.4362 -1.2872
 7788TIP3    H223310   6.533   5.115   4.362 -0.0295 -1.4362  0.1999
 7789TIP3   OH223311   6.436   5.471   4.667 -0.4742 -0.6160  0.1096
 7789TIP3    H123312   6.394   5.400   4.716 -2.4909  0.4168 -0.0448
 7789TIP3    H223313   6.517   5.432   4.634 -0.7002 -2.3283  1.4357
 7790TIP3   OH223314   6.996   3.478   4.130 -0.5970  0.2682 -0.3602
 7790TIP3    H123315   7.069   3.540   4.137  0.3713 -0.8079 -0.8918
 7790TIP3    H223316   7.035   3.392   4.148 -1.5492 -0.4229 -1.5459
 7791TIP3   OH223317   7.223   3.772   1.286 -0.2527 -0.5193  0.0994
 7791TIP3    H123318   7.212   3.856   1.241 -2.6557 -1.3836 -1.0087
 7791TIP3    H223319   7.204   3.706   1.219  1.8339 -1.9829  0.8909
 7792TIP3   OH223320   6.524   4.992   6.074  0.1258 -0.0187  0.0011
 7792TIP3    H123321   6.516   5.040   6.156  2.5762 -0.5044  0.5739
 7792TIP3    H223322   6.530   4.900   6.101 -0.0830 -0.2650 -0.7828
 7793TIP3   OH223323   5.411   3.614   2.259 -0.0396 -0.5006 -0.0507
 7793TIP3    H123324   5.505   3.597   2.258  0.0910  0.2575 -2.5786
 7793TIP3    H223325   5.401   3.693   2.312  0.8864  0.2501 -0.9976
 7794TIP3   OH223326   6.045   4.315   4.353  0.6121  0.0606 -0.1933
 7794TIP3    H123327   6.008   4.304   4.265 -0.3741  0.9903  0.1005
 7794TIP3    H223328   6.115   4.379   4.342  0.3044  0.3859 -0.2487
 7795TIP3   OH223329   5.285   5.424   2.031 -0.1419  0.2753 -0.0873
 7795TIP3    H123330   5.341   5.425   1.954 -0.1608  0.7712 -0.0978
 7795TIP3    H223331   5.289   5.334   2.063 -0.0293  0.1023 -0.5874
 7796TIP3   OH223332   5.797   2.468   4.310 -0.4113  0.0831 -0.8107
 7796TIP3    H123333   5.882   2.470   4.353 -0.4975  1.1101 -0.6758
 7796TIP3    H223334   5.751   2.394   4.351 -0.7765  1.4932  1.4280
 7797TIP3   OH223335   5.828   5.628   4.470  0.1025 -0.4868  0.3701
 7797TIP3    H123336   5.907   5.574   4.474  0.5376  0.1064 -0.2208
 7797TIP3    H223337   5.846   5.701   4.529  0.1208 -0.1779 -0.0223
 7798TIP3   OH223338   5.888   5.372   2.728  0.2027  0.1017 -0.2447
 7798TIP3    H123339   5.890   5.337   2.817 -1.0673  0.0244 -0.2395
 7798TIP3    H223340   5.813   5.330   2.687  1.2058 -0.4211 -1.5939
 7799TIP3   OH223341   7.513   4.152   3.395  0.4923 -0.1865 -0.5301
 7799TIP3    H123342   7.574   4.110   3.335  0.0339  1.4126 -2.1470
 7799TIP3    H223343   7.480   4.081   3.450  1.2585 -1.5942 -1.8703
 7800TIP3   OH223344   6.944   5.466   1.299 -0.6700  0.0047 -0.4042
 7800TIP3    H123345   6.868   5.522   1.294 -0.7097 -0.1110 -1.1323
 7800TIP3    H223346   7.016   5.524   1.325 -0.8414  0.2638 -0.5149
 7801TIP3   OH223347   5.418   4.939   4.540  0.0932  0.0914 -0.0579
 7801TIP3    H123348   5.438   5.033   4.537  1.5961 -0.2049  0.3993
 7801TIP3    H223349   5.450   4.905   4.457 -1.4809  0.1624 -0.7142
 7802TIP3   OH223350   3.642   3.659   4.399  0.5758  0.1595 -0.3993
 7802TIP3    H123351   3.695   3.726   4.442  0.4598 -0.9790  1.5463
 7802TIP3    H223352   3.581   3.708   4.344  0.6694  1.6368  0.8034
 7803TIP3   OH223353   0.639   2.437   3.912  0.2068 -0.0146  0.2799
 7803TIP3    H123354   0.693   2.451   3.834 -0.3720  0.0051 -0.1138
 7803TIP3    H223355   0.552   2.418   3.879 -0.1344  0.3873  0.9330
 7804TIP3   OH223356   6.465   6.103   3.695  0.5256  0.1036 -0.2324
 7804TIP3    H123357   6.482   6.135   3.784  0.2302 -0.0400 -0.1251
 7804TIP3    H223358   6.529   6.149   3.641 -0.7598  1.8709 -0.2802
 7805TIP3   OH223359   7.003   3.827   5.545  0.0177  0.5066  0.5781
 7805TIP3    H123360   6.910   3.826   5.522 -0.0010  0.3919  0.6589
 7805TIP3    H223361   7.028   3.919   5.543  0.2797  0.4249 -0.9973
 7806TIP3   OH223362   6.482   5.024   5.797  0.2737 -0.4587 -0.0601
 7806TIP3    H123363   6.546   4.967   5.754 -0.0817 -2.9656  2.5619
 7806TIP3    H223364   6.493   5.007   5.890 -1.2485  2.3432  0.6994
 7807TIP3   OH223365   5.811   4.274   4.618  0.0537 -0.0625 -0.3134
 7807TIP3    H123366   5.727   4.229   4.623 -0.6245  1.2701  0.4538
 7807TIP3    H223367   5.825   4.288   4.524 -0.3787 -0.6531 -0.4689
 7808TIP3   OH223368   5.438   3.446   5.889 -0.3074 -0.4619 -0.2199
 7808TIP3    H123369   5.452   3.442   5.984 -1.2236  0.1830 -0.0474
 7808TIP3    H223370   5.381   3.522   5.877  0.1288 -0.3055 -1.3340
 7809TIP3   OH223371   5.214   6.535   2.933 -0.2200 -0.6646  0.2932
 7809TIP3    H123372   5.257   6.618   2.913 -0.4311 -0.6745 -0.1985
 7809TIP3    H223373   5.156   6.519   2.858 -0.0842 -1.3218  0.3279
 7810TIP3   OH223374   4.566   5.594   3.226 -0.0751  0.0005 -0.2007
 7810TIP3    H123375   4.633   5.527   3.219 -0.0109  0.1961 -1.5047
 7810TIP3    H223376   4.518   5.590   3.143  0.3264  1.9661 -0.5635
 7811TIP3   OH223377   4.001   5.469   3.636  0.3816 -0.1476  0.8024
 7811TIP3    H123378   3.960   5.405   3.694  1.1431 -0.0873  1.4191
 7811TIP3    H223379   4.070   5.420   3.591  0.4528  0.0527  0.6921
 7812TIP3   OH223380   4.505   5.530   5.211 -0.6105  0.7311  0.9421
 7812TIP3    H123381   4.553   5.488   5.282  1.2928  1.5510  0.1872
 7812TIP3    H223382   4.459   5.459   5.167 -1.9084  0.2246  3.0344
 7813TIP3   OH223383   5.840   5.783   3.244 -0.1506  0.1295 -0.9124
 7813TIP3    H123384   5.764   5.834   3.272 -1.1390 -1.4764 -0.5888
 7813TIP3    H223385   5.834   5.780   3.149 -1.0676 -0.8635 -0.8227
 7814TIP3   OH223386   6.145   5.852   3.093  0.1333 -0.2909  0.4202
 7814TIP3    H123387   6.235   5.819   3.085  0.9658  1.8732  0.5632
 7814TIP3    H223388   6.115   5.860   3.003  0.8353  0.9607  0.2886
 7815TIP3   OH223389   5.334   6.202   5.310  0.2986 -0.3072 -0.4481
 7815TIP3    H123390   5.384   6.255   5.248 -0.6098  0.5888 -0.4227
 7815TIP3    H223391   5.244   6.206   5.279 -0.0724 -0.3180  0.6111
 7816TIP3   OH223392   5.385   1.944   4.393 -0.0476  0.1034 -0.0171
 7816TIP3    H123393   5.357   1.966   4.304  1.4877 -2.3036 -1.1602
 7816TIP3    H223394   5.395   1.848   4.391 -2.7693 -0.3712  3.5702
 7817TIP3   OH223395   6.326   4.821   2.974  0.0122 -0.1938 -0.1134
 7817TIP3    H123396   6.239   4.862   2.979 -0.1454 -0.5081 -0.2360
 7817TIP3    H223397   6.363   4.834   3.061  0.3833  1.1176 -0.4594
 7818TIP3   OH223398   6.609   4.092   2.542  0.0417  0.0380 -0.5159
 7818TIP3    H123399   6.673   4.041   2.592  1.2902  3.3002  1.3410
 7818TIP3    H223400   6.525   4.076   2.586  0.7669  1.1136  1.3115
 7819TIP3   OH223401   5.998   6.415   5.825 -0.2022 -0.4708  0.6782
 7819TIP3    H123402   5.919   6.432   5.773 -1.1375 -0.7414  1.9857
 7819TIP3    H223403   6.069   6.416   5.761 -1.2788 -0.3547 -0.5424
 7820TIP3   OH223404   6.739   5.128   2.312 -0.1535  0.3104  0.3837
 7820TIP3    H123405   6.647   5.146   2.334 -0.0226  0.2187  1.0168
 7820TIP3    H223406   6.774   5.212   2.283 -0.7631  0.0944 -1.0531
 7821TIP3   OH223407   6.788   3.954   2.684  0.2694  0.2924  0.4462
 7821TIP3    H123408   6.808   3.860   2.680  1.2364  0.4973  0.2215
 7821TIP3    H223409   6.759   3.968   2.774  0.0427 -0.2369  0.4574
 7822TIP3   OH223410   6.075   4.962   3.035 -0.3512  0.2044 -0.2884
 7822TIP3    H123411   6.011   4.992   2.971 -1.6240  0.9471  1.2800
 7822TIP3    H223412   6.029   4.968   3.119  0.9481 -1.6480  0.5926
 7823TIP3   OH223413   8.352   6.526   2.418  0.3918  0.2052 -0.2402
 7823TIP3    H123414   8.437   6.486   2.397  0.5368 -0.1449  0.9912
 7823TIP3    H223415   8.290   6.453   2.413  0.3118  0.2699 -0.1884
 7824TIP3   OH223416   6.316   4.517   5.154  0.2165 -0.3989  0.0454
 7824TIP3    H123417   6.369   4.458   5.208 -0.5613 -1.4459 -0.3142
 7824TIP3    H223418   6.229   4.478   5.155 -0.4600  1.0725  0.2917
 7825TIP3   OH223419   5.339   3.573   3.605 -0.6582 -0.4335  0.2788
 7825TIP3    H123420   5.306   3.498   3.654  0.5519  0.7558  2.9905
 7825TIP3    H223421   5.427   3.547   3.579 -0.4411 -0.1618  0.7451
 7826TIP3   OH223422   5.603   3.485   4.858 -0.0224  0.6204 -0.3029
 7826TIP3    H123423   5.649   3.523   4.933  0.5016 -0.0819 -0.2649
 7826TIP3    H223424   5.617   3.391   4.867  0.6295  0.5759 -1.6700
 7827TIP3   OH223425   7.073   6.822   1.398  0.2107 -0.0088 -0.5360
 7827TIP3    H123426   7.024   6.902   1.421  1.2316  0.1404  1.2716
 7827TIP3    H223427   7.006   6.755   1.386 -0.5084  0.2508  1.6658
 7828TIP3   OH223428   7.623   4.172   3.723  0.3282 -0.0636  0.0356
 7828TIP3    H123429   7.660   4.156   3.636 -3.5546 -1.7887 -1.3704
 7828TIP3    H223430   7.592   4.087   3.752  1.7745  0.4416  3.2978
 7829TIP3   OH223431   5.710   5.034   3.421  0.6408  0.4264  0.2581
 7829TIP3    H123432   5.651   5.029   3.346  1.1981 -0.6170 -0.1276
 7829TIP3    H223433   5.699   4.949   3.466 -0.3480  1.3779  1.8616
 7830TIP3   OH223434   5.333   3.426   5.595 -0.2985 -0.3214 -0.1131
 7830TIP3    H123435   5.388   3.401   5.669 -0.1282  0.7264  0.1083
 7830TIP3    H223436   5.312   3.518   5.609 -2.9553 -0.9671  0.3358
 7831TIP3   OH223437   7.307   4.151   0.170 -0.4081  0.4696  0.0055
 7831TIP3    H123438   7.293   4.233   0.217 -1.0111  0.4848 -0.1922
 7831TIP3    H223439   7.402   4.143   0.164 -0.3103  0.0078  2.0167
 7832TIP3   OH223440   4.246   3.469   5.236  0.3237 -0.1384 -0.0758
 7832TIP3    H123441   4.220   3.533   5.169 -1.3871  0.3141  0.9775
 7832TIP3    H223442   4.300   3.519   5.297 -1.8729  0.6059  1.3115
 7833TIP3   OH223443   6.555   4.739   5.188 -0.6464 -0.0244  0.1706
 7833TIP3    H123444   6.552   4.835   5.186 -0.9165 -0.0236  0.5056
 7833TIP3    H223445   6.550   4.717   5.280 -0.5199 -0.3627  0.0972
 7834TIP3   OH223446   7.184   6.445   2.314  0.0046  0.0882  0.4727
 7834TIP3    H123447   7.223   6.396   2.242 -3.3219  1.5198 -2.4605
 7834TIP3    H223448   7.244   6.518   2.328  1.3695 -0.9410  0.0223
 7835TIP3   OH223449   5.229   4.933   5.214  0.4253  0.0886  0.4400
 7835TIP3    H123450   5.284   4.856   5.198 -0.6181 -0.4348 -0.7131
 7835TIP3    H223451   5.171   4.907   5.285 -1.9613 -1.2987 -1.9348
 7836TIP3   OH223452   5.772   3.145   3.188 -0.3738 -0.0971 -0.2766
 7836TIP3    H123453   5.782   3.240   3.189 -1.0489 -0.0199 -0.9698
 7836TIP3    H223454   5.684   3.130   3.221  0.3057 -0.5720  1.4211
 7837TIP3   OH223455   3.372   3.566   5.401  0.1841  0.5171 -0.0767
 7837TIP3    H123456   3.449   3.619   5.385 -0.6007  1.6096 -0.2490
 7837TIP3    H223457   3.338   3.545   5.314  0.3317 -0.0377 -0.0038
 7838TIP3   OH223458   5.047   6.340   5.448  0.3215 -0.1359 -0.0467
 7838TIP3    H123459   5.002   6.288   5.382  0.1157  1.0868 -0.9027
 7838TIP3    H223460   5.131   6.362   5.407  0.5671 -0.1212  0.4606
 7839TIP3   OH223461   7.169   6.857   5.082 -0.3883  0.1330  0.1769
 7839TIP3    H123462   7.196   6.793   5.147 -0.9062 -0.9598 -0.6682
 7839TIP3    H223463   7.074   6.845   5.074 -0.6594  1.7229  0.7707
 7840TIP3   OH223464   4.372   7.442   3.386 -0.2450 -0.4608  0.0108
 7840TIP3    H123465   4.353   7.426   3.479 -0.3806  0.2879  0.1179
 7840TIP3    H223466   4.408   7.359   3.354 -1.5490 -1.1812  0.3681
 7841TIP3   OH223467   7.196   4.989   5.087 -0.2319 -0.1593 -0.1617
 7841TIP3    H123468   7.159   4.919   5.140  0.3665  0.4478  1.0795
 7841TIP3    H223469   7.169   4.968   4.997 -0.9913 -1.3614  0.3342
 7842TIP3   OH223470   5.759   4.608   4.672 -0.0804 -0.4037 -0.3243
 7842TIP3    H123471   5.848   4.638   4.692  0.0119 -0.8112 -0.1125
 7842TIP3    H223472   5.757   4.517   4.704 -0.1621 -0.8200 -1.5018
 7843TIP3   OH223473   3.424   5.479   4.542 -0.3723  0.0855  0.2693
 7843TIP3    H123474   3.487   5.547   4.567 -1.1917  0.7859  0.4533
 7843TIP3    H223475   3.459   5.399   4.581 -0.1136  0.6502  1.2343
 7844TIP3   OH223476   5.841   6.309   2.966  0.1896 -0.3857 -0.1678
 7844TIP3    H123477   5.913   6.310   3.029 -0.8923 -0.4899  1.0899
 7844TIP3    H223478   5.826   6.402   2.946  0.3483 -0.3361 -0.0566
 7845TIP3   OH223479   6.442   5.547   3.790 -0.4559 -0.1713 -0.3259
 7845TIP3    H123480   6.482   5.551   3.877  1.4605 -1.6550 -1.1203
 7845TIP3    H223481   6.354   5.583   3.803 -0.9803 -2.3361  2.6790
 7846TIP3   OH223482   6.050   5.035   2.566 -0.0230 -0.0177 -0.1400
 7846TIP3    H123483   5.976   5.045   2.626 -0.4737  0.2828 -0.7445
 7846TIP3    H223484   6.126   5.027   2.624 -0.2385  2.0375  0.4768
 7847TIP3   OH223485   4.481   3.792   3.720  0.0396 -0.5003 -0.2513
 7847TIP3    H123486   4.499   3.792   3.626  0.9010 -1.8938 -0.1048
 7847TIP3    H223487   4.463   3.884   3.741  0.1549 -0.1287 -1.7145
 7848TIP3   OH223488   4.388   5.968   4.577  0.3302  0.3294  0.3867
 7848TIP3    H123489   4.389   5.882   4.535  0.3665  0.8656 -0.7046
 7848TIP3    H223490   4.304   5.972   4.622  0.2780 -0.2281  0.3423
 7849TIP3   OH223491   2.744   4.940   2.491 -0.7596  0.2040  0.4037
 7849TIP3    H123492   2.756   4.970   2.582 -0.5998 -0.5687  0.6384
 7849TIP3    H223493   2.829   4.957   2.450 -0.3174 -0.9438  0.8319
 7850TIP3   OH223494   3.965   5.567   4.293  0.0130 -0.0949  0.1855
 7850TIP3    H123495   3.878   5.565   4.331 -0.2725  1.0035 -0.4135
 7850TIP3    H223496   3.952   5.593   4.202  1.0637  1.1750  0.3799
 7851TIP3   OH223497   6.224   3.226   3.736  0.3436 -0.2224  0.4792
 7851TIP3    H123498   6.176   3.205   3.817  0.5370 -0.1376  0.6141
 7851TIP3    H223499   6.230   3.321   3.735 -0.1925 -0.1901  0.0566
 7852TIP3   OH223500   6.527   3.904   4.305 -0.3786  0.2898  0.4298
 7852TIP3    H123501   6.582   3.972   4.345 -2.2390  1.2164  1.4724
 7852TIP3    H223502   6.485   3.861   4.380 -1.5248  0.0000 -0.3742
 7853TIP3   OH223503   6.257   3.148   2.341  0.1435  0.4450  0.7909
 7853TIP3    H123504   6.334   3.126   2.394 -0.8859 -0.3138  2.0075
 7853TIP3    H223505   6.252   3.244   2.345  1.3843  0.5507  0.1566
 7854TIP3   OH223506   4.626   4.657   4.451 -0.2472 -0.1656 -0.4210
 7854TIP3    H123507   4.640   4.569   4.416  3.3540  1.0098 -2.1370
 7854TIP3    H223508   4.651   4.650   4.543 -1.1723 -1.1948 -0.2330
 7855TIP3   OH223509   6.270   4.346   1.476 -0.2784  0.2073 -0.0584
 7855TIP3    H123510   6.202   4.309   1.421 -1.2265  3.2333 -1.0027
 7855TIP3    H223511   6.223   4.393   1.545  0.8802 -1.0246  1.6192
 7856TIP3   OH223512   5.927   2.128   2.973 -0.0507  0.0794 -0.3560
 7856TIP3    H123513   5.971   2.180   3.040 -0.5832  0.6577 -0.4519
 7856TIP3    H223514   5.940   2.038   3.000 -0.8610  0.3315  0.8981
 7857TIP3   OH223515   5.703   5.655   5.761  0.3906 -0.1070 -0.4702
 7857TIP3    H123516   5.725   5.742   5.728 -0.7327  0.0875 -0.7262
 7857TIP3    H223517   5.720   5.660   5.855 -1.5116  1.0083 -0.1562
 7858TIP3   OH223518   0.123   3.120   2.503  0.1364 -0.4353  0.3527
 7858TIP3    H123519   0.038   3.119   2.458  0.7599  0.0912 -0.8690
 7858TIP3    H223520   0.141   3.213   2.518 -0.2059 -0.6201  2.0013
 7859TIP3   OH223521   3.621   5.449   2.436  0.0946 -0.1711  0.1295
 7859TIP3    H123522   3.657   5.405   2.359 -0.6728 -0.4507 -0.0748
 7859TIP3    H223523   3.695   5.456   2.497  1.0492  1.3309 -1.1865
 7860TIP3   OH223524   6.828   2.595   3.412 -0.4074  0.6874 -0.2533
 7860TIP3    H123525   6.909   2.644   3.408 -1.1598  2.0188  0.5197
 7860TIP3    H223526   6.780   2.621   3.334  0.2613 -0.7634 -1.1715
 7861TIP3   OH223527   6.318   2.486   4.212 -0.3691  0.2132  0.3135
 7861TIP3    H123528   6.387   2.551   4.200 -2.2448  2.2190 -0.0122
 7861TIP3    H223529   6.350   2.409   4.165  2.7616  0.1862  2.3151
 7862TIP3   OH223530   5.707   3.880   2.242  0.2918  0.5914 -0.3379
 7862TIP3    H123531   5.717   3.946   2.174  0.2941  0.0029 -0.9193
 7862TIP3    H223532   5.783   3.822   2.231  0.3340  0.5367  0.2139
 7863TIP3   OH223533   6.088   5.012   4.128 -0.1632 -0.2446 -0.2777
 7863TIP3    H123534   6.165   5.019   4.185 -0.2729  0.8095 -0.2419
 7863TIP3    H223535   6.015   5.037   4.184 -0.5018 -0.9735 -0.3908
 7864TIP3   OH223536   5.880   4.431   6.536 -0.3781 -0.6247  0.0691
 7864TIP3    H123537   5.810   4.387   6.487  0.3702 -0.4383 -1.1944
 7864TIP3    H223538   5.952   4.369   6.534 -0.9723 -1.4623  2.6807
 7865TIP3   OH223539   6.932   3.616   4.397  0.2216  0.1716  0.2066
 7865TIP3    H123540   6.929   3.556   4.323 -0.8410  1.4876 -0.8588
 7865TIP3    H223541   6.853   3.596   4.447 -0.1811  0.7082 -0.1985
 7866TIP3   OH223542   3.991   4.161   2.733 -0.6121 -0.0049  0.5865
 7866TIP3    H123543   3.963   4.070   2.743 -1.1364  0.0043 -0.7277
 7866TIP3    H223544   3.921   4.212   2.775 -1.9250 -0.0588 -1.4621
 7867TIP3   OH223545   5.714   3.671   5.755 -0.1896  0.0383 -0.2138
 7867TIP3    H123546   5.791   3.623   5.727 -0.5063 -1.1560  0.9629
 7867TIP3    H223547   5.650   3.657   5.685 -0.7014 -2.2910  0.6823
 7868TIP3   OH223548   5.921   5.338   5.898  0.4220 -0.4950 -0.0576
 7868TIP3    H123549   5.882   5.278   5.963  1.5185 -1.9020 -0.6860
 7868TIP3    H223550   5.851   5.353   5.835 -0.6932  0.9554  1.4555
 7869TIP3   OH223551   7.314   4.417   3.579 -0.0564  0.1049  0.0195
 7869TIP3    H123552   7.300   4.346   3.641  2.1826  1.7031  2.4505
 7869TIP3    H223553   7.245   4.405   3.513 -0.3392 -3.6830  0.8887
 7870TIP3   OH223554   6.549   5.392   3.603 -0.3375  0.0821 -0.0321
 7870TIP3    H123555   6.600   5.455   3.552 -1.0643 -0.2475 -1.1744
 7870TIP3    H223556   6.485   5.446   3.650 -0.4738  0.2647 -0.4289
 7871TIP3   OH223557   8.438   5.636   4.460  0.4624 -0.0435 -0.5459
 7871TIP3    H123558   8.425   5.627   4.555 -1.3088  1.2472 -0.6354
 7871TIP3    H223559   8.513   5.694   4.452  1.0229 -0.6676  0.0539
 7872TIP3   OH223560   7.364   4.658   3.082 -0.0784 -0.5678 -0.2205
 7872TIP3    H123561   7.407   4.579   3.115  1.1121  0.0875 -0.1839
 7872TIP3    H223562   7.378   4.724   3.150 -0.4424 -0.1240 -0.5689
 7873TIP3   OH223563   8.122   4.660   4.001 -0.4192 -0.5010  0.2837
 7873TIP3    H123564   8.126   4.755   3.992 -2.5214 -0.3153  1.1694
 7873TIP3    H223565   8.212   4.631   3.985  0.4323  1.7003  0.9079
 7874TIP3   OH223566   6.628   5.027   1.620  0.5751  0.0907 -0.1907
 7874TIP3    H123567   6.622   4.972   1.698 -1.7760  0.2566 -0.2361
 7874TIP3    H223568   6.719   5.059   1.621  0.2247  1.2250  3.2458
 7875TIP3   OH223569   1.555   7.466   1.107  0.6756 -0.3363  0.2827
 7875TIP3    H123570   1.489   7.527   1.141  0.9927 -0.2838  0.8064
 7875TIP3    H223571   1.556   7.394   1.170 -0.4746 -1.4081 -0.9122
 7876TIP3   OH223572   8.073   5.640   2.793  1.2991 -0.2199  0.7473
 7876TIP3    H123573   8.100   5.663   2.882 -1.1097  1.0271  1.1781
 7876TIP3    H223574   8.000   5.580   2.805 -0.3480  1.5138 -0.3589
 7877TIP3   OH223575   8.167   4.914   3.281  0.4562  0.5452 -0.6430
 7877TIP3    H123576   8.163   4.873   3.367  2.5357 -0.2385 -0.8966
 7877TIP3    H223577   8.202   5.002   3.298  1.3386  0.2139 -0.7433
 7878TIP3   OH223578   7.643   6.655   2.326 -0.7032 -0.4553 -0.1778
 7878TIP3    H123579   7.690   6.576   2.300  3.2224  1.5936  0.3776
 7878TIP3    H223580   7.615   6.637   2.416  1.0252 -0.8716  0.3019
 7879TIP3   OH223581   6.872   3.691   2.193  0.2822 -0.5081 -0.1645
 7879TIP3    H123582   6.917   3.690   2.278  0.3373 -0.5352 -0.1935
 7879TIP3    H223583   6.926   3.749   2.139 -1.2199  1.6918  0.6150
 7880TIP3   OH223584   7.444   4.516   1.351  0.4338 -0.1225  0.8433
 7880TIP3    H123585   7.414   4.607   1.340 -0.8200 -0.7071 -0.6978
 7880TIP3    H223586   7.484   4.494   1.267 -0.8545 -1.5843  0.5991
 7881TIP3   OH223587   6.886   3.197   3.118 -0.0074  0.0003 -0.6338
 7881TIP3    H123588   6.919   3.250   3.190  2.1194  0.8096 -2.1882
 7881TIP3    H223589   6.822   3.253   3.073  0.2523  0.2595 -0.6736
 7882TIP3   OH223590   6.829   2.535   4.106 -0.2961  0.2931 -0.4679
 7882TIP3    H123591   6.852   2.491   4.024 -0.6612 -1.9146  0.5632
 7882TIP3    H223592   6.871   2.483   4.174 -0.5817  1.6817  0.7963
 7883TIP3   OH223593   7.397   3.181   4.435 -0.1765 -0.3508  0.4010
 7883TIP3    H123594   7.430   3.181   4.345 -0.6018  0.6618  0.2319
 7883TIP3    H223595   7.422   3.267   4.469 -0.6064 -0.4760  1.0313
 7884TIP3   OH223596   6.854   3.249   2.221  0.3792 -0.5762  0.4578
 7884TIP3    H123597   6.862   3.193   2.143 -0.0688  0.4914 -0.3734
 7884TIP3    H223598   6.760   3.257   2.235  0.1818  3.5198 -2.1202
 7885TIP3   OH223599   0.002   3.020   4.096 -0.0700  0.0676  0.2087
 7885TIP3    H123600   0.078   2.971   4.062 -0.1972  0.7891 -1.1589
 7885TIP3    H223601  -0.042   2.958   4.153 -0.3558 -1.5364 -1.6716
 7886TIP3   OH223602   8.266   2.213   2.297 -0.4531 -0.0222 -0.1968
 7886TIP3    H123603   8.204   2.248   2.234 -0.3629  1.2423  0.4086
 7886TIP3    H223604   8.211   2.184   2.370 -0.4135  0.1791 -0.0864
 7887TIP3   OH223605   7.108   4.266   4.300  0.2221 -0.5781 -0.2652
 7887TIP3    H123606   7.030   4.299   4.254  0.0154 -0.8885 -0.1388
 7887TIP3    H223607   7.073   4.210   4.369  0.5301 -0.0403  0.3405
 7888TIP3   OH223608   6.820   5.522   3.821 -0.8260  0.2651 -0.3657
 7888TIP3    H123609   6.801   5.468   3.898  0.0691  0.5014  0.0312
 7888TIP3    H223610   6.915   5.535   3.824 -1.1444  2.6991  0.0974
 7889TIP3   OH223611   8.309   5.805   2.395 -0.3671 -0.2171  0.6772
 7889TIP3    H123612   8.296   5.789   2.302 -0.9127  0.2742  0.6699
 7889TIP3    H223613   8.270   5.729   2.438 -1.0834  0.0811  0.5530
 7890TIP3   OH223614   0.234   3.448   6.184  0.0440 -0.6152 -0.6898
 7890TIP3    H123615   0.266   3.516   6.244  4.0378 -2.0912 -1.0108
 7890TIP3    H223616   0.224   3.494   6.100 -2.6507  0.7498  0.2947
 7891TIP3   OH223617   6.845   6.480   3.281 -0.2371 -0.8978 -0.3346
 7891TIP3    H123618   6.856   6.447   3.371 -0.0599 -2.0273 -0.7582
 7891TIP3    H223619   6.935   6.492   3.249 -0.2796  1.3040  0.2555
 7892TIP3   OH223620   7.325   5.485   2.356  0.1263 -0.2597 -0.6355
 7892TIP3    H123621   7.277   5.403   2.367  0.8564 -0.6040  0.0345
 7892TIP3    H223622   7.303   5.537   2.433  1.3961 -0.7251  0.0712
 7893TIP3   OH223623   6.859   7.215   0.755  0.5912  0.1467 -0.2196
 7893TIP3    H123624   6.952   7.236   0.766  1.1761 -1.5396 -1.6757
 7893TIP3    H223625   6.833   7.267   0.679  0.7348 -0.4936 -0.7121
 7894TIP3   OH223626   7.029   4.677   2.579 -0.0836  0.1986  0.6730
 7894TIP3    H123627   7.088   4.744   2.611  1.2299 -0.3472 -0.5289
 7894TIP3    H223628   7.087   4.609   2.545 -1.4084 -0.1704 -0.8906
 7895TIP3   OH223629   6.288   2.682   1.010 -0.3082 -0.7700 -0.1233
 7895TIP3    H123630   6.306   2.741   1.084 -0.8065  0.4907 -0.9988
 7895TIP3    H223631   6.316   2.731   0.933 -0.6964 -1.7012 -0.8627
 7896TIP3   OH223632   6.913   5.613   2.149 -0.3945  0.3019  0.1418
 7896TIP3    H123633   6.962   5.696   2.149 -0.8557  0.5751  0.5752
 7896TIP3    H223634   6.892   5.599   2.057  2.2054 -0.8374 -0.3207
 7897TIP3   OH223635   6.915   4.353   2.478 -0.3668 -0.3106  0.4657
 7897TIP3    H123636   7.010   4.348   2.485 -0.2502 -0.1202 -0.8177
 7897TIP3    H223637   6.883   4.339   2.567  0.8056 -1.7066  0.6908
 7898TIP3   OH223638   6.539   2.529   5.203 -0.7509  0.3933 -0.0294
 7898TIP3    H123639   6.571   2.470   5.135 -3.5581 -3.3428  1.7020
 7898TIP3    H223640   6.617   2.550   5.255  0.5907 -0.5028 -1.6311
 7899TIP3   OH223641   5.635   3.686   4.676 -0.3264  0.0468 -0.3388
 7899TIP3    H123642   5.631   3.620   4.745  1.2019 -0.1577 -0.4107
 7899TIP3    H223643   5.639   3.769   4.722 -0.5032 -0.0236 -0.2006
 7900TIP3   OH223644   8.004   2.313   2.838  0.1679  0.3732 -0.4218
 7900TIP3    H123645   8.012   2.272   2.925  0.9677  1.1799 -0.1163
 7900TIP3    H223646   8.090   2.351   2.821  0.8289 -1.9919 -2.6989
 7901TIP3   OH223647   8.124   5.276   2.855  0.4029  0.0041  0.3337
 7901TIP3    H123648   8.058   5.345   2.858 -0.2674 -0.5979 -0.2401
 7901TIP3    H223649   8.087   5.204   2.906  1.4679  0.3677  1.6531
 7902TIP3   OH223650   5.436   1.758   0.408 -0.6621 -0.1627 -0.4558
 7902TIP3    H123651   5.487   1.774   0.329 -0.7937  2.2996 -0.1108
 7902TIP3    H223652   5.502   1.744   0.476 -0.5151 -0.8011 -0.7336
 7903TIP3   OH223653   7.517   2.407   3.099 -0.3379  0.0390  0.2264
 7903TIP3    H123654   7.605   2.397   3.135 -0.2770  1.5644  0.5114
 7903TIP3    H223655   7.468   2.452   3.168 -1.1640 -0.1963 -0.1973
 7904TIP3   OH223656   7.800   4.728   3.125 -0.4267  0.5690 -0.1682
 7904TIP3    H123657   7.894   4.709   3.132 -0.5862  0.3518  1.6464
 7904TIP3    H223658   7.766   4.662   3.065  0.3664 -0.1706  0.1839
 7905TIP3   OH223659   0.043   5.295   3.115 -0.1729 -0.6931 -0.0911
 7905TIP3    H123660   0.099   5.351   3.169 -1.2579  0.8068 -0.4650
 7905TIP3    H223661   0.058   5.206   3.148  0.5170 -0.0130  1.4833
 7906TIP3   OH223662   7.336   5.400   4.979 -0.0652 -0.0390 -0.0420
 7906TIP3    H123663   7.251   5.419   5.020 -0.3131 -0.3622 -0.4009
 7906TIP3    H223664   7.323   5.422   4.886  0.1696 -0.3196 -0.1421
 7907TIP3   OH223665   7.225   3.770   0.943  0.4587  0.2134 -0.6947
 7907TIP3    H123666   7.264   3.836   1.000 -2.0690  0.9960  0.2056
 7907TIP3    H223667   7.210   3.815   0.860 -0.6519  0.5800 -0.2958
 7908TIP3   OH223668   7.831   5.784   2.463  0.0212 -0.2728 -0.3211
 7908TIP3    H123669   7.901   5.718   2.461  1.3372  1.1407 -1.2706
 7908TIP3    H223670   7.838   5.829   2.379 -2.8079 -0.8898 -0.9359
 7909TIP3   OH223671   7.091   4.094   0.932 -0.3026 -0.4544  0.0393
 7909TIP3    H123672   7.122   4.134   0.851  1.2266 -2.9545 -0.6295
 7909TIP3    H223673   6.997   4.115   0.935  0.0754  1.5097 -1.2417
 7910TIP3   OH223674   6.529   4.785   2.709 -0.2444  0.2944 -0.3146
 7910TIP3    H123675   6.483   4.742   2.637 -1.2842 -2.7368  2.0280
 7910TIP3    H223676   6.619   4.753   2.703 -0.8710 -1.8509  1.0437
 7911TIP3   OH223677   5.515   5.094   2.862 -0.0100 -0.1545  0.0431
 7911TIP3    H123678   5.501   5.176   2.814  2.0318  0.8588  1.0992
 7911TIP3    H223679   5.474   5.027   2.808 -0.4518  1.3717 -1.5709
 7912TIP3   OH223680   8.076   7.341   2.478  0.0907  0.1190  0.6280
 7912TIP3    H123681   8.128   7.413   2.442 -0.8469  0.0190 -1.0106
 7912TIP3    H223682   8.075   7.275   2.408  1.0150 -1.5260  2.1500
 7913TIP3   OH223683   6.403   7.906   2.556 -0.3879  0.2831 -0.3277
 7913TIP3    H123684   6.454   7.937   2.631 -1.2104 -0.0170  0.3650
 7913TIP3    H223685   6.432   7.960   2.483 -1.0980  2.0217  0.6558
 7914TIP3   OH223686   7.913   5.981   2.279 -0.0660 -0.0245  0.5500
 7914TIP3    H123687   7.910   6.036   2.201  0.3329  0.6877  1.0287
 7914TIP3    H223688   7.865   6.031   2.346 -0.1631 -0.4983  0.8367
 7915TIP3   OH223689   7.408   3.773   2.064  0.2657 -0.1326 -0.0684
 7915TIP3    H123690   7.328   3.720   2.069  0.8646 -0.9665  0.7495
 7915TIP3    H223691   7.435   3.786   2.155 -0.0674  1.8988 -0.2306
 7916TIP3   OH223692   6.467   3.238   2.773  0.2575 -0.0325  0.1824
 7916TIP3    H123693   6.437   3.148   2.766  0.0091  0.2271 -3.2402
 7916TIP3    H223694   6.553   3.232   2.814  0.0176 -1.7746  0.4694
 7917TIP3   OH223695   6.606   2.145   3.264 -0.0143  0.2508  0.8364
 7917TIP3    H123696   6.535   2.084   3.241  1.6497 -1.5760  0.3515
 7917TIP3    H223697   6.588   2.224   3.212 -0.2557 -1.1838 -1.3562
 7918TIP3   OH223698   6.309   4.075   3.293  0.1930  0.2131 -0.3256
 7918TIP3    H123699   6.393   4.034   3.311 -0.8042 -0.8345  2.1983
 7918TIP3    H223700   6.245   4.017   3.333 -1.5352  2.3888  0.1448
 7919TIP3   OH223701   0.707   6.845   4.381 -0.0312  0.0727 -0.0994
 7919TIP3    H123702   0.788   6.838   4.431  0.0993  0.9820 -0.1758
 7919TIP3    H223703   0.727   6.906   4.311 -0.9381  0.7403  0.2089
 7920TIP3   OH223704   0.324   3.527   2.877  0.3506 -0.2019 -0.2138
 7920TIP3    H123705   0.258   3.511   2.945 -0.3458  2.8606 -0.1172
 7920TIP3    H223706   0.380   3.450   2.880 -1.3473 -1.4178  1.8889
 7921TIP3   OH223707   0.245   4.037   2.732  0.0933  0.0704 -0.4318
 7921TIP3    H123708   0.239   3.942   2.740 -2.4334  0.1761 -0.7699
 7921TIP3    H223709   0.315   4.051   2.668 -0.5888 -1.6117 -1.5927
 7922TIP3   OH223710   8.450   4.720   3.525  0.0764  0.6456  0.4366
 7922TIP3    H123711   8.444   4.641   3.471 -1.8245  0.2282  1.1990
 7922TIP3    H223712   8.359   4.750   3.532  0.2700  0.6483  3.4232
 7923TIP3   OH223713   6.268   3.711   2.221 -0.2402  0.1081 -0.0053
 7923TIP3    H123714   6.253   3.794   2.267  0.6368  0.9278 -1.1704
 7923TIP3    H223715   6.318   3.736   2.143 -1.0808 -1.3499 -1.0293
 7924TIP3   OH223716   0.448   4.841   2.319  0.2207  0.0286 -0.7282
 7924TIP3    H123717   0.356   4.864   2.308  0.4807  1.2702 -0.3121
 7924TIP3    H223718   0.450   4.790   2.400 -0.3796 -1.6522 -1.7502
 7925TIP3   OH223719   7.535   4.879   6.826  0.0563 -0.2245  0.3848
 7925TIP3    H123720   7.454   4.928   6.838 -1.3650 -2.5583  0.7478
 7925TIP3    H223721   7.569   4.908   6.741 -0.7856  1.3011  0.5648
 7926TIP3   OH223722   8.175   3.699   4.633  0.0705  0.2809 -0.3571
 7926TIP3    H123723   8.119   3.648   4.693 -0.7264 -0.2801 -1.5555
 7926TIP3    H223724   8.222   3.633   4.582  0.3794  0.7532 -0.6830
 7927TIP3   OH223725   0.647   4.297   5.250 -0.2211  0.0603  0.7413
 7927TIP3    H123726   0.625   4.253   5.169 -0.1227 -1.4578  1.5294
 7927TIP3    H223727   0.734   4.335   5.234 -0.6993  0.7786 -0.2403
 7928TIP3   OH223728   7.280   5.215   2.416 -0.1540 -0.0638  0.0389
 7928TIP3    H123729   7.280   5.245   2.507  0.5407  1.9364 -0.5945
 7928TIP3    H223730   7.359   5.161   2.409 -1.6180 -2.4465  1.2866
 7929TIP3   OH223731   5.128   3.755   4.349 -0.4952 -0.6192  0.5562
 7929TIP3    H123732   5.211   3.710   4.365  0.0479  0.2552  0.1838
 7929TIP3    H223733   5.106   3.795   4.433 -1.3263 -2.1105  1.0874
 7930TIP3   OH223734   8.090   2.483   4.702  0.1975 -0.0445  0.0213
 7930TIP3    H123735   8.095   2.437   4.786  0.2220  0.4931  0.3116
 7930TIP3    H223736   8.181   2.488   4.672  0.0672 -1.3061 -0.6151
 7931TIP3   OH223737   7.930   1.222   2.282  0.3451 -0.3360 -0.3566
 7931TIP3    H123738   7.953   1.143   2.233 -1.0475 -0.0592 -1.4595
 7931TIP3    H223739   7.927   1.291   2.217  0.7102  0.4779  0.4787
 7932TIP3   OH223740   0.795   4.075   3.244  0.2097  0.6875 -0.0175
 7932TIP3    H123741   0.793   3.996   3.190 -0.0983  0.4914  0.2774
 7932TIP3    H223742   0.885   4.081   3.274  0.0861  0.0634  0.5115
 7933TIP3   OH223743   5.707   2.734   4.938 -0.2682  0.0099 -0.0883
 7933TIP3    H123744   5.665   2.650   4.955  0.5999 -0.4151 -0.0408
 7933TIP3    H223745   5.778   2.738   5.002  0.9096 -0.0909 -1.3926
 7934TIP3   OH223746   7.058   2.166   4.452  0.2462  0.3408  0.5498
 7934TIP3    H123747   7.073   2.162   4.358  0.5372 -2.4978  0.6704
 7934TIP3    H223748   7.145   2.181   4.490  1.1413 -4.2194  0.6030
 7935TIP3   OH223749   0.512   6.390   1.147 -0.4929  0.0744  0.3233
 7935TIP3    H123750   0.471   6.339   1.216  0.4212 -1.4268 -0.2020
 7935TIP3    H223751   0.606   6.387   1.168 -0.3676  0.9141 -0.1170
 7936TIP3   OH223752   5.912   5.585   2.992 -0.1162 -0.0804  0.3269
 7936TIP3    H123753   6.000   5.549   2.985 -0.4786 -0.8607 -0.2752
 7936TIP3    H223754   5.858   5.511   3.019 -0.5402  0.4592  0.9585
 7937TIP3   OH223755   6.753   7.298   3.038 -0.3205 -0.9182 -0.1919
 7937TIP3    H123756   6.745   7.391   3.016  0.9260 -0.9320 -0.7673
 7937TIP3    H223757   6.816   7.296   3.110 -1.8701 -1.1611  1.1910
 7938TIP3   OH223758   0.678   5.668   5.067 -0.2941  0.0859  0.1383
 7938TIP3    H123759   0.602   5.628   5.024  0.1059 -0.1568 -0.3421
 7938TIP3    H223760   0.722   5.596   5.112  0.1344  0.0784 -0.2930
 7939TIP3   OH223761   7.097   4.788   5.251 -0.5147  0.0275 -0.0471
 7939TIP3    H123762   7.028   4.725   5.231  0.5854 -1.5880  1.1991
 7939TIP3    H223763   7.101   4.790   5.347 -0.1664  1.5942 -0.0760
 7940TIP3   OH223764   6.408   1.055   2.515  0.6430 -0.8937  0.3105
 7940TIP3    H123765   6.374   0.966   2.503  1.5244 -1.1756 -0.1289
 7940TIP3    H223766   6.479   1.062   2.450 -0.4806  0.6879 -0.7741
 7941TIP3   OH223767   7.870   3.980   2.055  0.6345 -0.1846 -0.4651
 7941TIP3    H123768   7.859   3.926   1.977  1.8941  1.4248 -1.8181
 7941TIP3    H223769   7.956   3.957   2.089  0.8274  0.3639 -0.5733
 7942TIP3   OH223770   5.693   6.073   3.918 -0.8669  0.1734 -0.1574
 7942TIP3    H123771   5.706   6.055   3.825 -1.0124  0.6354 -0.2642
 7942TIP3    H223772   5.750   6.009   3.962 -2.1946 -1.2741 -0.5201
 7943TIP3   OH223773   8.346   6.636   3.080 -0.1212  0.7034  0.2282
 7943TIP3    H123774   8.334   6.720   3.036 -0.7601 -0.0786 -1.1054
 7943TIP3    H223775   8.428   6.601   3.046 -1.1187 -0.3622 -1.1085
 7944TIP3   OH223776   8.023   1.806   3.436 -0.2941 -0.4887 -0.0944
 7944TIP3    H123777   7.939   1.818   3.481 -0.7205 -0.0034 -1.0072
 7944TIP3    H223778   8.001   1.815   3.343  0.8628  0.1462 -0.3066
 7945TIP3   OH223779   0.722   3.192   4.079 -0.3410  0.0133 -0.0503
 7945TIP3    H123780   0.654   3.214   4.016  0.6042  2.3692 -0.2737
 7945TIP3    H223781   0.803   3.192   4.029  0.1835  0.0423  0.7839
 7946TIP3   OH223782   7.248   2.875   3.319 -0.1779 -0.4089 -0.5693
 7946TIP3    H123783   7.286   2.905   3.237  0.1340  1.4830  0.2581
 7946TIP3    H223784   7.205   2.952   3.356  1.5107 -0.6889  2.0751
 7947TIP3   OH223785   5.885   3.609   4.821  0.1200  0.1943 -1.0627
 7947TIP3    H123786   5.848   3.638   4.904  0.7748  0.6990 -0.9417
 7947TIP3    H223787   5.860   3.677   4.758  0.0098  0.0427 -1.1824
 7948TIP3   OH223788   8.219   3.960   2.134  0.0543  0.1127  0.1717
 7948TIP3    H123789   8.153   3.922   2.192 -0.0850 -0.8482 -0.5870
 7948TIP3    H223790   8.293   3.980   2.191 -1.1884  1.9313  1.1479
 7949TIP3   OH223791   4.612   7.239   4.481  0.4148 -0.0074  0.1471
 7949TIP3    H123792   4.593   7.146   4.466  0.8928 -0.2583  1.0873
 7949TIP3    H223793   4.526   7.279   4.496  0.1653 -0.2096 -0.7179
 7950TIP3   OH223794   6.899   5.569   4.119 -0.0379 -0.3546 -0.1151
 7950TIP3    H123795   6.926   5.629   4.050  0.7059 -2.7746 -2.0185
 7950TIP3    H223796   6.981   5.534   4.154 -0.4583 -0.3324  0.8946
 7951TIP3   OH223797   8.300   5.132   4.271 -0.6320  0.2487  0.0580
 7951TIP3    H123798   8.313   5.222   4.302  1.2006 -0.1846  0.6143
 7951TIP3    H223799   8.222   5.102   4.317  1.6891 -0.1908  3.9620
 7952TIP3   OH223800   7.446   4.146   2.172  0.1847  0.0916  0.0589
 7952TIP3    H123801   7.511   4.077   2.187 -0.2293 -0.6626 -1.5308
 7952TIP3    H223802   7.367   4.099   2.145 -0.3643  1.1506 -0.1965
 7953TIP3   OH223803   6.533   4.633   2.998  0.6227 -0.2387  0.1643
 7953TIP3    H123804   6.450   4.673   2.973  0.0804 -2.3983 -1.6819
 7953TIP3    H223805   6.600   4.697   2.974 -0.3758  0.5907 -0.4191
 7954TIP3   OH223806   7.524   3.806   1.376  0.3135  0.5702 -0.7173
 7954TIP3    H123807   7.430   3.789   1.370  0.4594 -0.0321 -1.3611
 7954TIP3    H223808   7.553   3.752   1.450  0.2589  0.2827 -0.9050
 7955TIP3   OH223809   7.748   3.232   2.717 -0.6026  0.5995 -0.0026
 7955TIP3    H123810   7.653   3.215   2.720 -0.6810  0.7778 -1.2466
 7955TIP3    H223811   7.756   3.311   2.664  0.1966  1.0445  0.7852
 7956TIP3   OH223812   6.576   2.644   4.105 -0.3885 -0.1526  0.5675
 7956TIP3    H123813   6.569   2.735   4.076 -0.6978  0.4741  2.5057
 7956TIP3    H223814   6.655   2.611   4.063 -0.2034  1.0493 -0.0574
 7957TIP3   OH223815   6.897   4.779   3.773  0.7784  0.1220 -0.1095
 7957TIP3    H123816   6.911   4.709   3.837  0.0792  0.0736 -0.0105
 7957TIP3    H223817   6.941   4.748   3.694 -1.2494 -1.3352 -0.6869
 7958TIP3   OH223818   5.188   6.072   0.960 -0.3652  0.5473 -0.0705
 7958TIP3    H123819   5.170   6.077   0.866 -1.2544  1.8058  0.1587
 7958TIP3    H223820   5.243   6.148   0.978 -0.1538  0.2790  0.4197
 7959TIP3   OH223821   7.531   5.288   2.087 -0.1122 -0.4767  0.3833
 7959TIP3    H123822   7.624   5.310   2.084 -0.2740 -0.0095 -1.5820
 7959TIP3    H223823   7.528   5.199   2.122  1.0641 -0.4755  0.4896
 7960TIP3   OH223824   8.091   5.953   1.935 -0.2837 -0.0710 -0.2149
 7960TIP3    H123825   8.055   5.865   1.927 -1.2017  0.3458 -0.7473
 7960TIP3    H223826   8.115   5.978   1.846 -0.0905  0.2429 -0.0779
 7961TIP3   OH223827   0.589   6.732   1.549 -0.1366  0.1327  0.3378
 7961TIP3    H123828   0.498   6.718   1.522 -0.1564  0.9910 -0.0502
 7961TIP3    H223829   0.638   6.665   1.500 -0.3834  0.5688 -0.5232
 7962TIP3   OH223830   6.024   5.620   3.875 -1.0468  0.1420  0.4105
 7962TIP3    H123831   6.097   5.681   3.887 -0.8864 -0.0490  0.4184
 7962TIP3    H223832   6.059   5.536   3.903 -1.5748  0.2321  1.3478
 7963TIP3   OH223833   6.470   4.908   3.916 -0.2937 -0.6425  0.2870
 7963TIP3    H123834   6.378   4.928   3.900 -0.3975 -0.0597  1.5106
 7963TIP3    H223835   6.467   4.829   3.971 -0.0531 -0.8995 -0.0729
 7964TIP3   OH223836   5.431   4.576   5.997  0.5820 -0.0467  0.4613
 7964TIP3    H123837   5.457   4.619   5.916  0.4970 -0.7766  0.0451
 7964TIP3    H223838   5.412   4.648   6.058  0.5544  0.4971 -0.1911
 7965TIP3   OH223839   6.762   6.130   0.941  0.4332  0.4729  0.2514
 7965TIP3    H123840   6.675   6.169   0.949 -0.4846 -1.8215  1.9998
 7965TIP3    H223841   6.822   6.195   0.976 -0.6617  1.7028 -0.1357
 7966TIP3   OH223842   7.098   5.227   1.149 -0.1049  0.1182 -0.5627
 7966TIP3    H123843   7.155   5.284   1.201 -0.3571 -0.3502  0.2309
 7966TIP3    H223844   7.100   5.266   1.062  1.7691 -0.1348 -0.6637
 7967TIP3   OH223845   5.766   1.916   3.308 -0.2730 -0.0639 -0.2255
 7967TIP3    H123846   5.734   1.969   3.235 -0.0920 -0.0418 -0.2894
 7967TIP3    H223847   5.861   1.915   3.297 -0.0501  1.9070  1.3689
 7968TIP3   OH223848   7.402   3.335   1.567 -0.0065  0.1611 -0.0263
 7968TIP3    H123849   7.311   3.364   1.565  0.1485  0.6016 -0.8326
 7968TIP3    H223850   7.407   3.265   1.503  0.1236 -0.1669  0.3392
 7969TIP3   OH223851   8.251   5.523   3.441  0.2144  0.1508 -0.2174
 7969TIP3    H123852   8.270   5.473   3.362  0.0982  1.6533 -1.2088
 7969TIP3    H223853   8.205   5.461   3.498  1.2835 -1.2640 -0.8711
 7970TIP3   OH223854   7.775   6.070   2.488  0.1479  0.1585 -0.1703
 7970TIP3    H123855   7.824   6.093   2.567 -0.0659  1.0481 -0.2968
 7970TIP3    H223856   7.688   6.107   2.502 -0.1276 -0.3705 -0.4781
 7971TIP3   OH223857   7.330   1.946   3.147 -0.0620  0.1985 -0.2250
 7971TIP3    H123858   7.277   1.981   3.075  1.3303 -0.8309 -1.8016
 7971TIP3    H223859   7.320   1.851   3.140 -0.7292  0.1266  1.5972
 7972TIP3   OH223860   8.512   5.317   4.963 -0.3508 -0.3900 -0.1443
 7972TIP3    H123861   8.552   5.363   5.036 -1.4334 -1.8945  1.4223
 7972TIP3    H223862   8.424   5.355   4.956  0.0809  0.4124 -1.2741
 7973TIP3   OH223863   5.997   2.525   4.594 -0.5417  0.0079  0.0729
 7973TIP3    H123864   5.968   2.435   4.608 -2.8498  0.7607  0.4672
 7973TIP3    H223865   6.022   2.528   4.501  1.4699 -1.5053  0.5427
 7974TIP3   OH223866   0.118   3.390   2.719 -0.0872 -0.0036 -0.0592
 7974TIP3    H123867   0.191   3.449   2.733 -1.3930  1.9415 -1.2511
 7974TIP3    H223868   0.129   3.322   2.786  2.3098  0.7029  0.3091
 7975TIP3   OH223869   6.846   4.235   0.408 -0.1552  0.2415  0.3015
 7975TIP3    H123870   6.813   4.225   0.319  1.5641  1.4726 -0.5290
 7975TIP3    H223871   6.836   4.329   0.427  0.5500  0.2000  0.9410
 7976TIP3   OH223872   7.252   5.678   2.523  0.4252 -0.0178 -0.2120
 7976TIP3    H123873   7.264   5.767   2.554 -1.3568 -0.2472  1.2242
 7976TIP3    H223874   7.254   5.624   2.603 -0.7285 -1.0049 -0.8217
 7977TIP3   OH223875   7.000   5.372   2.806 -0.6444 -0.1923 -0.3233
 7977TIP3    H123876   7.019   5.424   2.884  2.0087 -0.5594 -0.6584
 7977TIP3    H223877   6.989   5.283   2.839  0.0393 -0.2746 -0.3070
 7978TIP3   OH223878   7.350   2.611   3.582 -0.1953  0.2724 -0.1043
 7978TIP3    H123879   7.433   2.658   3.582 -0.3707  0.6271 -1.6866
 7978TIP3    H223880   7.285   2.675   3.611 -0.1796  0.5198 -0.6095
 7979TIP3   OH223881   5.579   1.698   6.485 -0.3620 -0.0502 -0.0112
 7979TIP3    H123882   5.652   1.755   6.460 -0.8919  0.7300  0.1870
 7979TIP3    H223883   5.603   1.612   6.450  1.8722 -0.4180  2.2574
 7980TIP3   OH223884   7.042   3.682   3.489 -0.0045  0.3751 -0.1617
 7980TIP3    H123885   6.985   3.671   3.565 -0.3689  0.2544 -0.4460
 7980TIP3    H223886   6.986   3.659   3.415  0.5314 -0.1361 -0.4127
 7981TIP3   OH223887   6.917   5.761   1.503 -0.6406  0.1964  0.2450
 7981TIP3    H123888   6.932   5.688   1.564 -1.5063  0.4182  0.7430
 7981TIP3    H223889   6.823   5.776   1.508 -0.7347  0.1348 -1.2696
 7982TIP3   OH223890   5.282   5.593   5.859 -0.2207 -0.6456 -0.3709
 7982TIP3    H123891   5.227   5.569   5.933 -0.6192  0.1645 -0.3930
 7982TIP3    H223892   5.250   5.680   5.833  1.5936  0.2156  0.1459
 7983TIP3   OH223893   6.253   5.778   3.865  0.0832 -0.3468 -0.4029
 7983TIP3    H123894   6.258   5.863   3.910 -0.6654 -1.1033  1.1467
 7983TIP3    H223895   6.301   5.791   3.784 -0.5753  1.7626 -0.4745
 7984TIP3   OH223896   7.203   4.698   0.585  0.0092 -0.2705 -0.4249
 7984TIP3    H123897   7.127   4.740   0.545 -0.7418  0.1106  1.3747
 7984TIP3    H223898   7.197   4.720   0.678  2.1386 -0.5209 -0.2006
 7985TIP3   OH223899   7.599   7.053   3.928 -0.3246 -0.7737 -0.0701
 7985TIP3    H123900   7.614   7.010   3.843 -0.3213  2.8879 -2.0117
 7985TIP3    H223901   7.684   7.049   3.971  0.0486 -1.4004 -0.8335
 7986TIP3   OH223902   0.336   5.578   1.133 -0.3307 -0.1974 -0.4490
 7986TIP3    H123903   0.352   5.597   1.041 -0.3920 -0.5681 -0.5368
 7986TIP3    H223904   0.422   5.557   1.168  0.2702  3.3617  0.3983
 7987TIP3   OH223905   6.730   3.977   5.978  0.7437  0.5972  0.0631
 7987TIP3    H123906   6.798   3.914   5.952  1.6856  0.6319  2.2884
 7987TIP3    H223907   6.650   3.925   5.982  1.5100 -0.5184  1.8646
 7988TIP3   OH223908   7.785   7.189   1.261  0.8386  0.1062  0.0507
 7988TIP3    H123909   7.696   7.166   1.235  0.9310  1.3069 -1.3462
 7988TIP3    H223910   7.779   7.279   1.292  1.8909  0.8259 -1.7757
 7989TIP3   OH223911   6.619   7.069   5.539  0.0191  0.3796  0.4499
 7989TIP3    H123912   6.548   7.130   5.519  0.1514 -0.1536 -1.7313
 7989TIP3    H223913   6.694   7.126   5.560 -0.5312  0.9504  0.8796
 7990TIP3   OH223914   1.402   4.625   1.680 -0.3398 -0.0373  1.0555
 7990TIP3    H123915   1.333   4.687   1.705 -0.4853 -0.0747  0.7475
 7990TIP3    H223916   1.434   4.591   1.763  1.5907  2.4268  1.3802
 7991TIP3   OH223917   0.723   5.878   5.735  0.5703 -0.0226  0.2077
 7991TIP3    H123918   0.724   5.920   5.820  0.1415  0.7092 -0.1441
 7991TIP3    H223919   0.773   5.797   5.747 -1.0220 -0.8280  1.6151
 7992TIP3   OH223920   7.474   4.754   2.039  0.2844 -0.1530 -0.2117
 7992TIP3    H123921   7.404   4.700   2.003 -0.3104  0.7002 -0.3337
 7992TIP3    H223922   7.527   4.693   2.091 -0.0487 -0.9649 -0.8219
 7993TIP3   OH223923   7.301   5.944   2.570 -0.1481 -0.1499  0.0683
 7993TIP3    H123924   7.315   6.038   2.555 -0.5103  0.2347  2.0616
 7993TIP3    H223925   7.388   5.908   2.581 -0.0603  0.1165  0.2476
 7994TIP3   OH223926   7.740   5.249   3.406  0.7852  0.2586  0.0235
 7994TIP3    H123927   7.720   5.191   3.479 -1.6733 -0.3767 -1.0867
 7994TIP3    H223928   7.654   5.267   3.366  1.9733  1.3137 -2.1389
 7995TIP3   OH223929   7.536   4.831   1.692  0.0071  0.0144 -0.1024
 7995TIP3    H123930   7.462   4.781   1.727 -2.1118  1.3495 -2.5384
 7995TIP3    H223931   7.518   4.922   1.718 -0.0505  0.5688 -2.0337
 7996TIP3   OH223932   7.089   4.317   3.472  0.4840  0.3267 -0.2000
 7996TIP3    H123933   7.030   4.261   3.523 -0.5995 -0.4928 -2.2855
 7996TIP3    H223934   7.102   4.269   3.390  0.9156  2.3540 -1.3441
 7997TIP3   OH223935   7.781   4.499   2.752 -0.3721  0.4355 -0.0789
 7997TIP3    H123936   7.698   4.516   2.706 -1.8325  1.9895  3.0168
 7997TIP3    H223937   7.756   4.491   2.844  3.1358  2.6526  1.1499
 7998TIP3   OH223938   7.453   6.049   2.856 -0.5794 -0.3245  0.1044
 7998TIP3    H123939   7.427   6.135   2.889 -0.9791 -0.2162 -0.5006
 7998TIP3    H223940   7.547   6.043   2.877 -0.7006 -0.0298  0.7601
 7999TIP3   OH223941   1.384   5.154   4.711  0.2866 -0.3064  0.2572
 7999TIP3    H123942   1.394   5.063   4.682  0.2972 -0.0228 -0.6398
 7999TIP3    H223943   1.314   5.189   4.656 -0.0689  0.0739  0.9573
 8000TIP3   OH223944   7.427   2.674   4.490  0.1247  0.1853  0.4390
 8000TIP3    H123945   7.421   2.710   4.401  1.1782 -0.9386 -0.1096
 8000TIP3    H223946   7.414   2.580   4.478  2.0767 -0.2100  1.2277
 8001TIP3   OH223947   7.049   5.753   3.988  0.5656  0.7148 -0.1025
 8001TIP3    H123948   7.069   5.775   3.897 -0.4195  1.4945 -0.1462
 8001TIP3    H223949   7.059   5.836   4.035  0.1781  0.5156  0.3387
 8002TIP3   OH223950   0.964   3.869   2.971  0.3496 -0.1337  0.0860
 8002TIP3    H123951   0.890   3.916   2.933  1.1208  1.9064  1.0724
 8002TIP3    H223952   1.024   3.937   3.001  1.6382 -1.7357  1.2649
 8003TIP3   OH223953   6.886   6.439   1.838 -0.4338  0.0848  0.0726
 8003TIP3    H123954   6.810   6.488   1.871  0.5971  1.0045  1.1184
 8003TIP3    H223955   6.862   6.347   1.850 -1.6356  0.3476 -0.2029
 8004TIP3   OH223956   8.473   3.624   4.730 -0.2279 -1.1191  0.0628
 8004TIP3    H123957   8.521   3.697   4.690  0.0185 -1.4651 -0.2773
 8004TIP3    H223958   8.382   3.640   4.705 -0.2060 -0.8033  0.1814
 8005TIP3   OH223959   8.338   6.014   5.166  0.0704  0.6216  0.2600
 8005TIP3    H123960   8.282   5.938   5.150  1.1899 -0.5175  1.6882
 8005TIP3    H223961   8.285   6.071   5.222 -0.8398  1.0147 -0.9698
 8006TIP3   OH223962   7.178   3.046   4.537  0.4770  0.4403  0.2047
 8006TIP3    H123963   7.187   3.067   4.629  1.6746  1.5798 -0.1621
 8006TIP3    H223964   7.242   3.102   4.493  1.7602 -1.9595 -1.0759
 8007TIP3   OH223965   0.467   6.844   4.239  0.6422 -0.3709 -0.0786
 8007TIP3    H123966   0.537   6.809   4.294  3.5655  1.0563 -2.7499
 8007TIP3    H223967   0.505   6.848   4.151 -2.0297  2.5798 -1.1952
 8008TIP3   OH223968   0.444   5.343   4.500 -0.6259  0.5778 -0.1544
 8008TIP3    H123969   0.508   5.273   4.513  1.5736  2.7375  1.2381
 8008TIP3    H223970   0.462   5.374   4.411 -1.3212 -0.3504 -0.6205
 8009TIP3   OH223971   6.032   4.049   4.509 -0.2735 -0.1692  0.4194
 8009TIP3    H123972   6.058   4.009   4.426  0.9074 -0.9012  1.1280
 8009TIP3    H223973   5.982   4.127   4.483  0.1108 -0.3627 -0.9748
 8010TIP3   OH223974   6.076   2.481   4.326 -0.4773  0.1615  0.7087
 8010TIP3    H123975   6.162   2.513   4.296 -0.1860 -0.3945  0.9425
 8010TIP3    H223976   6.056   2.409   4.266 -2.7487  2.9473 -2.0556
 8011TIP3   OH223977   5.572   4.802   3.543 -0.5537 -0.0076  0.2062
 8011TIP3    H123978   5.485   4.774   3.514 -0.3469  0.0971 -0.5080
 8011TIP3    H223979   5.557   4.834   3.632 -1.2618  0.0810  0.0627
 8012TIP3   OH223980   6.765   5.509   3.451 -0.8974 -0.4643  0.2353
 8012TIP3    H123981   6.837   5.450   3.472 -0.2817  0.6606  1.3318
 8012TIP3    H223982   6.747   5.494   3.358  1.2244 -0.2403 -0.2232
 8013TIP3   OH223983   8.288   6.185   4.533  0.1246  0.1769  0.9035
 8013TIP3    H123984   8.255   6.095   4.533  0.4188  0.0686  1.1050
 8013TIP3    H223985   8.378   6.177   4.502 -0.0325  0.4704  0.3533
 8014TIP3   OH223986   7.653   6.082   4.623 -0.1794 -0.1111 -0.3430
 8014TIP3    H123987   7.717   6.049   4.685 -0.5155 -0.3069 -0.0954
 8014TIP3    H223988   7.582   6.017   4.624  1.2770 -1.8838 -3.4019
 8015TIP3   OH223989   1.712   6.463   2.502  0.2737 -0.1202 -0.1295
 8015TIP3    H123990   1.723   6.452   2.597  1.1802 -0.1312 -0.2303
 8015TIP3    H223991   1.639   6.405   2.480 -2.8847  3.1148  1.2280
 8016TIP3   OH223992   6.849   3.851   3.910  0.0110  0.3464  0.2633
 8016TIP3    H123993   6.788   3.780   3.932  0.6588  0.2019  1.6324
 8016TIP3    H223994   6.933   3.807   3.896  0.1316  0.7066 -0.1512
 8017TIP3   OH223995   8.164   4.284   6.786  0.4247 -0.2282 -0.3352
 8017TIP3    H123996   8.075   4.297   6.820  0.4655 -0.3838 -0.1709
 8017TIP3    H223997   8.213   4.361   6.814  0.2090  0.1053 -0.8643
 8018TIP3   OH223998   8.451   5.008   3.951  0.0605  0.1331 -1.3285
 8018TIP3    H123999   8.477   5.100   3.945 -0.1651  0.1320 -2.3080
 8018TIP3    H224000   8.509   4.963   3.889  1.9179 -0.7726  0.9674
 8019TIP3   OH224001   6.937   2.608   1.762 -0.3021 -0.5627 -0.2924
 8019TIP3    H124002   6.999   2.565   1.820  0.7868  0.0694 -0.9635
 8019TIP3    H224003   6.873   2.648   1.821 -0.0758 -1.2131  0.4056
 8020TIP3   OH224004   7.158   4.181   4.009  0.0890 -0.6673 -0.6960
 8020TIP3    H124005   7.067   4.154   4.016  0.1249 -0.4770  0.6176
 8020TIP3    H224006   7.186   4.195   4.099  0.7638  1.4887 -1.2006
 8021TIP3   OH224007   7.457   7.063   2.157  0.1961  0.1018  0.4884
 8021TIP3    H124008   7.485   6.984   2.112  1.6022  1.0790 -0.3845
 8021TIP3    H224009   7.508   7.064   2.238 -1.3044 -0.9255  1.4650
 8022TIP3   OH224010   0.315   4.142   2.357  0.2348 -0.1456 -0.3344
 8022TIP3    H124011   0.235   4.195   2.350  1.2170  1.5155  0.6808
 8022TIP3    H224012   0.359   4.155   2.272  1.0317  1.6450  0.3170
 8023TIP3   OH224013   7.720   2.970   5.037 -0.0880  0.2218 -0.3827
 8023TIP3    H124014   7.762   2.957   4.951 -1.2970  0.9444 -1.0925
 8023TIP3    H224015   7.782   3.025   5.085  1.1707 -1.2033 -0.3444
 8024TIP3   OH224016   7.241   4.779   2.871  0.2540  0.0247  0.7674
 8024TIP3    H124017   7.257   4.706   2.811  1.4879  0.6890  0.2754
 8024TIP3    H224018   7.290   4.755   2.950  0.4285  0.1890  0.7084
 8025TIP3   OH224019   7.181   2.775   3.725  0.0340  0.2801 -0.1702
 8025TIP3    H124020   7.111   2.721   3.761  0.2813 -0.2529 -0.4735
 8025TIP3    H224021   7.148   2.864   3.731 -1.2188 -0.0590 -1.4928
 8026TIP3   OH224022   0.181   6.845   2.901  0.1630  0.4597 -0.3589
 8026TIP3    H124023   0.231   6.907   2.954 -1.2620  0.3619  1.1340
 8026TIP3    H224024   0.167   6.769   2.957 -1.4812  0.4085 -0.7981
 8027TIP3   OH224025   7.388   7.019   4.388  0.3861  0.1601  0.1158
 8027TIP3    H124026   7.379   6.947   4.325  1.2543 -0.4992  0.7303
 8027TIP3    H224027   7.304   7.066   4.383  0.3036 -0.1026 -1.2465
 8028TIP3   OH224028   7.597   5.688   1.998  0.2681 -0.8025 -0.0611
 8028TIP3    H124029   7.653   5.753   2.040 -1.3717  0.6178 -0.0388
 8028TIP3    H224030   7.565   5.634   2.070 -0.2661 -0.1464  0.1974
 8029TIP3   OH224031   6.873   5.954   3.842  0.5170  0.2042 -0.1194
 8029TIP3    H124032   6.915   6.035   3.870  0.4859  0.2254 -0.1349
 8029TIP3    H224033   6.809   5.981   3.776 -0.7941  0.3829  1.1881
 8030TIP3   OH224034   8.071   5.072   3.574  0.8140  0.0202  0.0583
 8030TIP3    H124035   8.081   5.003   3.639 -0.7267 -0.5653 -0.3110
 8030TIP3    H224036   8.158   5.082   3.536  1.1465 -1.4496  0.3930
 8031TIP3   OH224037   0.533   6.513   1.894  0.0049 -0.1970  1.2962
 8031TIP3    H124038   0.445   6.502   1.927  0.5648 -2.1992  2.1807
 8031TIP3    H224039   0.560   6.599   1.925 -1.8977  0.7834  0.3272
 8032TIP3   OH224040   6.009   7.495   4.282 -0.5314  0.4867  0.0139
 8032TIP3    H124041   5.920   7.529   4.274 -1.3896 -1.4943  0.6783
 8032TIP3    H224042   6.027   7.454   4.197  0.3136  2.1410 -0.6193
 8033TIP3   OH224043   8.062   4.266   3.688 -0.0613  0.2177  0.4154
 8033TIP3    H124044   8.092   4.330   3.624  0.2849 -0.7968 -0.4501
 8033TIP3    H224045   8.104   4.291   3.769  0.5079  0.7598 -0.0475
 8034TIP3   OH224046   6.406   5.957   2.307  0.1564 -0.1160 -0.3936
 8034TIP3    H124047   6.322   5.998   2.287 -0.2297 -0.3526  0.7524
 8034TIP3    H224048   6.390   5.864   2.299 -1.1190 -0.4871  5.0661
 8035TIP3   OH224049   7.615   0.241   1.932  0.1090  0.5033  0.4380
 8035TIP3    H124050   7.621   0.334   1.957  0.9097  0.6907 -0.4385
 8035TIP3    H224051   7.570   0.242   1.848  0.8128  0.1471  0.0582
 8036TIP3   OH224052   6.560   4.745   4.410 -0.0835 -0.5115 -0.2793
 8036TIP3    H124053   6.516   4.686   4.470 -2.0716 -0.2879 -1.4877
 8036TIP3    H224054   6.542   4.709   4.323 -1.0521  1.6663 -1.0075
 8037TIP3   OH224055   7.130   2.166   4.201 -0.2524 -0.2672 -0.5949
 8037TIP3    H124056   7.205   2.120   4.162 -0.8475 -0.2605 -1.7585
 8037TIP3    H224057   7.094   2.218   4.130 -0.3671  1.0211  0.3890
 8038TIP3   OH224058   6.666   4.917   4.705 -0.1582 -0.1046 -0.2272
 8038TIP3    H124059   6.713   4.834   4.702 -0.2105 -0.2667  2.2477
 8038TIP3    H224060   6.730   4.982   4.676  0.0493 -0.9153 -1.6388
 8039TIP3   OH224061   7.807   1.875   3.885  0.2534 -0.2310 -0.4708
 8039TIP3    H124062   7.867   1.864   3.958  0.7715 -0.4219 -0.9176
 8039TIP3    H224063   7.732   1.820   3.906  1.7844 -2.8266 -1.5647
 8040TIP3   OH224064   7.220   4.111   2.438  0.0243 -0.1211 -0.1768
 8040TIP3    H124065   7.286   4.094   2.506  0.6945  1.1008 -0.4878
 8040TIP3    H224066   7.272   4.125   2.359 -0.5793  1.2670 -0.3413
 8041TIP3   OH224067   8.084   4.431   1.016 -0.2020 -0.2169  0.1966
 8041TIP3    H124068   8.156   4.374   1.042 -0.4286  0.5250  2.5176
 8041TIP3    H224069   8.019   4.421   1.085 -1.2261  1.1013 -0.5489
 8042TIP3   OH224070   8.085   3.160   3.625 -0.7284 -0.3385  0.4793
 8042TIP3    H124071   8.143   3.159   3.701 -0.6734 -3.1749  0.4895
 8042TIP3    H224072   7.997   3.171   3.662 -0.4720  0.8579  0.7329
 8043TIP3   OH224073   6.351   4.880   1.365  0.2008 -0.3542 -0.1696
 8043TIP3    H124074   6.333   4.790   1.394  0.5511 -0.6580 -0.8664
 8043TIP3    H224075   6.273   4.929   1.390 -0.5342 -1.1267 -0.9091
 8044TIP3   OH224076   0.471   3.881   2.017  0.3570  0.0167 -0.3497
 8044TIP3    H124077   0.490   3.975   2.022  0.2943  0.0394 -0.5359
 8044TIP3    H224078   0.378   3.876   1.995  0.2514 -0.0933  0.1253
 8045TIP3   OH224079   7.216   3.384   3.884  0.2966  0.5395 -0.1962
 8045TIP3    H124080   7.247   3.293   3.885  1.6232  0.9788 -0.6750
 8045TIP3    H224081   7.289   3.434   3.919  0.8982  1.8146 -3.1087
 8046TIP3   OH224082   8.210   4.399   3.279 -0.6239 -0.8316 -0.1694
 8046TIP3    H124083   8.209   4.404   3.375  0.7690  1.7642 -0.2337
 8046TIP3    H224084   8.159   4.475   3.250  0.9859 -0.1800 -1.4427
 8047TIP3   OH224085   0.422   5.725   2.261  0.5909  0.1143 -0.6104
 8047TIP3    H124086   0.345   5.714   2.205 -0.5302  1.3473  0.6449
 8047TIP3    H224087   0.415   5.815   2.294  1.0214 -0.6874  1.7654
 8048TIP3   OH224088   7.754   6.896   2.404 -0.3483 -0.3629 -0.2055
 8048TIP3    H124089   7.713   6.818   2.366 -2.0909  1.2095 -1.6142
 8048TIP3    H224090   7.680   6.951   2.430  0.8748  0.9594  0.4972
 8049TIP3   OH224091   0.318   6.519   4.441 -0.7138 -0.1758  0.6268
 8049TIP3    H124092   0.229   6.485   4.447 -1.0182  0.5850  0.5071
 8049TIP3    H224093   0.337   6.550   4.530  0.4734 -2.8620  1.3610
 8050TIP3   OH224094   6.921   5.487   4.693  0.3965  0.3731  0.3238
 8050TIP3    H124095   6.966   5.547   4.752  0.1890 -0.1002  0.9751
 8050TIP3    H224096   6.954   5.509   4.606  1.5964  0.2810  0.7462
 8051TIP3   OH224097   0.311   6.932   4.906  0.1886 -0.3731  0.2345
 8051TIP3    H124098   0.273   6.853   4.944  1.3888 -0.6118  0.9612
 8051TIP3    H224099   0.281   7.002   4.964 -1.4909 -0.1788 -0.8332
 8052TIP3   OH224100   7.104   4.277   4.783 -0.6642 -0.9519  0.1149
 8052TIP3    H124101   7.015   4.272   4.817 -1.7018  0.9436 -2.2101
 8052TIP3    H224102   7.101   4.226   4.701 -0.0137  0.3589 -0.7368
 8053TIP3   OH224103   8.329   5.257   5.533 -0.5809 -0.2559 -0.1760
 8053TIP3    H124104   8.378   5.339   5.530 -3.1397  1.3847  0.6747
 8053TIP3    H224105   8.285   5.252   5.448 -0.5196 -0.6685 -0.1834
 8054TIP3   OH224106   0.848   5.047   3.754  0.5173 -0.1018  0.0839
 8054TIP3    H124107   0.779   5.113   3.746  0.0745 -0.3487  1.5545
 8054TIP3    H224108   0.917   5.091   3.803  0.1444 -0.7639  1.2286
 8055TIP3   OH224109   1.374   4.414   4.802 -0.2091  0.3297  0.4760
 8055TIP3    H124110   1.286   4.432   4.770 -1.2487 -2.1579  1.8502
 8055TIP3    H224111   1.375   4.449   4.891  0.9543  2.3991 -0.3163
 8056TIP3   OH224112   0.949   6.658   4.696  0.1303  0.0749  0.6885
 8056TIP3    H124113   0.854   6.650   4.704  0.2947 -2.3169  0.5438
 8056TIP3    H224114   0.983   6.620   4.777  0.9865  0.8481  0.6995
 8057TIP3   OH224115   3.622   6.244   4.919 -0.1210  0.3845  0.6930
 8057TIP3    H124116   3.553   6.310   4.927  0.3640  0.8229  1.3265
 8057TIP3    H224117   3.576   6.162   4.903 -0.7127  0.9396 -0.4702
 8058TIP3   OH224118   1.240   5.002   3.488  0.1340  0.0059 -0.1221
 8058TIP3    H124119   1.276   4.958   3.565 -0.5635 -2.3395 -1.0804
 8058TIP3    H224120   1.317   5.027   3.437  0.5566 -0.0278  0.4913
 8059TIP3   OH224121   8.461   4.658   5.002  0.3359  0.2315 -0.1264
 8059TIP3    H124122   8.402   4.726   5.035 -1.1819 -0.7826 -0.6895
 8059TIP3    H224123   8.466   4.674   4.908 -0.7069 -0.9376 -0.3864
 8060TIP3   OH224124   8.489   6.886   4.544 -0.2054  0.7240 -0.1207
 8060TIP3    H124125   8.479   6.979   4.563 -0.7636  0.5612  0.3814
 8060TIP3    H224126   8.494   6.844   4.630  2.1636  0.5097 -0.3280
 8061TIP3   OH224127   8.532   5.007   5.250 -0.2825  0.4055 -0.9142
 8061TIP3    H124128   8.473   5.055   5.191 -1.2787 -1.4831 -1.4762
 8061TIP3    H224129   8.475   4.964   5.313  0.5623 -0.5179 -0.7646
 8062TIP3   OH224130   8.315   4.368   3.798  0.2407 -0.4567  0.5950
 8062TIP3    H124131   8.408   4.366   3.778 -0.2399  0.1964 -1.8698
 8062TIP3    H224132   8.302   4.451   3.844  0.5788  0.4148 -0.8304
 8063TIP3   OH224133   0.082   3.719   2.060  0.1914  0.0032  0.4326
 8063TIP3    H124134   0.084   3.656   1.988 -0.0688  1.1758 -0.6173
 8063TIP3    H224135   0.125   3.798   2.024 -2.2666  1.4926  0.6739
 8064TIP3   OH224136   1.248   6.779   4.726 -0.3871  0.1613 -0.9217
 8064TIP3    H124137   1.314   6.848   4.741  0.4881 -0.2839 -2.6154
 8064TIP3    H224138   1.164   6.826   4.727 -0.1273  0.6727  1.6902
 8065TIP3   OH224139   0.485   2.402   0.389  0.2054 -0.2022  0.2541
 8065TIP3    H124140   0.456   2.411   0.480  0.4198 -0.7325  0.3730
 8065TIP3    H224141   0.488   2.308   0.373  0.5462 -0.1188 -0.1834
 8066TIP3   OH224142   7.535   4.760   5.053  0.6719 -0.1420 -0.3602
 8066TIP3    H124143   7.603   4.693   5.065 -1.3448 -1.9121  1.6398
 8066TIP3    H224144   7.509   4.784   5.142 -2.5230 -0.7838 -1.0512
 8067TIP3   OH224145   0.853   3.520   0.902  0.7465 -0.4589  0.3289
 8067TIP3    H124146   0.826   3.428   0.908 -0.9769  0.1319  1.6682
 8067TIP3    H224147   0.805   3.554   0.827  1.8284 -0.7734 -0.5301
 8068TIP3   OH224148   1.998   4.972   4.896  0.0312  0.0051  0.0286
 8068TIP3    H124149   2.066   4.956   4.830  2.5015  1.3308  2.1609
 8068TIP3    H224150   1.954   4.888   4.906  3.5651 -1.8279  0.9617
 8069TIP3   OH224151   0.454   5.377   3.146 -0.2365  0.1039 -0.3776
 8069TIP3    H124152   0.505   5.354   3.224  0.1963  0.9270 -0.4158
 8069TIP3    H224153   0.413   5.294   3.119 -0.4306 -0.1715  0.7470
 8070TIP3   OH224154   7.375   4.161   4.596  0.1554 -0.8237 -0.7208
 8070TIP3    H124155   7.397   4.233   4.537  1.9869 -1.4910 -0.9013
 8070TIP3    H224156   7.398   4.194   4.683  0.2111 -0.8827 -0.7126
 8071TIP3   OH224157   2.552   4.024   5.770  0.0731 -0.5853  0.0153
 8071TIP3    H124158   2.508   4.071   5.699 -1.6798 -0.8940  0.8704
 8071TIP3    H224159   2.490   4.026   5.842  1.2224 -1.5971  1.0574
 8072TIP3   OH224160   1.008   4.539   5.268  0.2872 -0.7696  0.0105
 8072TIP3    H124161   1.077   4.548   5.202  0.0134 -0.0657 -0.1755
 8072TIP3    H224162   1.015   4.447   5.296 -0.2851 -1.3859 -1.7624
 8073TIP3   OH224163   0.801   5.618   2.409  0.2955  0.2833  0.1456
 8073TIP3    H124164   0.886   5.630   2.366  0.0780 -0.7836 -0.5937
 8073TIP3    H224165   0.797   5.524   2.428 -0.8152  0.2937 -0.0104
 8074TIP3   OH224166   0.413   5.476   1.778 -0.2548  0.2562  0.0944
 8074TIP3    H124167   0.358   5.401   1.753  1.7479 -0.6166 -1.8492
 8074TIP3    H224168   0.362   5.553   1.752 -0.9124 -0.5110 -0.9457
 8075TIP3   OH224169   2.267   5.062   5.565  0.3079  0.3131  0.3425
 8075TIP3    H124170   2.214   5.118   5.621  2.0095 -0.1909  2.5368
 8075TIP3    H224171   2.203   5.020   5.506 -1.4940  1.0359  1.7283
 8076TIP3   OH224172   2.411   6.267   6.162  0.0647  0.4339  0.1793
 8076TIP3    H124173   2.392   6.277   6.069  0.5313  2.8901  0.3008
 8076TIP3    H224174   2.494   6.312   6.175 -0.5328  1.1036  1.9604
 8077TIP3   OH224175   0.202   6.415   3.902 -0.3380 -0.2855  0.5157
 8077TIP3    H124176   0.237   6.328   3.883  0.3875  0.3425 -1.0857
 8077TIP3    H224177   0.234   6.470   3.830 -1.4804  1.1226  1.0673
 8078TIP3   OH224178   7.564   2.592   5.133 -0.1776  0.1622 -0.1582
 8078TIP3    H124179   7.577   2.563   5.223  3.5265 -1.0652 -1.0075
 8078TIP3    H224180   7.585   2.685   5.134  0.9033 -0.0782  0.0642
 8079TIP3   OH224181   1.935   4.645   6.320  0.4520  0.3111  0.2130
 8079TIP3    H124182   2.015   4.689   6.292  1.0610 -0.9831 -0.1113
 8079TIP3    H224183   1.964   4.577   6.381 -0.6116  1.2581  1.8083
 8080TIP3   OH224184   1.204   4.449   5.112  0.0520  0.3580 -0.2324
 8080TIP3    H124185   1.269   4.388   5.146  0.6580  1.7650  1.2281
 8080TIP3    H224186   1.255   4.527   5.088 -0.7897  0.5677 -1.3502
 8081TIP3   OH224187   7.943   4.970   5.485 -0.4590 -0.3716  0.0412
 8081TIP3    H124188   7.995   4.897   5.451 -1.0032 -0.2713 -1.0592
 8081TIP3    H224189   8.002   5.017   5.544  0.2511 -1.0476 -0.1191
 8082TIP3   OH224190   0.744   5.334   2.633 -0.1228 -0.0989  0.2802
 8082TIP3    H124191   0.827   5.358   2.592 -1.0957  0.8189 -1.1824
 8082TIP3    H224192   0.740   5.238   2.625  0.1842 -0.0246 -0.8470
 8083TIP3   OH224193   8.033   5.778   3.429  0.2170  0.0771  0.3600
 8083TIP3    H124194   8.058   5.691   3.459  1.5703  0.3964  0.2303
 8083TIP3    H224195   8.112   5.812   3.387 -0.3708  1.2675  0.1938
 8084TIP3   OH224196   0.261   6.314   3.212  0.4804  0.0454 -0.6056
 8084TIP3    H124197   0.321   6.386   3.191 -1.0156  0.7555 -2.7015
 8084TIP3    H224198   0.288   6.243   3.154  1.0353 -0.6009  0.4302
 8085TIP3   OH224199   1.211   5.828   5.095  0.1734  0.2243  0.4886
 8085TIP3    H124200   1.248   5.889   5.031 -1.9378  0.1666 -0.8628
 8085TIP3    H224201   1.232   5.866   5.180  0.5230  1.8454 -0.3058
 8086TIP3   OH224202   1.931   7.492   5.722 -0.5992 -0.0813  0.6586
 8086TIP3    H124203   1.915   7.399   5.705  1.3194 -0.1405 -1.0742
 8086TIP3    H224204   2.012   7.495   5.772 -0.2932  0.6936  0.1353
 8087TIP3   OH224205   7.850   4.652   6.053  0.0486  0.0093  0.0614
 8087TIP3    H124206   7.859   4.650   6.148  2.3771 -0.2085 -0.1376
 8087TIP3    H224207   7.885   4.737   6.027  0.2063 -0.2768 -0.6779
 8088TIP3   OH224208   7.418   5.484   6.142 -0.1050  0.9627  0.1389
 8088TIP3    H124209   7.397   5.422   6.072 -0.3172  0.5009  0.6054
 8088TIP3    H224210   7.337   5.491   6.193  0.4586  0.2196  1.1496
 8089TIP3   OH224211   1.799   7.691   5.092 -0.2023  0.0675 -0.0987
 8089TIP3    H124212   1.720   7.660   5.049 -0.6883 -0.5264  1.1986
 8089TIP3    H224213   1.853   7.612   5.103  0.2681  0.3496 -0.3441
 8090TIP3   OH224214   2.266   4.618   4.840  0.0183 -0.2696 -0.2419
 8090TIP3    H124215   2.254   4.523   4.837  0.9682 -0.4275  0.4212
 8090TIP3    H224216   2.351   4.632   4.800  0.4515  0.1677  0.8034
 8091TIP3   OH224217   2.527   5.722   6.137  0.2048  0.0650 -0.3119
 8091TIP3    H124218   2.481   5.793   6.094  1.3106  0.6101 -0.6306
 8091TIP3    H224219   2.513   5.646   6.081 -3.7896 -0.8222  1.7508
 8092TIP3   OH224220   1.982   6.012   5.257  0.6798 -0.2395  0.0683
 8092TIP3    H124221   2.004   5.981   5.169  0.5689 -1.4494  0.4559
 8092TIP3    H224222   1.903   6.065   5.244 -0.6962 -2.3259 -0.2644
 8093TIP3   OH224223   0.770   3.178   3.223  0.0110 -0.2040 -0.2682
 8093TIP3    H124224   0.812   3.189   3.309  1.4164 -0.5024 -0.9078
 8093TIP3    H224225   0.758   3.083   3.215 -1.6377 -0.0692  0.2913
 8094TIP3   OH224226   1.246   7.484   5.239  0.0004  0.3834 -0.3678
 8094TIP3    H124227   1.226   7.422   5.169  1.3532 -1.7038  1.0388
 8094TIP3    H224228   1.339   7.506   5.226  0.4205 -0.4814  1.1118
 8095TIP3   OH224229   2.911   5.411   3.647  0.1982  0.5724 -0.4140
 8095TIP3    H124230   2.819   5.409   3.672  0.0973  0.7677 -0.7724
 8095TIP3    H224231   2.955   5.454   3.721  0.1965 -0.7311  0.3617
 8096TIP3   OH224232   8.240   6.354   1.982  0.3126  0.1700 -0.0595
 8096TIP3    H124233   8.167   6.407   2.013 -0.3570 -0.8756  0.1936
 8096TIP3    H224234   8.256   6.383   1.892 -0.5007  0.2971 -0.1585
 8097TIP3   OH224235   0.886   6.316   6.542  0.0729 -0.1231  0.1272
 8097TIP3    H124236   0.868   6.332   6.449  1.3418 -1.7481 -0.4117
 8097TIP3    H224237   0.846   6.231   6.560  0.5718 -0.2082  0.8455
 8098TIP3   OH224238   6.338   2.890   0.304 -0.3645 -0.1117  0.7587
 8098TIP3    H124239   6.258   2.942   0.297 -0.3773 -0.0847  1.1201
 8098TIP3    H224240   6.409   2.954   0.296 -0.3603 -0.3187 -1.1538
 8099TIP3   OH224241   0.443   4.734   3.322 -0.2906 -0.1185  0.2718
 8099TIP3    H124242   0.434   4.667   3.389 -0.4919 -0.2973  0.0671
 8099TIP3    H224243   0.392   4.700   3.248 -1.0461  0.6144  0.4402
 8100TIP3   OH224244   1.786   5.650   4.785  0.2241  0.0356  0.7778
 8100TIP3    H124245   1.780   5.706   4.862  1.2730 -0.0659  0.9488
 8100TIP3    H224246   1.746   5.567   4.811  0.2281  0.1323  1.0853
 8101TIP3   OH224247   5.401   7.502   3.669 -0.0720 -0.0592 -0.0289
 8101TIP3    H124248   5.341   7.481   3.598 -0.4097  0.4234  0.1133
 8101TIP3    H224249   5.374   7.445   3.741 -0.9936  0.8560  0.3577
 8102TIP3   OH224250   0.202   7.944   3.912  0.2496  0.5254  0.6055
 8102TIP3    H124251   0.267   7.963   3.980 -0.9402  1.7076  1.4587
 8102TIP3    H224252   0.196   8.026   3.862 -0.0394  0.1816  0.0792
 8103TIP3   OH224253   1.644   6.763   4.182  0.4061  0.1141 -0.5778
 8103TIP3    H124254   1.559   6.807   4.192  1.0369  1.1121  0.4593
 8103TIP3    H224255   1.660   6.723   4.267  1.4631  0.8220 -0.4387
 8104TIP3   OH224256   7.178   7.590   3.388  0.4275  0.0626 -0.3547
 8104TIP3    H124257   7.222   7.624   3.310  0.2983 -0.9366 -0.8712
 8104TIP3    H224258   7.247   7.581   3.454  0.9397 -1.1346 -1.0395
 8105TIP3   OH224259   2.453   0.718   4.133 -0.2448 -1.0563  0.0740
 8105TIP3    H124260   2.513   0.777   4.177 -1.0162  0.3514 -0.7167
 8105TIP3    H224261   2.507   0.671   4.070  0.0144  0.3283 -0.7572
 8106TIP3   OH224262   0.516   6.092   3.769 -0.1267  0.4654 -0.3646
 8106TIP3    H124263   0.589   6.146   3.799 -0.8261  1.3631 -0.2371
 8106TIP3    H224264   0.445   6.111   3.831  0.2381 -2.2132  0.9549
 8107TIP3   OH224265   2.503   6.819   6.074  0.2005 -0.3844 -0.3701
 8107TIP3    H124266   2.518   6.901   6.122  2.8064 -1.2082  0.2733
 8107TIP3    H224267   2.408   6.808   6.076 -0.0313  1.5665  1.3373
 8108TIP3   OH224268   1.445   4.948   4.547 -0.0687  0.0907 -0.4794
 8108TIP3    H124269   1.382   4.888   4.506  0.0881 -0.7703  0.5237
 8108TIP3    H224270   1.530   4.920   4.514  0.0359 -0.4570  0.2422
 8109TIP3   OH224271   0.464   6.536   3.952 -0.1898 -0.1200 -0.1891
 8109TIP3    H124272   0.474   6.541   4.047 -0.2406  0.4579 -0.2132
 8109TIP3    H224273   0.386   6.483   3.938  0.4792 -1.1917  0.0708
 8110TIP3   OH224274   0.165   6.736   3.524 -0.5278  0.3170  0.1628
 8110TIP3    H124275   0.147   6.700   3.436  0.0173 -1.4202  0.7369
 8110TIP3    H224276   0.215   6.815   3.508 -0.5100  0.0618 -1.1067
 8111TIP3   OH224277   8.365   2.952   5.049 -0.1337  0.0588 -0.3762
 8111TIP3    H124278   8.457   2.976   5.045  0.3751 -1.5193  1.0236
 8111TIP3    H224279   8.322   3.026   5.090  0.6582  0.4537 -0.2584
 8112TIP3   OH224280   2.283   4.571   3.510 -0.1775 -0.0343 -0.1309
 8112TIP3    H124281   2.234   4.619   3.442 -0.1609  2.4788  1.5786
 8112TIP3    H224282   2.372   4.566   3.475 -0.6617 -0.7956 -1.3084
 8113TIP3   OH224283   0.400   5.688   4.955  0.5710  0.1388  0.0296
 8113TIP3    H124284   0.365   5.599   4.952 -1.1209  0.7773  0.5050
 8113TIP3    H224285   0.438   5.701   4.868 -0.3118 -0.6004 -0.4751
 8114TIP3   OH224286   8.479   4.208   1.750  0.1010  0.6302  0.0356
 8114TIP3    H124287   8.508   4.226   1.660 -0.0412  1.4224  0.1448
 8114TIP3    H224288   8.468   4.113   1.753  1.2050  0.4789 -0.4567
 8115TIP3   OH224289   6.850   5.082   4.619 -0.8075 -0.5618  0.8382
 8115TIP3    H124290   6.895   5.063   4.537 -0.8837 -0.9351  0.8824
 8115TIP3    H224291   6.905   5.148   4.662 -1.5489  0.7848 -0.2070
 8116TIP3   OH224292   8.454   4.614   3.980  0.2426  0.0894  0.2803
 8116TIP3    H124293   8.459   4.684   3.916  1.5083 -1.8968 -1.8830
 8116TIP3    H224294   8.545   4.586   3.991 -0.2491 -1.2260  1.0683
 8117TIP3   OH224295   0.238   4.603   2.122 -0.8607 -0.0226  0.3197
 8117TIP3    H124296   0.164   4.664   2.113 -1.5789 -0.7322  1.3070
 8117TIP3    H224297   0.211   4.527   2.070  0.7665  1.1350 -2.3144
 8118TIP3   OH224298   0.041   5.043   2.079  0.2780 -0.1315  0.2087
 8118TIP3    H124299  -0.044   5.005   2.057  0.3716  0.0429 -0.4837
 8118TIP3    H224300   0.104   4.979   2.045  0.4262  0.1005  0.0460
 8119TIP3   OH224301   1.784   5.279   5.522  0.2218  0.2124  0.9012
 8119TIP3    H124302   1.861   5.223   5.520 -1.1667 -1.7602  0.0635
 8119TIP3    H224303   1.725   5.240   5.457 -1.1558  2.1436  0.9485
 8120TIP3   OH224304   7.683   5.968   2.046 -0.2058 -0.4453  0.5338
 8120TIP3    H124305   7.765   6.015   2.062 -0.8379  0.6695  0.4883
 8120TIP3    H224306   7.624   5.997   2.116 -0.2696 -1.9776  1.1426
 8121TIP3   OH224307   0.585   4.981   3.251  0.0613  0.0653  0.3307
 8121TIP3    H124308   0.542   4.897   3.266 -1.4971  1.1296  2.0339
 8121TIP3    H224309   0.653   4.986   3.317  1.4121 -0.6778 -0.9903
 8122TIP3   OH224310   0.655   5.951   3.087 -0.4072 -0.2170 -0.0824
 8122TIP3    H124311   0.697   6.029   3.122 -1.9987  0.2768  0.7568
 8122TIP3    H224312   0.568   5.950   3.126 -1.7500 -0.4010 -2.9621
 8123TIP3   OH224313   7.778   4.398   4.941  0.2081 -0.0583 -0.2194
 8123TIP3    H124314   7.730   4.480   4.953  1.2749  0.8304 -1.8965
 8123TIP3    H224315   7.735   4.337   5.000 -3.1224  0.6836 -1.7328
 8124TIP3   OH224316   7.306   6.761   4.859  0.6548 -0.3348 -0.1849
 8124TIP3    H124317   7.289   6.834   4.800  0.9969 -0.5222 -0.5144
 8124TIP3    H224318   7.254   6.781   4.937  0.7039  0.2368 -0.2929
 8125TIP3   OH224319   2.057   5.897   5.019  0.0888 -0.8580  0.0964
 8125TIP3    H124320   2.132   5.838   5.013 -0.1815 -1.1097 -0.8688
 8125TIP3    H224321   2.047   5.933   4.931 -3.0776 -3.5287 -0.7900
 8126TIP3   OH224322   2.650   7.495   5.529 -0.2747 -0.5208 -0.3274
 8126TIP3    H124323   2.685   7.520   5.444  1.5447 -0.1705  0.4863
 8126TIP3    H224324   2.668   7.401   5.536 -0.3033 -0.5235 -0.2786
 8127TIP3   OH224325   0.181   4.458   4.782 -0.3266 -0.0414 -0.5085
 8127TIP3    H124326   0.159   4.446   4.875 -2.3270  1.6128 -0.7218
 8127TIP3    H224327   0.097   4.461   4.738  0.6431 -1.4890 -2.4991
 8128TIP3   OH224328   4.885   0.640   0.636  0.3174 -0.4941 -0.4024
 8128TIP3    H124329   4.970   0.648   0.594  1.4630 -1.5279  1.7044
 8128TIP3    H224330   4.902   0.601   0.721 -2.1650  0.0575  0.4098
 8129TIP3   OH224331   7.028   1.874   0.469  0.0112 -0.4104  0.4062
 8129TIP3    H124332   7.073   1.949   0.430  0.5351 -1.4426 -1.0273
 8129TIP3    H224333   7.068   1.865   0.556 -1.7488  2.4312  1.5710
 8130TIP3   OH224334   2.167   5.903   5.468  0.2179  0.8080 -0.1624
 8130TIP3    H124335   2.221   5.854   5.406 -0.4149 -0.3921  0.2141
 8130TIP3    H224336   2.123   5.969   5.415  1.0315  0.9358 -0.6891
 8131TIP3   OH224337   1.932   5.977   5.692 -0.3577  0.0360  0.0535
 8131TIP3    H124338   2.012   5.924   5.687 -0.7320 -0.5170 -0.1187
 8131TIP3    H224339   1.908   5.975   5.785 -0.0537  0.3824  0.1417
 8132TIP3   OH224340   0.696   5.892   6.868  0.7483 -0.3067  0.2265
 8132TIP3    H124341   0.616   5.877   6.919  0.2961  0.0288 -0.3800
 8132TIP3    H224342   0.674   5.861   6.780  1.3985 -0.5242  0.1398
 8133TIP3   OH224343   0.815   5.795   3.282  0.2572  0.0073 -0.1103
 8133TIP3    H124344   0.874   5.864   3.312  1.2045 -0.2262 -1.3731
 8133TIP3    H224345   0.754   5.839   3.223  1.5135 -0.3792 -1.7474
 8134TIP3   OH224346   1.081   7.207   2.835  0.6406  0.0347 -0.3547
 8134TIP3    H124347   1.044   7.118   2.838  1.1934 -0.2220 -1.1345
 8134TIP3    H224348   1.071   7.234   2.744  0.8949  0.5993 -0.2154
 8135TIP3   OH224349   0.933   6.080   3.697 -0.0587 -0.2740 -0.4551
 8135TIP3    H124350   0.919   6.173   3.684 -2.4348 -0.6475 -0.6845
 8135TIP3    H224351   1.028   6.069   3.692  0.3871  2.3808  1.3037
 8136TIP3   OH224352   0.804   4.555   5.096 -0.1052  0.1862 -0.1109
 8136TIP3    H124353   0.872   4.538   5.161 -0.0567  0.8065  0.0050
 8136TIP3    H224354   0.764   4.638   5.124 -0.5020  0.1354 -0.5181
 8137TIP3   OH224355   2.172   6.486   4.857  0.4423  0.2136 -0.0490
 8137TIP3    H124356   2.083   6.455   4.836  0.3652  0.9430 -0.8637
 8137TIP3    H224357   2.208   6.420   4.915 -0.0524 -0.9335 -1.0215
 8138TIP3   OH224358   7.969   4.755   5.788  0.3980 -0.4987 -0.4465
 8138TIP3    H124359   8.045   4.767   5.846 -0.3349  1.0456  0.2231
 8138TIP3    H224360   7.930   4.842   5.781 -0.2978 -0.9242 -2.2215
 8139TIP3   OH224361   1.887   5.670   5.077 -0.0827 -0.1423  0.1161
 8139TIP3    H124362   1.938   5.751   5.083 -1.1554  0.6075 -0.7760
 8139TIP3    H224363   1.889   5.634   5.165 -1.0490  1.7504  0.9467
 8140TIP3   OH224364   8.181   5.923   4.842  0.2499 -0.3192 -0.1478
 8140TIP3    H124365   8.132   5.980   4.782 -1.1237 -1.7329 -0.4063
 8140TIP3    H224366   8.180   5.837   4.800 -1.0563 -1.4250  2.0581
 8141TIP3   OH224367   2.910   5.348   4.439 -0.2762 -0.4190  0.7756
 8141TIP3    H124368   2.912   5.325   4.531  0.2732 -0.3771  0.7757
 8141TIP3    H224369   2.984   5.407   4.427 -0.7282  0.0877  0.4446
 8142TIP3   OH224370   1.740   5.922   5.501 -0.0184 -0.2470 -0.1944
 8142TIP3    H124371   1.770   5.852   5.444  0.7372 -0.4729  0.4757
 8142TIP3    H224372   1.818   5.951   5.548 -0.6236 -0.0563  0.7143
 8143TIP3   OH224373   3.185   5.280   4.016  0.5971  0.0703  0.2979
 8143TIP3    H124374   3.143   5.337   4.081 -2.6085 -0.6119 -1.0858
 8143TIP3    H224375   3.180   5.193   4.055 -0.3393 -0.1780 -0.3671
 8144TIP3   OH224376   1.227   5.556   4.047 -0.1723 -0.1117  0.2503
 8144TIP3    H124377   1.193   5.632   4.000 -0.7035 -0.1887  0.5010
 8144TIP3    H224378   1.173   5.483   4.017 -1.1480  0.0023  1.6720
 8145TIP3   OH224379   0.108   4.428   3.521 -0.7297 -0.1116 -0.3674
 8145TIP3    H124380   0.028   4.455   3.475 -0.5696 -1.5611 -1.5222
 8145TIP3    H224381   0.117   4.335   3.501  0.6362 -0.2155  0.6907
 8146TIP3   OH224382   2.185   5.253   3.389 -0.3414  0.5299  0.4953
 8146TIP3    H124383   2.152   5.248   3.479  1.3532  1.1583  1.1693
 8146TIP3    H224384   2.164   5.342   3.360 -0.7002  0.3952  0.3298
 8147TIP3   OH224385   0.574   6.172   2.824  0.1020 -0.0789  0.3011
 8147TIP3    H124386   0.511   6.114   2.867 -0.9655  0.9133  0.0875
 8147TIP3    H224387   0.588   6.243   2.887  1.0808 -0.3295  0.3835
 8148TIP3   OH224388   7.872   4.247   3.427  0.4471  0.0290 -0.1985
 8148TIP3    H124389   7.845   4.337   3.410  2.4990  0.4815 -1.1875
 8148TIP3    H224390   7.907   4.248   3.516 -0.8468 -0.1234  0.3267
 8149TIP3   OH224391   1.363   4.802   3.967  0.2391  0.6064  0.0033
 8149TIP3    H124392   1.282   4.783   4.014 -0.3344 -0.4228 -1.3525
 8149TIP3    H224393   1.342   4.878   3.913 -0.1400 -0.2645 -1.0904
 8150TIP3   OH224394   0.726   3.030   5.275 -0.1964  0.4654 -0.2593
 8150TIP3    H124395   0.679   3.086   5.337 -1.9801  1.1139 -2.1685
 8150TIP3    H224396   0.793   3.087   5.237  1.0249  0.0159  1.1700
 8151TIP3   OH224397   1.749   5.610   5.594  0.3115  0.5244  0.5085
 8151TIP3    H124398   1.682   5.596   5.527 -1.1785  2.7542  1.4714
 8151TIP3    H224399   1.727   5.548   5.664 -0.9918  1.4930  0.9746
 8152TIP3   OH224400   2.417   5.462   4.321 -0.1418 -0.5308 -0.0012
 8152TIP3    H124401   2.506   5.440   4.348  0.0765 -0.9683 -1.0254
 8152TIP3    H224402   2.421   5.556   4.303  0.0457 -0.4935  0.2322
 8153TIP3   OH224403   0.353   5.582   3.727 -0.3152 -0.1088 -0.1969
 8153TIP3    H124404   0.263   5.609   3.710 -0.2408  0.2021 -0.1067
 8153TIP3    H224405   0.373   5.621   3.813 -0.9724 -2.3261  1.0070
 8154TIP3   OH224406   3.884   2.804   0.187 -0.1995  0.7322  0.0786
 8154TIP3    H124407   3.816   2.737   0.176 -0.4062  1.1936 -1.4817
 8154TIP3    H224408   3.962   2.754   0.213 -0.6446  0.0060  0.0404
 8155TIP3   OH224409   3.269   6.707   5.890  0.1498 -0.2386 -0.1859
 8155TIP3    H124410   3.293   6.615   5.899 -0.5643 -0.5514 -1.2909
 8155TIP3    H224411   3.302   6.732   5.804  0.8936  0.7176  0.3733
 8156TIP3   OH224412   3.390   6.746   5.643  0.4852  0.5894  0.2586
 8156TIP3    H124413   3.453   6.681   5.612  2.2191  1.5876  1.5430
 8156TIP3    H224414   3.444   6.822   5.665 -1.5188  2.5505 -1.3947
 8157TIP3   OH224415   0.289   6.164   4.402  0.8549 -0.2273 -0.4672
 8157TIP3    H124416   0.362   6.179   4.342  1.4437 -0.2443  0.2438
 8157TIP3    H224417   0.325   6.181   4.488 -0.3550  1.0904 -0.2229
 8158TIP3   OH224418   1.158   4.121   4.804 -0.1632 -0.3700  0.1498
 8158TIP3    H124419   1.066   4.146   4.810  0.0497  0.1398  1.6374
 8158TIP3    H224420   1.172   4.103   4.711 -1.4580  0.6952 -0.2796
 8159TIP3   OH224421   2.647   4.869   3.834  0.2137 -0.0460 -0.7742
 8159TIP3    H124422   2.681   4.943   3.885  0.5162 -0.3820 -0.4849
 8159TIP3    H224423   2.555   4.890   3.821  0.5230  0.8696 -1.5545
 8160TIP3   OH224424   2.495   5.220   3.823  0.3881 -0.0157  0.5453
 8160TIP3    H124425   2.564   5.191   3.883 -1.2147 -3.1950  0.9233
 8160TIP3    H224426   2.498   5.157   3.751 -1.5315  0.3856  0.0948
 8161TIP3   OH224427   8.113   4.929   6.525  0.0927  0.0058 -0.4408
 8161TIP3    H124428   8.038   4.911   6.581  0.6574 -3.2949 -0.6092
 8161TIP3    H224429   8.173   4.979   6.580 -1.2984  0.7616  0.4043
 8162TIP3   OH224430   1.013   6.121   4.688 -0.3959 -0.4214 -0.1060
 8162TIP3    H124431   1.010   6.123   4.592 -0.7997  0.8067 -0.0807
 8162TIP3    H224432   0.932   6.077   4.713  0.1640 -1.6061 -0.3419
 8163TIP3   OH224433   7.151   3.565   6.010 -0.2564  0.2236 -0.7834
 8163TIP3    H124434   7.214   3.500   6.040 -0.8688  0.5695  1.2789
 8163TIP3    H224435   7.180   3.587   5.921  0.3581 -2.3343 -1.2555
 8164TIP3   OH224436   8.082   4.254   5.348  0.5417 -0.5635 -0.5749
 8164TIP3    H124437   7.990   4.248   5.321  0.9433  0.4958 -2.2920
 8164TIP3    H224438   8.128   4.276   5.267  2.0552  0.8919  0.6616
 8165TIP3   OH224439   6.680   7.309   4.214 -0.0861  0.3538  0.4558
 8165TIP3    H124440   6.726   7.230   4.243 -0.3032  0.3637  0.8368
 8165TIP3    H224441   6.740   7.351   4.153 -0.6658 -0.9953 -1.0737
 8166TIP3   OH224442   0.240   4.781   4.809  0.2057 -0.0522  0.0527
 8166TIP3    H124443   0.212   4.692   4.788  1.1199 -0.2291 -0.4681
 8166TIP3    H224444   0.160   4.828   4.828 -0.4439 -0.5431 -1.3798
 8167TIP3   OH224445   3.730   6.811   5.916  0.3333 -0.4402  0.0635
 8167TIP3    H124446   3.817   6.849   5.906  0.0576  0.0555 -0.4495
 8167TIP3    H224447   3.681   6.877   5.965  0.2259 -0.6849  0.2837
 8168TIP3   OH224448   2.376   7.351   5.286 -0.4669 -0.1137  0.8755
 8168TIP3    H124449   2.312   7.323   5.221  0.5506  0.9280 -0.5918
 8168TIP3    H224450   2.421   7.270   5.311  0.2760 -0.2780 -0.9530
 8169TIP3   OH224451   1.196   5.765   3.863  0.0278  1.0278  0.0007
 8169TIP3    H124452   1.254   5.753   3.788  1.1991 -0.5328  1.1275
 8169TIP3    H224453   1.233   5.839   3.911  1.3467 -0.1606  0.8905
 8170TIP3   OH224454   5.004   1.191   4.785  0.3116  0.1150 -0.5955
 8170TIP3    H124455   4.957   1.117   4.824 -1.1369  1.8078  0.9328
 8170TIP3    H224456   5.088   1.193   4.832 -0.1359  0.1780  0.2074
 8171TIP3   OH224457   2.736   5.696   3.476  0.7208 -0.5579  0.0755
 8171TIP3    H124458   2.808   5.633   3.476  1.3928  0.1965 -0.6881
 8171TIP3    H224459   2.722   5.716   3.383 -0.3270 -0.5308  0.2354
 8172TIP3   OH224460   8.508   5.034   3.190 -0.2043  0.7741  0.3879
 8172TIP3    H124461   8.440   5.001   3.131 -1.1262  1.5500  0.9859
 8172TIP3    H224462   8.509   4.972   3.263  0.0660  0.4957  0.1469
 8173TIP3   OH224463   0.309   7.333   4.241 -0.1485 -0.1967 -0.5679
 8173TIP3    H124464   0.387   7.344   4.294 -1.2530  1.3853  0.7816
 8173TIP3    H224465   0.306   7.240   4.222  1.9573 -0.3016 -0.4879
 8174TIP3   OH224466   2.002   6.324   5.113 -0.4926 -0.2434 -0.3879
 8174TIP3    H124467   1.955   6.243   5.132 -0.7308 -0.0211 -0.0222
 8174TIP3    H224468   1.999   6.332   5.018 -1.4169 -0.0973 -0.3510
 8175TIP3   OH224469   0.685   6.023   5.448 -0.0021 -0.1426  0.0176
 8175TIP3    H124470   0.649   6.111   5.445  0.0317 -0.1347 -0.1599
 8175TIP3    H224471   0.626   5.974   5.505  0.2278  0.1099  0.4798
 8176TIP3   OH224472   1.608   6.559   5.182 -0.0284  0.2573 -0.4822
 8176TIP3    H124473   1.524   6.588   5.146 -0.5632 -0.5863  0.0946
 8176TIP3    H224474   1.586   6.486   5.239  0.9176  1.0397  0.9004
 8177TIP3   OH224475   2.461   4.858   3.107 -0.0874  0.2360  0.3919
 8177TIP3    H124476   2.387   4.877   3.048 -0.4407  0.2158  0.8238
 8177TIP3    H224477   2.447   4.916   3.181 -0.5439 -0.8894  1.1993
 8178TIP3   OH224478   0.925   5.815   3.970 -0.0222  0.8760 -0.2227
 8178TIP3    H124479   0.931   5.778   4.058  0.7601 -1.4956 -1.2176
 8178TIP3    H224480   1.011   5.856   3.956  0.4882 -0.2650 -0.5062
 8179TIP3   OH224481   2.098   5.601   2.811 -0.3411 -0.0169 -0.0229
 8179TIP3    H124482   2.101   5.541   2.737  1.0840  0.7069 -0.5614
 8179TIP3    H224483   2.087   5.687   2.771 -1.1734  0.2108  0.6888
 8180TIP3   OH224484   5.502   5.282   3.093  0.0283  0.0245  0.7166
 8180TIP3    H124485   5.568   5.345   3.123 -0.4518  0.5649  0.6657
 8180TIP3    H224486   5.540   5.242   3.015  0.0321  0.8015  0.3136
 8181TIP3   OH224487   1.059   5.159   3.960 -0.1724  0.3357  0.0983
 8181TIP3    H124488   1.095   5.113   4.036  2.6512 -1.0832 -1.9807
 8181TIP3    H224489   1.057   5.251   3.987  2.6256  0.1100  1.2360
 8182TIP3   OH224490   8.207   4.755   4.458 -0.7666 -0.2601  0.3718
 8182TIP3    H124491   8.284   4.810   4.445 -1.3366  0.1556 -1.3938
 8182TIP3    H224492   8.145   4.811   4.505 -0.8411  0.1810 -0.2415
 8183TIP3   OH224493   1.681   6.886   4.937 -0.1975 -0.0188 -0.2028
 8183TIP3    H124494   1.695   6.792   4.953  0.5656 -0.2014 -1.8054
 8183TIP3    H224495   1.681   6.926   5.024 -0.0652 -1.4506  0.4680
 8184TIP3   OH224496   2.406   6.754   3.558 -0.1497 -0.0021  0.0718
 8184TIP3    H124497   2.338   6.781   3.620  0.8106 -1.1177  1.6298
 8184TIP3    H224498   2.458   6.834   3.543 -0.2731  0.2243  0.8396
 8185TIP3   OH224499   1.743   5.801   4.542  0.0517  0.3848  0.6352
 8185TIP3    H124500   1.723   5.890   4.571  0.8424  0.2156  1.7101
 8185TIP3    H224501   1.712   5.744   4.612  0.3200 -0.1422  0.3367
 8186TIP3   OH224502   3.524   5.759   5.446 -0.0642 -0.4437  0.1831
 8186TIP3    H124503   3.448   5.817   5.433  0.4113  0.5927  1.8844
 8186TIP3    H224504   3.599   5.818   5.444  0.5798 -1.2674  0.0206
 8187TIP3   OH224505   2.177   4.812   5.434 -0.2806 -0.3073  0.0042
 8187TIP3    H124506   2.270   4.797   5.453  0.0523  0.6496 -0.8202
 8187TIP3    H224507   2.134   4.732   5.463  1.1372 -1.8345 -1.9563
 8188TIP3   OH224508   3.623   6.590   6.654  0.0618 -0.3893  0.2967
 8188TIP3    H124509   3.539   6.603   6.699  1.1693  1.8748  1.7719
 8188TIP3    H224510   3.678   6.661   6.685  2.3824 -1.5433 -1.0797
 8189TIP3   OH224511   4.008   6.123   5.644  0.4904 -0.1444  0.4096
 8189TIP3    H124512   3.935   6.071   5.677 -0.8660  0.7482 -1.1319
 8189TIP3    H224513   4.079   6.059   5.631 -0.8764 -1.4774 -0.6592
 8190TIP3   OH224514   1.924   6.579   3.764  0.0222 -0.1811  0.4025
 8190TIP3    H124515   1.883   6.493   3.763  0.8496 -0.6133  1.9218
 8190TIP3    H224516   1.894   6.619   3.845 -0.5503  1.0780 -0.4093
 8191TIP3   OH224517   4.089   5.215   3.350 -0.3962  0.5747  0.1758
 8191TIP3    H124518   4.125   5.194   3.436  0.4306  0.2327 -0.2471
 8191TIP3    H224519   4.166   5.218   3.292 -1.1075 -0.7925 -0.8659
 8192TIP3   OH224520   2.013   4.098   6.220 -0.2426  0.5918  0.1564
 8192TIP3    H124521   2.055   4.075   6.138  1.9172 -1.0893  1.6679
 8192TIP3    H224522   1.930   4.049   6.219  0.1773 -0.1166 -0.6311
 8193TIP3   OH224523   2.272   4.475   5.363 -0.1326  0.3310  0.1544
 8193TIP3    H124524   2.183   4.510   5.359 -0.9288 -1.1581  3.0569
 8193TIP3    H224525   2.322   4.542   5.409  0.0646  0.7902 -0.7161
 8194TIP3   OH224526   4.224   5.908   5.641  0.0755  0.1759 -0.4350
 8194TIP3    H124527   4.199   5.859   5.719  0.8840  0.3648 -0.0590
 8194TIP3    H224528   4.319   5.919   5.648  0.2187 -0.1243 -1.6155
 8195TIP3   OH224529   2.941   7.435   3.829 -0.3256 -0.6944  0.6293
 8195TIP3    H124530   2.893   7.498   3.883 -0.4572 -2.3071  2.4487
 8195TIP3    H224531   3.016   7.484   3.795 -0.8071  0.6220  1.4565
 8196TIP3   OH224532   4.133   6.462   3.330  0.3782  0.9550 -0.6636
 8196TIP3    H124533   4.051   6.510   3.323  0.0029  0.4368  0.0879
 8196TIP3    H224534   4.200   6.525   3.303 -0.2001  1.5967 -0.6190
 8197TIP3   OH224535   2.291   5.330   3.977 -0.3009  0.1269 -0.0952
 8197TIP3    H124536   2.353   5.296   3.912 -0.1383  1.3721 -0.6009
 8197TIP3    H224537   2.346   5.370   4.044 -0.4511 -1.5073  1.0336
 8198TIP3   OH224538   3.209   6.836   4.241  0.4609 -0.3223  0.1823
 8198TIP3    H124539   3.207   6.856   4.334  1.7542 -0.0176  0.1643
 8198TIP3    H224540   3.240   6.745   4.238 -2.9030 -1.5160  0.1676
 8199TIP3   OH224541   3.720   4.830   4.949  0.4274 -0.3527 -0.1455
 8199TIP3    H124542   3.794   4.878   4.985  0.4840 -1.6978  1.5837
 8199TIP3    H224543   3.677   4.791   5.025 -0.3590 -1.9888 -1.4042
 8200TIP3   OH224544   3.289   5.985   4.382  0.4068  0.0970 -0.5793
 8200TIP3    H124545   3.292   5.890   4.392 -1.5308  0.0775 -0.0632
 8200TIP3    H224546   3.289   5.999   4.287 -0.4185 -0.4611 -0.6610
 8201TIP3   OH224547   2.967   7.188   5.089 -0.0637  0.3600 -0.5767
 8201TIP3    H124548   3.052   7.231   5.078  0.8339 -1.6067 -1.6237
 8201TIP3    H224549   2.987   7.108   5.138 -1.9023  1.7560  2.5955
 8202TIP3   OH224550   1.808   6.320   3.313  0.1312  0.0640  0.0665
 8202TIP3    H124551   1.880   6.272   3.353  0.5306  0.8657  0.3073
 8202TIP3    H224552   1.730   6.291   3.360  0.4281 -0.0331  0.4941
 8203TIP3   OH224553   1.882   6.067   3.383 -0.3105 -0.1155  0.1240
 8203TIP3    H124554   1.939   6.107   3.449  0.2361  0.4681 -0.6987
 8203TIP3    H224555   1.812   6.026   3.434 -1.2553  2.4608  0.9923
 8204TIP3   OH224556   2.066   5.159   4.476  0.1083  0.2177  0.2445
 8204TIP3    H124557   1.995   5.200   4.426 -0.2334  1.1248  1.4700
 8204TIP3    H224558   2.145   5.181   4.426 -0.3547  0.0315 -0.5957
 8205TIP3   OH224559   2.892   6.500   6.383  0.0208 -0.6328 -0.4728
 8205TIP3    H124560   2.824   6.459   6.436  0.1172  1.0622  1.0256
 8205TIP3    H224561   2.953   6.429   6.362  0.1758 -1.2761  2.0177
 8206TIP3   OH224562   4.600   0.712   4.398 -0.3566 -0.4084  0.3975
 8206TIP3    H124563   4.692   0.721   4.425 -0.2201  3.1556 -0.9811
 8206TIP3    H224564   4.550   0.737   4.475 -0.2554 -3.2218  1.4403
 8207TIP3   OH224565   1.701   6.444   3.085 -0.5749  0.1429  0.1183
 8207TIP3    H124566   1.614   6.410   3.064  0.5946 -2.3507 -1.0622
 8207TIP3    H224567   1.739   6.377   3.143  1.1966  0.2293 -0.8895
 8208TIP3   OH224568   4.349   5.047   2.610  0.3428  0.1025  0.3392
 8208TIP3    H124569   4.259   5.061   2.640  0.3918 -1.3352  1.2417
 8208TIP3    H224570   4.349   5.076   2.519 -1.2240 -0.5522  0.1120
 8209TIP3   OH224571   3.630   7.834   5.889 -0.0115 -0.1088  0.3420
 8209TIP3    H124572   3.567   7.792   5.947  0.3593 -2.1407 -0.6786
 8209TIP3    H224573   3.577   7.869   5.818 -0.2628  0.6118  0.8828
 8210TIP3   OH224574   1.378   7.028   2.971 -0.2219  0.6299 -0.4344
 8210TIP3    H124575   1.308   7.065   2.918  0.2320 -0.0788 -1.5488
 8210TIP3    H224576   1.413   7.102   3.021 -0.4841  1.3522 -1.3144
 8211TIP3   OH224577   2.652   4.199   4.023 -0.2096 -0.2169 -0.1225
 8211TIP3    H124578   2.705   4.270   4.061  1.3985 -0.4103 -1.9155
 8211TIP3    H224579   2.579   4.244   3.980  0.5587  0.3149 -0.8660
 8212TIP3   OH224580   4.584   6.807   4.104 -0.1737 -0.2085  0.0607
 8212TIP3    H124581   4.667   6.840   4.068 -0.0266 -0.0775  0.5113
 8212TIP3    H224582   4.559   6.872   4.169  0.2643 -1.1403  1.1672
 8213TIP3   OH224583   3.190   6.886   2.058 -0.1340  0.0620 -0.3362
 8213TIP3    H124584   3.126   6.850   1.997 -0.6926 -0.7049  0.6951
 8213TIP3    H224585   3.173   6.980   2.057 -1.2716 -0.1369 -0.0774
 8214TIP3   OH224586   1.964   6.867   5.160 -0.3010 -0.1572 -0.2951
 8214TIP3    H124587   1.996   6.782   5.190  0.9916  0.2225 -0.5846
 8214TIP3    H224588   1.882   6.879   5.207 -1.0987 -2.0857 -1.0893
 8215TIP3   OH224589   1.425   5.552   5.095 -0.4160 -0.0826  0.4864
 8215TIP3    H124590   1.341   5.525   5.056  1.5549 -1.5274 -2.9895
 8215TIP3    H224591   1.446   5.634   5.050  1.0928 -0.9139 -0.3630
 8216TIP3   OH224592   1.868   7.226   3.987 -0.4355 -0.3864 -0.0156
 8216TIP3    H124593   1.803   7.281   4.033 -0.0484  0.2406 -0.2156
 8216TIP3    H224594   1.818   7.181   3.919 -0.6232  0.2462 -0.2939
 8217TIP3   OH224595   1.562   7.676   5.496 -0.1642  0.5026  0.2480
 8217TIP3    H124596   1.470   7.702   5.493  0.0483  1.1129 -0.9923
 8217TIP3    H224597   1.561   7.586   5.529 -1.2052  0.4938  0.1841
 8218TIP3   OH224598   1.886   7.883   3.490 -0.1848  0.3514  0.1994
 8218TIP3    H124599   1.874   7.920   3.577  2.0509  1.4521  0.0846
 8218TIP3    H224600   1.821   7.926   3.435 -1.0831  0.2243  1.1631
 8219TIP3   OH224601   1.846   5.342   3.855 -0.3683 -0.0795 -0.1325
 8219TIP3    H124602   1.929   5.342   3.903 -0.6678 -2.8415  0.4908
 8219TIP3    H224603   1.800   5.420   3.886  0.3849 -0.6062  2.4813
 8220TIP3   OH224604   0.797   4.986   3.020 -0.3444 -0.5348  0.1965
 8220TIP3    H124605   0.711   4.944   3.023 -0.0770 -1.0612  0.7537
 8220TIP3    H224606   0.856   4.920   3.056  0.1782  0.1008  0.5120
 8221TIP3   OH224607   4.138   0.191   3.913  0.4419  0.5101  0.3901
 8221TIP3    H124608   4.126   0.103   3.948  1.5953  0.1976  0.0113
 8221TIP3    H224609   4.081   0.246   3.967 -0.1652 -0.4397  0.7266
 8222TIP3   OH224610   4.514   6.609   6.078 -0.0561  0.2524  0.1386
 8222TIP3    H124611   4.571   6.660   6.136  0.1084 -0.7536  0.8692
 8222TIP3    H224612   4.469   6.675   6.026  2.7297  1.0537 -1.3918
 8223TIP3   OH224613  -0.006   4.229   4.885  0.2650  0.2323  0.0800
 8223TIP3    H124614  -0.041   4.141   4.897 -0.3298  0.6835  1.8283
 8223TIP3    H224615   0.061   4.220   4.817 -1.2368 -1.1766 -1.2645
 8224TIP3   OH224616   2.409   5.753   4.323 -0.0513  0.4759  0.3480
 8224TIP3    H124617   2.499   5.771   4.351  0.0815 -0.4381  0.5183
 8224TIP3    H224618   2.406   5.781   4.231  0.5262  0.0893  0.2147
 8225TIP3   OH224619   1.419   5.125   4.982 -0.1058  0.0414 -0.2326
 8225TIP3    H124620   1.412   5.140   4.887 -0.8952 -2.1990 -0.5662
 8225TIP3    H224621   1.512   5.133   5.001 -0.0505  1.4683 -1.0209
 8226TIP3   OH224622   4.298   4.597   5.413  0.0438 -0.1483 -0.0629
 8226TIP3    H124623   4.339   4.628   5.331 -0.0746  1.0132  0.2997
 8226TIP3    H224624   4.204   4.599   5.395 -0.0847  1.9349  0.6954
 8227TIP3   OH224625   2.280   4.369   3.699 -0.1959  0.2598 -0.1241
 8227TIP3    H124626   2.277   4.440   3.634  4.4255  1.5188  0.8667
 8227TIP3    H224627   2.311   4.293   3.649  3.3013  1.2139  0.4365
 8228TIP3   OH224628   4.071   3.543   4.995 -0.3587 -0.0928  0.2612
 8228TIP3    H124629   4.040   3.461   4.956 -0.2863  0.9084 -1.9412
 8228TIP3    H224630   4.025   3.548   5.079 -1.0668 -1.9181  0.0194
 8229TIP3   OH224631   3.059   4.820   4.142 -0.0482 -0.2274  0.1939
 8229TIP3    H124632   3.046   4.773   4.059  0.1500 -1.1107  0.6626
 8229TIP3    H224633   2.985   4.794   4.196 -0.3829  0.6481  0.1648
 8230TIP3   OH224634   0.965   6.815   3.098 -0.3204  0.6866 -0.3145
 8230TIP3    H124635   1.053   6.815   3.137  0.3215  1.3361 -1.7210
 8230TIP3    H224636   0.925   6.734   3.129  1.1154 -0.0631 -0.3733
 8231TIP3   OH224637   3.082   4.688   2.718  0.1096  0.5095 -0.3262
 8231TIP3    H124638   3.069   4.758   2.655  0.5122  0.2269 -0.7244
 8231TIP3    H224639   3.170   4.703   2.753  0.4552 -0.1742 -0.8899
 8232TIP3   OH224640   1.865   4.656   4.050  0.3233  0.1086 -0.3471
 8232TIP3    H124641   1.824   4.576   4.083 -0.2678  0.1306 -1.0063
 8232TIP3    H224642   1.792   4.718   4.039  0.7834  0.7560  0.2188
 8233TIP3   OH224643   1.259   4.083   3.837 -0.0347 -0.3387 -0.4601
 8233TIP3    H124644   1.185   4.095   3.778 -0.9691  1.9429  1.1099
 8233TIP3    H224645   1.317   4.157   3.818  0.3338 -0.3760  0.4939
 8234TIP3   OH224646   7.513   4.847   4.359 -0.1652  0.1596 -0.4547
 8234TIP3    H124647   7.598   4.870   4.396 -1.2657  1.4865  1.3061
 8234TIP3    H224648   7.503   4.754   4.377  0.7629  0.0760 -0.3675
 8235TIP3   OH224649   3.671   5.016   3.620 -0.4373 -0.0063 -0.6277
 8235TIP3    H124650   3.709   5.093   3.578 -0.4662 -0.9562 -2.4301
 8235TIP3    H224651   3.740   4.950   3.615 -0.0748  0.1323  1.7298
 8236TIP3   OH224652   1.157   5.579   4.355 -0.3629  0.0236 -0.3549
 8236TIP3    H124653   1.141   5.659   4.305 -0.6744 -0.6465 -1.3316
 8236TIP3    H224654   1.248   5.586   4.382 -0.8065  1.4288  0.8761
 8237TIP3   OH224655   0.881   3.608   3.236  0.4294 -0.4708 -0.4663
 8237TIP3    H124656   0.919   3.671   3.175 -0.3146  2.4124  1.9426
 8237TIP3    H224657   0.800   3.579   3.194 -0.1223  1.5368 -0.8420
 8238TIP3   OH224658   3.065   5.492   4.182  0.6536  0.2339 -0.1345
 8238TIP3    H124659   3.122   5.518   4.254  1.2270  2.0178 -1.2091
 8238TIP3    H224660   2.981   5.533   4.201  0.9524  1.1261 -0.7481
 8239TIP3   OH224661   1.258   7.273   5.064 -0.0153  0.2834  0.4279
 8239TIP3    H124662   1.332   7.251   5.122 -0.3777  0.7199  1.0708
 8239TIP3    H224663   1.193   7.205   5.082 -0.2020  0.5251  0.6760
 8240TIP3   OH224664   3.479   5.014   4.913  0.0841 -0.0475  0.2970
 8240TIP3    H124665   3.572   5.007   4.891  0.5361  0.1717  2.0569
 8240TIP3    H224666   3.478   5.061   4.996 -1.6170  0.1135  0.1917
 8241TIP3   OH224667   3.679   6.470   4.382  0.3277 -0.3605  0.1696
 8241TIP3    H124668   3.589   6.485   4.354 -0.0722  0.5494  1.8420
 8241TIP3    H224669   3.703   6.386   4.343 -1.7487 -1.2952  0.8411
 8242TIP3   OH224670   1.944   4.389   4.353  0.6629 -0.3381  0.0984
 8242TIP3    H124671   1.975   4.300   4.367  0.2077 -0.4543  0.3961
 8242TIP3    H224672   1.919   4.420   4.441  1.3104  0.2676  0.0728
 8243TIP3   OH224673   1.636   6.740   4.466 -0.0311 -0.9237 -0.2856
 8243TIP3    H124674   1.576   6.810   4.494 -0.2938 -2.2145  2.5204
 8243TIP3    H224675   1.723   6.780   4.471 -0.3582 -0.0719 -1.1120
 8244TIP3   OH224676   0.710   7.751   4.318 -0.0593 -0.7821  0.6463
 8244TIP3    H124677   0.659   7.771   4.240  1.1625 -0.7944 -0.1639
 8244TIP3    H224678   0.664   7.796   4.389  0.1285  1.1633 -0.4360
 8245TIP3   OH224679   8.286   5.912   3.037 -0.6810  0.3790 -0.0434
 8245TIP3    H124680   8.285   5.819   3.059 -0.4060  0.4146  0.1231
 8245TIP3    H224681   8.377   5.930   3.013 -0.8286  0.5007 -0.5231
 8246TIP3   OH224682   2.821   5.107   3.225 -0.2357  0.1204  0.2460
 8246TIP3    H124683   2.768   5.031   3.200 -0.8883  0.8807 -0.7026
 8246TIP3    H224684   2.775   5.146   3.298  0.7647 -1.1082  1.5696
 8247TIP3   OH224685   1.491   3.858   4.732  0.4609  0.3620  0.4174
 8247TIP3    H124686   1.584   3.863   4.709  0.6021 -1.3712  0.5575
 8247TIP3    H224687   1.472   3.943   4.773  1.6667  1.2071 -0.7008
 8248TIP3   OH224688   2.155   5.118   4.170  0.0590 -0.3512  0.0809
 8248TIP3    H124689   2.156   5.026   4.143 -1.1162 -0.1548 -0.6667
 8248TIP3    H224690   2.196   5.165   4.097  1.2239 -0.3458  0.7320
 8249TIP3   OH224691   3.501   4.551   2.917 -0.3471  0.0981  0.1222
 8249TIP3    H124692   3.459   4.555   3.003  0.4308  1.8747  0.4363
 8249TIP3    H224693   3.501   4.458   2.895 -2.5489 -0.1513  1.0460
 8250TIP3   OH224694   3.058   5.368   4.775 -0.1559  0.1142 -0.4786
 8250TIP3    H124695   2.970   5.347   4.805 -0.3086  0.1615 -0.8864
 8250TIP3    H224696   3.095   5.284   4.747 -0.4803  0.2583 -1.3636
 8251TIP3   OH224697   2.440   3.983   3.136 -0.2814  0.0094  0.0833
 8251TIP3    H124698   2.435   3.956   3.228  0.5442 -1.0570 -0.1707
 8251TIP3    H224699   2.478   4.070   3.138 -0.6468  0.1581  0.7769
 8252TIP3   OH224700   4.400   6.902   6.173 -0.1568  0.8478  0.0287
 8252TIP3    H124701   4.340   6.831   6.192  1.4971 -0.9066 -1.1486
 8252TIP3    H224702   4.458   6.906   6.250  1.1937 -0.6387 -0.8782
 8253TIP3   OH224703   0.676   6.320   3.838 -0.0432 -0.2232 -0.3768
 8253TIP3    H124704   0.753   6.371   3.865 -0.2267  0.0602 -0.3820
 8253TIP3    H224705   0.620   6.385   3.795 -1.4338  0.1115  1.8677
 8254TIP3   OH224706   0.868   6.550   2.829  1.0120 -0.3522  0.6240
 8254TIP3    H124707   0.867   6.553   2.924  2.2864 -2.6544  0.7624
 8254TIP3    H224708   0.948   6.502   2.807  0.4949 -0.2843 -1.5837
 8255TIP3   OH224709   3.386   5.424   3.810  0.0969  0.0411  0.3670
 8255TIP3    H124710   3.334   5.464   3.879  0.9996 -0.9865  1.6819
 8255TIP3    H224711   3.383   5.330   3.829 -0.4007 -0.3442 -1.5299
 8256TIP3   OH224712   1.383   5.186   5.251  0.4386  0.1864 -0.1123
 8256TIP3    H124713   1.344   5.271   5.270  1.3169  0.1301  2.1774
 8256TIP3    H224714   1.373   5.175   5.157 -0.5236  2.4073 -0.3003
 8257TIP3   OH224715   2.826   6.635   5.402  0.2098  0.6410 -0.1519
 8257TIP3    H124716   2.778   6.701   5.451  0.9617  0.9017  0.2265
 8257TIP3    H224717   2.810   6.658   5.310 -1.3820  0.0185 -0.0578
 8258TIP3   OH224718   3.382   7.080   5.897  0.3243 -0.0814 -0.6143
 8258TIP3    H124719   3.462   7.095   5.949  0.9173  0.8440 -1.7555
 8258TIP3    H224720   3.410   7.022   5.827 -0.6414 -1.9004  0.4895
 8259TIP3   OH224721   3.548   4.930   3.053 -0.3709  0.1114 -0.3557
 8259TIP3    H124722   3.542   4.841   3.017 -2.3317  0.3995 -0.7821
 8259TIP3    H224723   3.579   4.983   2.981 -0.4890  0.0039 -0.4854
 8260TIP3   OH224724   3.850   6.189   3.293 -0.0308  0.2039  0.4329
 8260TIP3    H124725   3.761   6.154   3.303 -0.2624  0.6441 -0.0634
 8260TIP3    H224726   3.837   6.283   3.282  0.5478  0.3633  1.1037
 8261TIP3   OH224727   2.961   5.626   3.871 -0.3959 -0.2642 -0.3341
 8261TIP3    H124728   2.925   5.639   3.958  0.0344 -1.2307 -0.0040
 8261TIP3    H224729   2.912   5.686   3.815 -2.4098 -1.4153  0.1239
 8262TIP3   OH224730   1.406   6.191   4.511 -0.1390  0.4860  0.3668
 8262TIP3    H124731   1.490   6.229   4.485  0.8332 -1.2560  0.9309
 8262TIP3    H224732   1.363   6.261   4.561  1.0940  1.2850  0.3216
 8263TIP3   OH224733   1.237   5.544   2.657 -0.4462 -0.2717 -0.1831
 8263TIP3    H124734   1.199   5.487   2.724 -0.1323 -0.1041  0.1409
 8263TIP3    H224735   1.301   5.596   2.704 -0.6481  0.2713 -0.5003
 8264TIP3   OH224736   3.606   5.774   4.686  0.3008  0.7672  0.1525
 8264TIP3    H124737   3.619   5.682   4.709 -0.1599  1.0062  1.4579
 8264TIP3    H224738   3.684   5.819   4.719 -0.0672  1.0236  0.6873
 8265TIP3   OH224739   3.226   6.168   4.749  0.1439  0.7905  0.0165
 8265TIP3    H124740   3.318   6.146   4.735 -0.0941  0.5148 -1.1309
 8265TIP3    H224741   3.183   6.146   4.666 -1.2517 -0.6391  1.0922
 8266TIP3   OH224742   5.503   0.068   5.416 -0.3447  0.3356  0.0833
 8266TIP3    H124743   5.408   0.078   5.430 -0.4615  0.2751 -0.6497
 8266TIP3    H224744   5.531   0.154   5.386 -0.1688  0.3506  0.2955
 8267TIP3   OH224745   0.230   5.930   4.906  0.1541 -0.5768  0.0596
 8267TIP3    H124746   0.275   5.847   4.922 -1.2086 -1.3713 -0.1963
 8267TIP3    H224747   0.205   5.961   4.993  1.1923 -0.1144  0.2074
 8268TIP3   OH224748   1.913   5.968   1.555 -0.4528  0.2964 -0.6087
 8268TIP3    H124749   1.976   5.996   1.488  1.5527 -0.7332  0.7901
 8268TIP3    H224750   1.905   5.874   1.543  0.9618 -0.1306  1.3805
 8269TIP3   OH224751   1.574   6.375   4.405 -0.0003  0.2289 -0.2109
 8269TIP3    H124752   1.629   6.425   4.466  0.4960  0.4728 -0.8616
 8269TIP3    H224753   1.556   6.436   4.333  0.4210 -0.4496 -0.8959
 8270TIP3   OH224754   3.364   7.418   6.387 -0.3961  0.0214  0.0911
 8270TIP3    H124755   3.404   7.442   6.470 -1.1223 -1.6772  0.9603
 8270TIP3    H224756   3.366   7.498   6.335 -0.4964  1.2729  1.9625
 8271TIP3   OH224757   1.958   5.742   4.356 -0.3653  0.4292  0.0821
 8271TIP3    H124758   1.885   5.785   4.401  0.5676  1.0057  1.0947
 8271TIP3    H224759   1.969   5.792   4.275 -1.8193 -0.3765 -0.6221
 8272TIP3   OH224760   2.412   6.851   5.527 -0.4086 -0.3495 -0.1749
 8272TIP3    H124761   2.499   6.827   5.558 -0.5658 -1.0627 -0.2761
 8272TIP3    H224762   2.354   6.784   5.563 -0.8325 -0.2230 -0.6094
 8273TIP3   OH224763   4.784   5.269   2.681  0.1887 -0.4854 -0.0690
 8273TIP3    H124764   4.788   5.215   2.602  1.8877 -0.3175 -0.1306
 8273TIP3    H224765   4.874   5.302   2.691  0.2229 -1.2349  2.4405
 8274TIP3   OH224766   1.817   6.383   4.094 -0.0271  0.3768 -0.6918
 8274TIP3    H124767   1.851   6.458   4.143 -1.7456  0.2344  0.7657
 8274TIP3    H224768   1.748   6.347   4.150  1.4841 -2.9565 -0.8576
 8275TIP3   OH224769   1.188   6.002   4.047  0.0444 -0.0740  0.2575
 8275TIP3    H124770   1.212   6.058   3.973  0.5608 -0.5379  0.0732
 8275TIP3    H224771   1.226   6.046   4.123 -0.1911  0.2185  0.2085
 8276TIP3   OH224772   2.796   4.802   3.074 -0.4594 -0.1466  0.7912
 8276TIP3    H124773   2.754   4.809   2.988 -0.1603  0.6878  0.7128
 8276TIP3    H224774   2.867   4.739   3.061 -1.6794 -1.5676  0.9243
 8277TIP3   OH224775   0.274   7.403   3.485  0.2321  0.2472  0.2429
 8277TIP3    H124776   0.319   7.374   3.564  2.1993  0.9506 -0.6002
 8277TIP3    H224777   0.321   7.362   3.413  0.8656  2.6607 -0.7656
 8278TIP3   OH224778   1.706   6.088   3.837  0.6195  0.3680 -0.0996
 8278TIP3    H124779   1.743   6.025   3.899  0.7626  0.9628  0.4244
 8278TIP3    H224780   1.666   6.155   3.893  1.2412  1.1932 -0.6528
 8279TIP3   OH224781   1.482   4.983   3.647 -0.2891 -0.1795 -0.1092
 8279TIP3    H124782   1.554   4.944   3.697 -0.6468 -1.3042 -0.4647
 8279TIP3    H224783   1.418   5.009   3.713 -0.2064 -0.5094  0.1018
 8280TIP3   OH224784   0.168   7.163   1.191  0.5273  0.4688 -0.0829
 8280TIP3    H124785   0.251   7.209   1.183  1.3263 -1.0786 -0.7155
 8280TIP3    H224786   0.140   7.148   1.101 -0.0667  0.3044  0.1264
 8281TIP3   OH224787   0.352   3.659   4.173 -0.2080  0.2074 -0.2117
 8281TIP3    H124788   0.354   3.572   4.213 -0.5478  0.4972  0.4473
 8281TIP3    H224789   0.338   3.642   4.080 -2.9476 -0.3599  0.2556
 8282TIP3   OH224790   3.873   6.871   4.538  0.0295 -0.3367 -0.0555
 8282TIP3    H124791   3.955   6.909   4.505 -0.1264  0.4910  0.4999
 8282TIP3    H224792   3.884   6.776   4.527  1.2148 -0.2475  0.3815
 8283TIP3   OH224793   8.358   6.457   3.652 -0.0293 -0.0282 -0.0283
 8283TIP3    H124794   8.336   6.421   3.738 -3.0127 -0.2448 -0.7936
 8283TIP3    H224795   8.288   6.521   3.635  1.2203  0.9184 -1.7365
 8284TIP3   OH224796   1.478   6.936   3.920  0.4079  0.3446 -0.0992
 8284TIP3    H124797   1.478   6.842   3.938  3.1750  0.7064  2.1243
 8284TIP3    H224798   1.470   6.977   4.006  0.1021  2.1406 -0.9639
 8285TIP3   OH224799   4.066   3.621   2.689  0.1880 -0.2717  0.0878
 8285TIP3    H124800   4.143   3.639   2.635  0.1877  1.2171  0.5607
 8285TIP3    H224801   3.999   3.592   2.627  2.0078 -4.6681 -0.0135
 8286TIP3   OH224802   2.161   5.255   3.679 -0.5744  0.2632  0.1376
 8286TIP3    H124803   2.110   5.237   3.759  1.9812 -0.0739  1.7527
 8286TIP3    H224804   2.219   5.327   3.703 -1.4439  1.8102 -2.2229
 8287TIP3   OH224805   2.938   6.494   3.261 -0.1371  0.4202 -0.0276
 8287TIP3    H124806   3.029   6.522   3.268  0.1851 -0.3852 -0.8410
 8287TIP3    H224807   2.907   6.534   3.180 -0.1406 -0.2852 -0.3811
 8288TIP3   OH224808   1.430   5.394   3.275  0.4685 -0.3335  0.0291
 8288TIP3    H124809   1.364   5.346   3.324  0.4757  0.1108  0.4716
 8288TIP3    H224810   1.472   5.327   3.220  1.3081 -1.0474  1.5260
 8289TIP3   OH224811   2.125   6.778   4.051 -0.1772 -0.0099  0.2077
 8289TIP3    H124812   2.033   6.803   4.041 -0.6969 -1.8063  0.3374
 8289TIP3    H224813   2.173   6.859   4.033 -1.8198  1.3190  1.4985
 8290TIP3   OH224814   2.690   4.754   3.367  0.5089  0.1823 -0.2159
 8290TIP3    H124815   2.720   4.825   3.424  1.6734  1.1234 -1.9650
 8290TIP3    H224816   2.713   4.782   3.279 -1.5361 -1.1240 -1.2150
 8291TIP3   OH224817   2.465   5.658   4.654 -0.3941  0.3545 -0.2710
 8291TIP3    H124818   2.446   5.586   4.714  1.1748  0.1740  0.0190
 8291TIP3    H224819   2.441   5.737   4.703  0.8450  0.2055  0.5869
 8292TIP3   OH224820   0.173   6.240   4.973  0.0301  0.5525  0.0944
 8292TIP3    H124821   0.181   6.174   5.042  2.7335  0.4288 -0.2839
 8292TIP3    H224822   0.112   6.202   4.910  1.3193 -1.5011  0.0306
 8293TIP3   OH224823   1.405   6.358   6.491 -0.0427  0.3520  0.4094
 8293TIP3    H124824   1.465   6.307   6.547  0.5047  0.7765  0.2126
 8293TIP3    H224825   1.320   6.317   6.504  0.2387 -0.0794  0.9178
 8294TIP3   OH224826   4.414   1.078   5.342  0.6853 -0.5647  0.1213
 8294TIP3    H124827   4.342   1.054   5.283 -0.4277  0.5874  0.9936
 8294TIP3    H224828   4.390   1.039   5.426  0.2605  1.1898  0.8315
 8295TIP3   OH224829   1.236   7.610   5.540  0.2980  0.3291  0.1926
 8295TIP3    H124830   1.259   7.701   5.520 -0.8080  0.5272 -0.2239
 8295TIP3    H224831   1.241   7.565   5.456 -0.6673  0.3493  0.1138
 8296TIP3   OH224832   1.384   5.786   4.434  0.2079  0.0621  0.5200
 8296TIP3    H124833   1.396   5.762   4.342 -0.1651  1.5995  0.0499
 8296TIP3    H224834   1.384   5.703   4.481  2.0588 -0.6432 -0.6805
 8297TIP3   OH224835   3.662   5.551   3.329 -0.1138 -0.0149 -0.1307
 8297TIP3    H124836   3.618   5.507   3.402  0.2849 -0.5172 -0.1868
 8297TIP3    H224837   3.755   5.537   3.346  0.1698  3.2463  1.3909
 8298TIP3   OH224838   0.813   5.396   4.217 -0.2550 -0.0683  0.3147
 8298TIP3    H124839   0.777   5.323   4.266 -0.8947  0.0023 -0.0416
 8298TIP3    H224840   0.741   5.459   4.212  0.0076  0.1986 -0.1475
 8299TIP3   OH224841   0.072   5.647   3.822 -0.1272  0.2570 -0.5041
 8299TIP3    H124842   0.075   5.735   3.860 -0.7585  0.7660 -1.6136
 8299TIP3    H224843   0.036   5.660   3.734  1.1388 -0.9257 -1.2158
 8300TIP3   OH224844   1.193   5.381   5.314 -0.0978 -0.2770 -0.0304
 8300TIP3    H124845   1.136   5.353   5.242 -3.2595 -0.3970  2.3877
 8300TIP3    H224846   1.175   5.475   5.323  0.2850 -0.2612  0.5999
 8301TIP3   OH224847   1.770   5.744   3.741  0.3175 -0.3384 -0.4264
 8301TIP3    H124848   1.691   5.701   3.773  0.0487  1.1546  1.0127
 8301TIP3    H224849   1.796   5.693   3.665 -2.3918 -0.5077 -1.3059
 8302TIP3   OH224850   3.382   6.067   5.103 -0.6377 -0.1310  0.4896
 8302TIP3    H124851   3.294   6.068   5.066  0.4655 -0.1063 -2.2544
 8302TIP3    H224852   3.412   5.977   5.090  0.4453  0.3454 -0.3629
 8303TIP3   OH224853   8.422   6.686   4.311  0.5557 -0.2687 -0.3791
 8303TIP3    H124854   8.366   6.624   4.358  2.0662 -0.7916  0.7768
 8303TIP3    H224855   8.481   6.631   4.260  0.9329  0.2474 -0.5014
 8304TIP3   OH224856   2.835   5.810   3.700  0.1016  0.1040  0.1681
 8304TIP3    H124857   2.782   5.776   3.628  0.1720 -0.0968  0.2109
 8304TIP3    H224858   2.925   5.804   3.668  0.3183 -1.9527  1.0643
 8305TIP3   OH224859   3.704   6.735   4.189 -0.5314 -0.3395 -0.0371
 8305TIP3    H124860   3.729   6.737   4.097 -0.3164 -2.2777 -0.0211
 8305TIP3    H224861   3.619   6.691   4.191 -0.0679 -1.2252  0.7901
 8306TIP3   OH224862   4.062   6.141   4.749 -0.0220  0.5502  0.3794
 8306TIP3    H124863   4.004   6.137   4.825  0.1825  3.2559  0.7428
 8306TIP3    H224864   4.020   6.203   4.690  1.2823  0.7099 -0.4092
 8307TIP3   OH224865   3.431   5.135   3.217 -0.2058 -0.6413 -0.0353
 8307TIP3    H124866   3.509   5.190   3.216 -1.0143  0.4972 -1.1003
 8307TIP3    H224867   3.451   5.063   3.157 -0.6284  0.5856 -1.6726
 8308TIP3   OH224868   3.204   6.660   3.259  0.0166 -0.6194  0.0834
 8308TIP3    H124869   3.247   6.741   3.287  0.9400 -0.0270 -2.8528
 8308TIP3    H224870   3.262   6.591   3.291  1.3426  0.0502 -0.7933
 8309TIP3   OH224871   2.801   6.438   1.812  0.9214  0.4750 -0.1920
 8309TIP3    H124872   2.848   6.406   1.889  0.5266  1.1797  0.3489
 8309TIP3    H224873   2.866   6.491   1.766  1.4787 -0.8027 -0.9191
 8310TIP3   OH224874   3.507   7.468   5.114 -0.0280 -0.1343 -0.2417
 8310TIP3    H124875   3.461   7.464   5.198 -0.7124  0.3545 -0.5923
 8310TIP3    H224876   3.465   7.540   5.067  0.1985 -0.5584 -1.0960
 8311TIP3   OH224877   2.568   6.481   3.965  0.4459  0.8700  0.0062
 8311TIP3    H124878   2.571   6.388   3.941 -0.1137  0.9002 -0.1975
 8311TIP3    H224879   2.634   6.490   4.033  0.2017  0.2285  0.3357
 8312TIP3   OH224880   2.787   7.641   4.843 -0.1261  0.0204  0.2050
 8312TIP3    H124881   2.849   7.714   4.850 -1.0072  0.8312 -0.3955
 8312TIP3    H224882   2.841   7.566   4.818  0.4830  0.9294 -1.2752
 8313TIP3   OH224883   2.865   5.535   5.979 -0.9858  0.3224 -0.2686
 8313TIP3    H124884   2.842   5.578   6.062  0.3267  1.0932 -0.2949
 8313TIP3    H224885   2.866   5.606   5.915 -1.0526 -0.1284 -0.7713
 8314TIP3   OH224886   2.025   6.970   3.572  0.0558 -0.7345 -0.5177
 8314TIP3    H124887   2.038   6.894   3.514  0.9745 -0.7927 -0.2321
 8314TIP3    H224888   1.962   6.939   3.637 -0.8625 -0.7219 -1.3752
 8315TIP3   OH224889   2.591   6.024   4.612 -0.2565 -0.3235  0.1993
 8315TIP3    H124890   2.544   6.095   4.655  0.7011  0.0020  0.7042
 8315TIP3    H224891   2.607   5.960   4.681  0.4361 -0.2377  0.1140
 8316TIP3   OH224892   1.430   5.997   5.728 -0.1212  0.8451 -0.2996
 8316TIP3    H124893   1.336   6.003   5.747 -0.0177 -0.3595  0.6043
 8316TIP3    H224894   1.457   5.912   5.763  1.4669  1.4959  0.1115
 8317TIP3   OH224895   3.043   6.373   6.683  0.6991 -0.2340 -0.4089
 8317TIP3    H124896   3.006   6.285   6.680  0.1230 -0.0092  0.1226
 8317TIP3    H224897   3.118   6.369   6.624  1.4683 -1.4612  0.6228
 8318TIP3   OH224898   3.552   2.210   5.975  0.1535  0.2556  0.4263
 8318TIP3    H124899   3.601   2.157   5.912 -0.3002 -0.0854  0.3590
 8318TIP3    H224900   3.465   2.220   5.936  0.3243  1.3229  0.2853
 8319TIP3   OH224901   3.268   7.111   6.909  0.3240  0.5031  0.8817
 8319TIP3    H124902   3.210   7.085   6.837 -0.1516  1.3906  0.9345
 8319TIP3    H224903   3.301   7.028   6.944 -0.0916  0.0311  0.1740
 8320TIP3   OH224904   8.060   0.865   1.182 -0.9202  0.1444 -0.2096
 8320TIP3    H124905   7.984   0.917   1.209 -2.1406 -2.2298  1.1233
 8320TIP3    H224906   8.026   0.805   1.116 -0.5222 -1.6697  1.1687
 8321TIP3   OH224907   4.225   5.867   6.061  0.5873 -0.2156 -0.1090
 8321TIP3    H124908   4.230   5.812   5.983 -1.1213 -0.8592  0.2180
 8321TIP3    H224909   4.175   5.944   6.032  1.1616  0.2036 -0.0056
 8322TIP3   OH224910   0.185   5.053   3.738 -0.4848 -0.4124  0.0518
 8322TIP3    H124911   0.220   4.969   3.712 -0.0075  0.0304 -0.7546
 8322TIP3    H224912   0.239   5.118   3.692  1.2331  0.4569  3.1342
 8323TIP3   OH224913   1.159   7.205   4.301 -0.3784  0.0954  0.6979
 8323TIP3    H124914   1.218   7.275   4.272 -0.3739  0.5225  1.7202
 8323TIP3    H224915   1.211   7.156   4.365 -0.5163 -0.6189  0.2648
 8324TIP3   OH224916   6.512   7.955   3.781 -0.1959  0.4441 -0.1406
 8324TIP3    H124917   6.466   7.919   3.857  1.8081 -1.2268  0.3258
 8324TIP3    H224918   6.502   7.889   3.713 -0.2266  1.0018 -0.6804
 8325TIP3   OH224919   0.978   6.004   2.631 -0.2563  0.0471 -0.4672
 8325TIP3    H124920   0.968   6.050   2.548  0.5972  1.4252  0.1696
 8325TIP3    H224921   0.889   5.998   2.666 -0.3321  1.6961 -0.3275
 8326TIP3   OH224922   2.699   6.064   1.904 -0.8273  0.7125  0.0135
 8326TIP3    H124923   2.669   6.101   1.987 -1.8642 -1.0324  0.4291
 8326TIP3    H224924   2.639   5.992   1.886  0.1713  0.2521 -1.6044
 8327TIP3   OH224925   3.893   6.631   4.408 -0.3227  0.1231  0.2925
 8327TIP3    H124926   3.916   6.650   4.317  0.5656 -1.1698  0.2318
 8327TIP3    H224927   3.815   6.577   4.402 -0.2904  0.0747  0.3066
 8328TIP3   OH224928   2.461   5.138   3.542  0.1154  0.0779  0.0386
 8328TIP3    H124929   2.418   5.177   3.466 -0.7103 -0.7413  0.0759
 8328TIP3    H224930   2.553   5.129   3.516 -0.0837  0.1919 -0.7033
 8329TIP3   OH224931   4.002   6.360   4.154  1.0667 -0.1008  0.2207
 8329TIP3    H124932   4.023   6.285   4.098 -0.7968 -0.4042 -0.1044
 8329TIP3    H224933   3.914   6.340   4.189  0.5376  1.9358  0.1086
 8330TIP3   OH224934   3.706   5.718   4.418  0.1653  0.3497  0.3160
 8330TIP3    H124935   3.671   5.629   4.422  2.5577 -0.5532  2.8251
 8330TIP3    H224936   3.656   5.766   4.483  0.4886  0.2200  0.6622
 8331TIP3   OH224937   3.686   5.374   4.372 -0.1097  0.3090 -0.4712
 8331TIP3    H124938   3.773   5.334   4.378  0.7447  2.2678  0.8391
 8331TIP3    H224939   3.633   5.324   4.435  0.3051 -0.2882 -0.5847
 8332TIP3   OH224940   6.399   0.966   3.699  0.6854 -0.1395 -0.4930
 8332TIP3    H124941   6.433   1.010   3.621  0.5923 -1.2199 -1.1449
 8332TIP3    H224942   6.462   0.896   3.716 -0.9887 -1.9255 -1.4908
 8333TIP3   OH224943   4.647   6.970   4.701 -0.3260 -0.4117  0.1772
 8333TIP3    H124944   4.717   6.910   4.726  2.0441  2.1190 -0.1986
 8333TIP3    H224945   4.622   6.942   4.613 -0.6139 -2.0308  0.7505
 8334TIP3   OH224946   2.828   6.812   1.742 -0.3606 -0.0129  0.6896
 8334TIP3    H124947   2.781   6.888   1.708  0.7036  1.3632  2.2228
 8334TIP3    H224948   2.846   6.758   1.665 -0.1341  1.8524 -0.5786
 8335TIP3   OH224949   3.702   3.763   2.648 -0.3788 -0.3380 -0.2458
 8335TIP3    H124950   3.753   3.802   2.719  0.7972 -1.7763 -0.2820
 8335TIP3    H224951   3.634   3.713   2.692 -2.3070  2.2077 -0.2009
 8336TIP3   OH224952   4.641   5.471   4.469  0.7060  0.0683 -0.3933
 8336TIP3    H124953   4.673   5.430   4.388 -0.7870  1.2031 -1.6019
 8336TIP3    H224954   4.584   5.404   4.509 -0.9023  0.5302 -1.8277
 8337TIP3   OH224955   3.559   7.200   5.335  0.2193  0.3048 -0.4899
 8337TIP3    H124956   3.480   7.160   5.299  1.2944 -1.5164 -0.8878
 8337TIP3    H224957   3.626   7.185   5.268  1.4433 -0.1247  0.8062
 8338TIP3   OH224958   3.666   7.805   5.150  0.1900  0.3285  0.2894
 8338TIP3    H124959   3.660   7.864   5.226 -1.6161  1.9062 -1.0524
 8338TIP3    H224960   3.577   7.774   5.136  0.6961 -0.7941 -0.5860
 8339TIP3   OH224961   2.293   4.016   4.067 -0.3004  0.2760 -0.4705
 8339TIP3    H124962   2.350   3.940   4.074 -1.0469 -0.3299 -1.0069
 8339TIP3    H224963   2.307   4.064   4.149  1.8326  0.7413 -1.0755
 8340TIP3   OH224964   1.109   6.386   1.656 -0.1780  0.4647  0.2449
 8340TIP3    H124965   1.121   6.468   1.609  0.6890  0.8559  1.1311
 8340TIP3    H224966   1.115   6.410   1.748  0.5870 -0.6565  0.5023
 8341TIP3   OH224967   4.092   7.467   3.530  0.3546  0.0306  0.4188
 8341TIP3    H124968   4.118   7.512   3.450 -0.9705 -0.4577 -0.2978
 8341TIP3    H224969   4.105   7.532   3.600  0.7510  0.7173 -0.2884
 8342TIP3   OH224970   4.329   7.662   4.604 -0.2427 -0.1977 -0.5529
 8342TIP3    H124971   4.361   7.697   4.687 -0.0056  0.9676 -1.1268
 8342TIP3    H224972   4.237   7.640   4.621 -0.1722 -0.0401  0.0443
 8343TIP3   OH224973   4.137   7.930   0.076  0.5619  0.2648  0.1286
 8343TIP3    H124974   4.146   7.876  -0.003  1.7186  2.1189 -1.0640
 8343TIP3    H224975   4.115   7.868   0.145  0.6844 -1.5706 -1.4234
 8344TIP3   OH224976   3.117   7.664   3.351 -0.1342 -0.0883 -0.0290
 8344TIP3    H124977   3.204   7.696   3.375  0.0883 -1.4493  1.1033
 8344TIP3    H224978   3.057   7.722   3.398  0.1897  0.1309  0.1206
 8345TIP3   OH224979   3.209   5.027   4.141 -0.5712  0.1111 -0.2346
 8345TIP3    H124980   3.156   4.948   4.126  0.6631 -0.8993  0.6630
 8345TIP3    H224981   3.192   5.050   4.232 -1.5836  1.4116 -0.7207
 8346TIP3   OH224982   7.379   5.211   4.260 -0.0742 -0.2203  0.2814
 8346TIP3    H124983   7.348   5.176   4.176 -0.0887  1.3446 -0.3987
 8346TIP3    H224984   7.474   5.221   4.247 -0.4130  2.5735 -0.5841
 8347TIP3   OH224985   1.010   6.735   4.214 -0.5330 -0.3137 -0.4644
 8347TIP3    H124986   1.089   6.747   4.162 -1.6413 -0.8581 -2.3260
 8347TIP3    H224987   0.979   6.823   4.233  1.0493 -0.0883  1.1247
 8348TIP3   OH224988   3.325   4.634   4.523  0.1845 -0.2150  0.4373
 8348TIP3    H124989   3.332   4.555   4.470  0.3849 -1.0636  1.6941
 8348TIP3    H224990   3.408   4.679   4.511  0.1250 -0.2658 -0.1753
 8349TIP3   OH224991   8.358   3.255   5.858 -0.6794 -0.0905 -0.2631
 8349TIP3    H124992   8.306   3.292   5.929  0.5477  0.3738  0.4233
 8349TIP3    H224993   8.388   3.170   5.892  1.7386  1.0770  0.7100
 8350TIP3   OH224994   2.352   6.145   4.219 -0.0313  0.4426 -0.4235
 8350TIP3    H124995   2.419   6.211   4.205  0.2726  0.5977  1.5688
 8350TIP3    H224996   2.348   6.096   4.137  0.5772  2.1659 -1.5033
 8351TIP3   OH224997   1.367   6.245   4.995 -0.2767 -0.0878  0.1919
 8351TIP3    H124998   1.316   6.325   5.008 -0.9264 -0.1019 -2.0467
 8351TIP3    H224999   1.313   6.192   4.935  2.0212 -0.3908 -1.6864
 8352TIP3   OH225000   1.276   5.467   3.561 -0.3374 -0.1014  0.3248
 8352TIP3    H125001   1.260   5.396   3.498 -1.2976 -0.6273  1.1255
 8352TIP3    H225002   1.188   5.500   3.581 -0.0359  0.1372  1.2765
 8353TIP3   OH225003   0.749   6.899   2.252 -0.0835  0.4191 -0.0736
 8353TIP3    H125004   0.725   6.985   2.219 -1.0386 -0.4027 -1.5577
 8353TIP3    H225005   0.673   6.871   2.304  1.0608  1.3357  2.1741
 8354TIP3   OH225006   4.091   0.228   3.167 -0.3704  0.0800  0.3292
 8354TIP3    H125007   4.183   0.237   3.193 -1.1887 -1.0514  3.8270
 8354TIP3    H225008   4.045   0.294   3.219 -1.8034 -0.6452  0.0003
 8355TIP3   OH225009   1.065   7.091   1.343  0.2440 -0.0813 -0.5397
 8355TIP3    H125010   1.160   7.092   1.355  0.1708  2.4660  0.2156
 8355TIP3    H225011   1.038   7.003   1.368  2.0593  0.1378  2.3951
 8356TIP3   OH225012   2.577   6.045   3.424 -0.3392 -0.8185  0.3725
 8356TIP3    H125013   2.621   5.970   3.383 -0.5071 -0.6927 -0.0380
 8356TIP3    H225014   2.513   6.074   3.359 -0.4779 -0.5014  0.6496
 8357TIP3   OH225015   2.852   6.157   4.637  0.3145  0.2289 -0.2325
 8357TIP3    H125016   2.800   6.149   4.557  0.0639  2.7397 -0.3511
 8357TIP3    H225017   2.943   6.158   4.607  0.2520  0.3893 -0.4134
 8358TIP3   OH225018   3.973   7.707   2.777 -0.1963  0.3301  0.1149
 8358TIP3    H125019   4.014   7.664   2.852  0.9927 -0.7554 -1.1230
 8358TIP3    H225020   3.970   7.799   2.800  3.0551  0.4714  0.2255
 8359TIP3   OH225021   3.062   6.258   4.273 -0.0212 -0.0008  0.2015
 8359TIP3    H125022   3.017   6.216   4.199  0.3037  0.4877 -0.2758
 8359TIP3    H225023   3.077   6.348   4.244 -1.4583  0.6969  1.5416
 8360TIP3   OH225024   5.230   0.383   3.442 -0.1351  0.1595  0.2652
 8360TIP3    H125025   5.235   0.406   3.349  0.5303 -3.1213 -0.5809
 8360TIP3    H225026   5.147   0.337   3.451 -0.0969  0.2719  1.2657
 8361TIP3   OH225027   2.101   7.762   4.930 -0.5536  0.0176  0.1559
 8361TIP3    H125028   2.172   7.701   4.946 -0.2930  0.2006 -0.3100
 8361TIP3    H225029   2.030   7.707   4.897 -0.2421  0.0044 -0.4817
 8362TIP3   OH225030   3.150   5.531   2.535 -0.4656  0.2259 -0.3489
 8362TIP3    H125031   3.231   5.577   2.512 -0.6743  1.3248  1.0763
 8362TIP3    H225032   3.153   5.451   2.483  1.2699  0.5176 -0.7379
 8363TIP3   OH225033   1.818   7.298   2.025  0.2469  0.3493  0.1707
 8363TIP3    H125034   1.860   7.213   2.039 -0.4894  0.0021  0.2779
 8363TIP3    H225035   1.752   7.304   2.094 -1.2711 -0.0029 -1.2168
 8364TIP3   OH225036   1.405   7.912   5.949  0.4363 -0.8893 -0.7065
 8364TIP3    H125037   1.445   7.847   6.007  0.0545  0.4363  1.0920
 8364TIP3    H225038   1.478   7.968   5.923  0.3353 -0.5357 -0.2268
 8365TIP3   OH225039   2.159   7.986   5.094 -0.9347  0.3160  0.2059
 8365TIP3    H125040   2.115   7.906   5.063  1.8291 -1.6861  1.2929
 8365TIP3    H225041   2.169   7.973   5.188  0.4165  1.5096  0.2404
 8366TIP3   OH225042   2.974   5.155   3.575  0.3232 -0.1263 -0.7379
 8366TIP3    H125043   3.059   5.142   3.533  1.0642 -0.2221  0.7353
 8366TIP3    H225044   2.975   5.247   3.603  0.1586 -0.2664 -0.2666
 8367TIP3   OH225045   4.008   5.924   5.307  0.2510 -0.1901 -0.7425
 8367TIP3    H125046   4.098   5.912   5.340  0.2092  0.1106 -0.5127
 8367TIP3    H225047   3.994   6.019   5.310 -0.1147 -0.2447 -0.6660
 8368TIP3   OH225048   1.947   5.298   4.144 -0.0592  0.3074 -0.8661
 8368TIP3    H125049   1.993   5.215   4.141 -1.3963 -0.5001  0.4395
 8368TIP3    H225050   1.861   5.280   4.105 -0.9686  0.6500  0.9248
 8369TIP3   OH225051   1.340   3.311   3.755 -0.3138  0.0806 -0.2748
 8369TIP3    H125052   1.291   3.383   3.794  0.2690  0.5392 -0.3714
 8369TIP3    H225053   1.371   3.347   3.671  0.1445 -0.2154 -0.2315
 8370TIP3   OH225054   1.673   5.492   4.237  0.3618  0.2182  0.2415
 8370TIP3    H125055   1.700   5.497   4.145 -0.6834  0.4588 -0.0589
 8370TIP3    H225056   1.607   5.561   4.246  1.0143  0.7100  1.3684
 8371TIP3   OH225057   2.156   3.694   4.662  0.2155  0.1458  0.0729
 8371TIP3    H125058   2.137   3.751   4.736  1.0198  2.1316 -1.2072
 8371TIP3    H225059   2.237   3.650   4.686 -1.4120 -1.9898  1.8998
 8372TIP3   OH225060   2.313   5.831   3.438  0.2289  0.7296  0.1138
 8372TIP3    H125061   2.382   5.775   3.403 -1.2621 -0.4062 -1.1341
 8372TIP3    H225062   2.325   5.915   3.394  0.7554  0.5044 -0.1766
 8373TIP3   OH225063   2.254   4.203   3.388 -0.0633  0.5451 -0.3883
 8373TIP3    H125064   2.216   4.291   3.376 -0.5229  0.7841  2.6262
 8373TIP3    H225065   2.179   4.145   3.392  0.1606  0.2805 -0.0923
 8374TIP3   OH225066   1.562   7.312   4.462  0.0248 -0.3408  0.1780
 8374TIP3    H125067   1.644   7.360   4.479 -1.1336  2.1844 -1.0501
 8374TIP3    H225068   1.585   7.250   4.393  1.1231 -0.2588  0.4538
 8375TIP3   OH225069   0.289   6.108   2.568  0.7933 -0.1094 -0.3607
 8375TIP3    H125070   0.253   6.143   2.650 -0.4795  0.7057 -1.2491
 8375TIP3    H225071   0.262   6.017   2.566 -0.5013  0.2730 -0.6035
 8376TIP3   OH225072   2.620   4.334   3.674  0.2894  0.2437 -0.3479
 8376TIP3    H125073   2.618   4.407   3.612  2.0359 -0.5661 -1.4049
 8376TIP3    H225074   2.543   4.282   3.653  0.0090  0.8247 -0.7708
 8377TIP3   OH225075   1.914   7.657   4.748 -0.1393 -0.2007  1.0067
 8377TIP3    H125076   1.972   7.598   4.700 -0.8973 -0.1111 -0.0275
 8377TIP3    H225077   1.843   7.599   4.780 -0.5113  0.0254  0.5934
 8378TIP3   OH225078   2.768   5.105   2.716 -0.8082  0.1549 -0.0967
 8378TIP3    H125079   2.754   5.159   2.794  1.9894  1.4626 -0.4249
 8378TIP3    H225080   2.755   5.164   2.642 -2.2879 -0.7866 -0.6144
 8379TIP3   OH225081   3.798   6.289   5.119 -0.2506 -0.9028  0.4830
 8379TIP3    H125082   3.734   6.251   5.058 -0.5147  0.6894 -0.2570
 8379TIP3    H225083   3.845   6.354   5.067 -1.6195  1.6926  2.3666
 8380TIP3   OH225084   1.488   4.022   6.687 -0.0627 -0.3394  0.6815
 8380TIP3    H125085   1.466   4.064   6.770 -0.2572 -1.2147  1.0740
 8380TIP3    H225086   1.584   4.019   6.686  0.0524  2.3059 -0.4479
 8381TIP3   OH225087   1.571   5.246   3.094 -0.4642 -0.1169 -0.0761
 8381TIP3    H125088   1.614   5.248   3.179 -0.4393 -1.9737 -0.0327
 8381TIP3    H225089   1.549   5.154   3.080 -2.1297  0.4293 -1.2462
 8382TIP3   OH225090   3.974   3.755   4.621 -0.1782  0.1419 -0.3131
 8382TIP3    H125091   3.960   3.820   4.689 -3.1169 -1.7067  0.9340
 8382TIP3    H225092   4.067   3.731   4.628 -0.0946  1.0978  1.9862
 8383TIP3   OH225093   3.125   5.968   2.668  0.0731 -0.7461 -0.0689
 8383TIP3    H125094   3.062   5.989   2.600 -0.3569 -2.6759 -0.2901
 8383TIP3    H225095   3.208   6.004   2.636 -0.4044 -0.4327 -0.9584
 8384TIP3   OH225096   4.257   5.813   3.346 -0.6239  0.4643 -0.9286
 8384TIP3    H125097   4.216   5.898   3.364  1.5153  1.5781 -1.0393
 8384TIP3    H225098   4.308   5.827   3.266 -2.0016 -1.5866 -2.2019
 8385TIP3   OH225099   3.398   6.697   4.642 -0.0173 -0.2655 -1.1588
 8385TIP3    H125100   3.465   6.753   4.680 -0.9091 -0.0219  0.1161
 8385TIP3    H225101   3.393   6.622   4.702  1.8780 -2.2252 -3.3891
 8386TIP3   OH225102   2.448   6.672   4.211 -0.4729 -0.2578  0.0847
 8386TIP3    H125103   2.365   6.644   4.173 -0.5638  0.5056 -0.2923
 8386TIP3    H225104   2.488   6.592   4.245  0.6579 -1.3268 -3.5990
 8387TIP3   OH225105   4.895   4.142   2.827 -0.1167 -0.1134 -0.3771
 8387TIP3    H125106   4.964   4.208   2.818 -1.2344  1.3036  1.1709
 8387TIP3    H225107   4.939   4.067   2.867  1.2113 -0.4423 -2.3589
 8388TIP3   OH225108   3.463   4.750   4.083  0.3627 -0.3702  0.0415
 8388TIP3    H125109   3.420   4.675   4.123  0.1943 -0.1157  0.3442
 8388TIP3    H225110   3.500   4.798   4.157 -0.3128  0.3299 -0.0730
 8389TIP3   OH225111   4.707   5.821   1.969  0.1882 -0.0204 -0.7548
 8389TIP3    H125112   4.707   5.787   1.879 -0.7025  0.9650 -1.1358
 8389TIP3    H225113   4.799   5.820   1.994  0.3973 -0.7479 -1.5070
 8390TIP3   OH225114   2.685   6.073   4.210  0.1265 -0.0915 -0.1031
 8390TIP3    H125115   2.761   6.107   4.163  0.0441  2.4563  1.4843
 8390TIP3    H225116   2.645   6.151   4.249 -1.4662 -1.7681  1.7056
 8391TIP3   OH225117   4.221   7.109   3.827 -0.0503 -0.0835 -0.3451
 8391TIP3    H125118   4.143   7.144   3.871  1.2135  0.5363  1.4571
 8391TIP3    H225119   4.188   7.075   3.743 -2.1635  0.6340  0.1621
 8392TIP3   OH225120   7.254   1.477   4.831  0.1099  0.3010  0.0432
 8392TIP3    H125121   7.344   1.457   4.855  0.1534  0.5563  0.0957
 8392TIP3    H225122   7.241   1.568   4.859  0.0232  0.4566 -0.4974
 8393TIP3   OH225123   5.543   4.737   3.184  0.2040 -0.3582  0.2358
 8393TIP3    H125124   5.486   4.670   3.223  0.3011 -1.8138 -2.0136
 8393TIP3    H225125   5.625   4.729   3.232 -0.0763 -1.2345  0.5859
 8394TIP3   OH225126   2.937   4.589   5.028  0.2168 -0.0063  0.1162
 8394TIP3    H125127   2.888   4.515   4.992  1.2997  0.0487 -1.4874
 8394TIP3    H225128   2.889   4.666   4.998 -2.0057 -0.0236  3.3391
 8395TIP3   OH225129   3.770   5.552   1.777 -0.4804  0.0156  0.3441
 8395TIP3    H125130   3.697   5.497   1.750  0.5217 -0.5860 -1.1762
 8395TIP3    H225131   3.780   5.616   1.707  1.0555 -0.4938  0.0793
 8396TIP3   OH225132   5.312   6.226   3.305  0.4416  0.2549 -0.1453
 8396TIP3    H125133   5.391   6.280   3.317  1.0466 -0.8729  1.0421
 8396TIP3    H225134   5.279   6.251   3.219  1.0460  2.0984  0.1352
 8397TIP3   OH225135   3.371   7.484   4.324  0.4937 -0.2555  0.0316
 8397TIP3    H125136   3.401   7.502   4.235  0.6012 -0.1803  0.0841
 8397TIP3    H225137   3.289   7.532   4.332  0.2492 -0.6304 -0.1811
 8398TIP3   OH225138   4.208   5.818   4.400  0.4770  0.4967  0.0653
 8398TIP3    H125139   4.182   5.747   4.459 -1.2601  1.7110  0.7728
 8398TIP3    H225140   4.191   5.783   4.312  1.4114 -0.6558  0.3318
 8399TIP3   OH225141   5.818   6.608   6.844  0.1604  0.1686 -0.5055
 8399TIP3    H125142   5.796   6.659   6.922 -0.4221 -0.1997 -0.4280
 8399TIP3    H225143   5.738   6.610   6.791  0.7146  0.8553 -1.3385
 8400TIP3   OH225144   4.226   5.498   4.655  0.5295  1.1153 -0.1984
 8400TIP3    H125145   4.207   5.509   4.748 -0.6421 -0.5841 -0.2087
 8400TIP3    H225146   4.314   5.533   4.644 -0.0125  2.9665  1.1994
 8401TIP3   OH225147   4.297   6.072   3.664 -0.3758  0.2975  0.2358
 8401TIP3    H125148   4.283   6.114   3.580 -0.2767 -0.0059  0.0652
 8401TIP3    H225149   4.392   6.063   3.671 -0.4231 -0.5537 -0.0642
 8402TIP3   OH225150   2.160   4.731   4.333  0.1559 -0.2657 -0.0829
 8402TIP3    H125151   2.192   4.657   4.281  2.8198  0.1836  0.8104
 8402TIP3    H225152   2.134   4.796   4.268  3.8974  0.4799 -0.9936
 8403TIP3   OH225153   4.636   6.861   1.877  0.4225 -0.2283 -0.0947
 8403TIP3    H125154   4.609   6.848   1.968 -1.5989  3.3961 -0.1117
 8403TIP3    H225155   4.724   6.897   1.883  1.1128 -1.9100  0.3068
 8404TIP3   OH225156   2.728   7.570   5.207 -0.0413  0.4566  0.0622
 8404TIP3    H125157   2.808   7.600   5.164 -0.8823 -0.3598 -2.1496
 8404TIP3    H225158   2.670   7.646   5.205 -0.0474  0.4462 -0.1622
 8405TIP3   OH225159   4.713   5.858   5.238 -0.4782  0.0474  0.3005
 8405TIP3    H125160   4.655   5.806   5.293 -1.3835 -1.5795 -2.0829
 8405TIP3    H225161   4.745   5.797   5.172  1.2829  1.7212 -0.4636
 8406TIP3   OH225162   3.037   5.801   3.535  0.1392 -0.7595 -0.3426
 8406TIP3    H125163   3.015   5.742   3.462 -0.5797 -3.0223  1.6286
 8406TIP3    H225164   3.105   5.754   3.583  1.4186  1.2278 -0.1646
 8407TIP3   OH225165   8.053   0.617   3.976 -0.3573 -0.7504  0.5592
 8407TIP3    H125166   8.129   0.582   4.023  0.0969 -0.9844 -0.3280
 8407TIP3    H225167   8.014   0.540   3.935  0.1658 -0.3462 -0.7288
 8408TIP3   OH225168   3.598   5.542   3.910 -0.1429  0.5872  0.0951
 8408TIP3    H125169   3.602   5.494   3.993  0.5505 -0.6740 -0.6429
 8408TIP3    H225170   3.514   5.517   3.872  0.1561  0.0792 -0.2252
 8409TIP3   OH225171   3.215   3.442   2.725  0.2432 -0.5489  0.1867
 8409TIP3    H125172   3.184   3.381   2.792  0.3492 -0.2090  0.5461
 8409TIP3    H225173   3.256   3.512   2.774 -2.4715  1.3098 -0.0591
 8410TIP3   OH225174   4.185   7.682   4.202  0.0750  0.1237  0.1833
 8410TIP3    H125175   4.275   7.665   4.229  0.1000  0.4585  0.3040
 8410TIP3    H225176   4.139   7.706   4.282  0.1609  1.1540 -0.0651
 8411TIP3   OH225177   5.850   0.055   4.545 -0.3923  0.5034  0.0339
 8411TIP3    H125178   5.766   0.082   4.509 -1.2003  0.0614  1.5347
 8411TIP3    H225179   5.831  -0.027   4.592  0.9585  0.1609 -0.0073
 8412TIP3   OH225180   4.524   6.195   4.473  0.0198  0.4361  0.0730
 8412TIP3    H125181   4.481   6.115   4.503  0.2586  0.1645 -0.3020
 8412TIP3    H225182   4.500   6.202   4.381  1.4004 -0.1358 -0.3421
 8413TIP3   OH225183   4.555   3.483   4.170 -0.2763 -0.3653 -0.1342
 8413TIP3    H125184   4.568   3.398   4.130  0.7617 -0.2915  0.0294
 8413TIP3    H225185   4.493   3.528   4.112  0.4273 -0.6307 -1.1160
 8414TIP3   OH225186   1.562   5.017   2.840 -0.1822 -0.1628  0.5627
 8414TIP3    H125187   1.511   4.951   2.793  0.5931 -0.9156  0.7579
 8414TIP3    H225188   1.542   5.001   2.932  0.5292 -0.5664  0.6476
 8415TIP3   OH225189   4.558   6.939   4.401 -0.1993  0.0893 -0.6513
 8415TIP3    H125190   4.483   6.987   4.365  0.4643  0.3929 -1.6525
 8415TIP3    H225191   4.634   6.977   4.357  0.3741 -1.6218 -1.1868
 8416TIP3   OH225192   2.781   5.280   2.526 -0.5459  0.4292 -0.0050
 8416TIP3    H125193   2.826   5.354   2.564 -1.5172  0.3808  1.2672
 8416TIP3    H225194   2.775   5.301   2.433  0.8087  1.0849  0.0446
 8417TIP3   OH225195   3.550   3.790   5.344 -0.3765  0.5203 -0.5143
 8417TIP3    H125196   3.538   3.817   5.253 -0.0828 -0.4645 -0.8583
 8417TIP3    H225197   3.535   3.869   5.395  1.0791  1.4745 -1.5224
 8418TIP3   OH225198   3.816   4.769   3.661  0.5466  0.3834 -0.2308
 8418TIP3    H125199   3.866   4.702   3.614 -0.2493  0.2773 -0.9313
 8418TIP3    H225200   3.763   4.719   3.723 -1.2030  0.2252 -1.8148
 8419TIP3   OH225201   4.599   7.472   4.957  0.1583 -0.2570 -0.4311
 8419TIP3    H125202   4.646   7.432   5.031  1.7801  1.6181 -0.4221
 8419TIP3    H225203   4.634   7.427   4.880  1.5343  0.6835 -0.3713
 8420TIP3   OH225204   3.771   7.571   4.607 -0.0596 -0.0542 -0.0612
 8420TIP3    H125205   3.851   7.573   4.659 -0.5584  0.2518  0.7027
 8420TIP3    H225206   3.736   7.483   4.619 -0.4831  0.1955  0.6160
 8421TIP3   OH225207   3.622   7.633   4.155  0.4395 -0.2696 -0.9127
 8421TIP3    H125208   3.541   7.608   4.111  0.5013 -0.8738 -0.6983
 8421TIP3    H225209   3.670   7.685   4.091 -0.3050  0.4466 -0.8927
 8422TIP3   OH225210   5.489   0.309   3.684 -0.4614 -0.0322  0.5875
 8422TIP3    H125211   5.472   0.285   3.593 -1.2519  2.4978  0.0253
 8422TIP3    H225212   5.580   0.337   3.686  0.1545 -1.9314  1.0360
 8423TIP3   OH225213   4.366   6.747   2.358  0.5010 -0.3486 -0.1395
 8423TIP3    H125214   4.319   6.667   2.335  1.1191 -0.5540 -0.7151
 8423TIP3    H225215   4.456   6.731   2.328  0.3953  0.9689 -1.2072
 8424TIP3   OH225216   3.294   4.575   4.202 -0.1680  0.5295  0.3615
 8424TIP3    H125217   3.250   4.493   4.181  0.2240 -0.1217  2.0493
 8424TIP3    H225218   3.223   4.640   4.206 -0.5370  0.1781 -0.4181
 8425TIP3   OH225219   6.458   1.231   5.036 -0.0094 -0.8663  0.0143
 8425TIP3    H125220   6.484   1.157   5.091 -1.0636 -1.3828 -0.1742
 8425TIP3    H225221   6.364   1.220   5.024  0.0700 -0.2859 -1.2081
 8426TIP3   OH225222   2.728   5.837   6.323 -0.4080  0.3137  0.4749
 8426TIP3    H125223   2.647   5.807   6.282 -0.1778  0.5194 -0.1474
 8426TIP3    H225224   2.776   5.880   6.252  1.1341 -1.5343  0.3274
 8427TIP3   OH225225   5.401   6.077   3.728  0.9643 -0.0794  0.0606
 8427TIP3    H125226   5.449   6.117   3.656  0.8650 -0.9727 -0.5039
 8427TIP3    H225227   5.376   6.151   3.784  0.0132  0.7468 -1.4199
 8428TIP3   OH225228   4.004   5.663   3.418 -0.5721  0.4730 -0.4522
 8428TIP3    H125229   4.091   5.702   3.415 -0.9547  1.4224  0.6955
 8428TIP3    H225230   4.005   5.608   3.496 -1.5256  1.7210  0.4367
 8429TIP3   OH225231   6.058   5.380   2.503  0.1019 -0.6649  0.0550
 8429TIP3    H125232   5.999   5.381   2.578  0.3764 -1.2043  0.2780
 8429TIP3    H225233   6.048   5.292   2.465 -3.2362  0.9188 -3.0918
 8430TIP3   OH225234   0.868   2.699   0.767  0.0201  0.0932  0.4169
 8430TIP3    H125235   0.878   2.611   0.803  0.2103 -0.3003 -0.5876
 8430TIP3    H225236   0.894   2.757   0.839  2.3395 -0.7086  0.2648
 8431TIP3   OH225237   2.018   6.551   3.296 -0.0542 -0.1896  0.5020
 8431TIP3    H125238   2.082   6.523   3.232 -0.1698 -1.0469  0.7510
 8431TIP3    H225239   1.937   6.507   3.269 -0.0797 -0.6367  1.2775
 8432TIP3   OH225240   6.475   0.128   3.180 -0.0512  0.4761  0.4667
 8432TIP3    H125241   6.403   0.158   3.125  1.1505 -0.3978 -1.6361
 8432TIP3    H225242   6.457   0.166   3.266 -2.2215  1.4690 -0.3947
 8433TIP3   OH225243   4.639   5.043   4.105 -0.0322  0.4834  0.2233
 8433TIP3    H125244   4.724   5.000   4.114 -0.5976 -0.7066  0.0062
 8433TIP3    H225245   4.590   5.015   4.182 -0.4901  0.5513 -0.0399
 8434TIP3   OH225246   2.149   7.294   4.090 -0.3075  0.0398 -0.0078
 8434TIP3    H125247   2.057   7.276   4.069 -0.3917  1.2040 -0.6635
 8434TIP3    H225248   2.189   7.207   4.098 -1.0669 -0.4734 -1.5277
 8435TIP3   OH225249   4.137   4.359   3.814 -1.0076 -0.9427  0.5510
 8435TIP3    H125250   4.151   4.330   3.903  1.2622 -2.6964 -0.3297
 8435TIP3    H225251   4.115   4.279   3.765 -1.6618 -0.1027 -0.5682
 8436TIP3   OH225252   4.219   5.391   4.243 -0.0131  0.4249  0.5497
 8436TIP3    H125253   4.130   5.416   4.268 -0.7306 -0.6935 -0.8133
 8436TIP3    H225254   4.268   5.474   4.242 -1.1347  1.0972  0.8996
 8437TIP3   OH225255   6.445   0.328   4.022  0.4793 -0.8000 -0.0630
 8437TIP3    H125256   6.518   0.370   3.975 -0.8325 -1.3764 -2.6572
 8437TIP3    H225257   6.474   0.238   4.035  0.9440 -0.5776  0.5409
 8438TIP3   OH225258   4.720   5.828   5.846 -0.1404 -0.3012 -0.8090
 8438TIP3    H125259   4.739   5.890   5.917 -1.2110 -1.6705  0.7184
 8438TIP3    H225260   4.735   5.742   5.885 -1.0958 -1.0848 -2.1419
 8439TIP3   OH225261   3.741   5.279   3.543  0.4690 -0.4352  0.0953
 8439TIP3    H125262   3.668   5.338   3.562  0.4888 -0.2379 -0.4275
 8439TIP3    H225263   3.801   5.290   3.617  0.9129  0.8971 -0.4551
 8440TIP3   OH225264   3.162   2.841   5.230 -0.1489  0.2581 -0.3400
 8440TIP3    H125265   3.251   2.805   5.235  0.0065  0.7349  0.4008
 8440TIP3    H225266   3.174   2.935   5.241 -0.9711  0.0943  2.4815
 8441TIP3   OH225267   4.780   5.084   4.416  0.5660  0.6456 -0.0595
 8441TIP3    H125268   4.830   5.023   4.469  0.5513 -0.8422 -1.7237
 8441TIP3    H225269   4.705   5.033   4.384  0.5360  1.5225 -1.4428
 8442TIP3   OH225270   3.799   6.783   5.589 -0.4404  0.3934  0.2937
 8442TIP3    H125271   3.740   6.709   5.572  1.7001 -1.0084 -1.2888
 8442TIP3    H225272   3.772   6.849   5.525 -2.0458  0.8470  1.3918
 8443TIP3   OH225273   4.722   7.770   3.769 -0.2949  0.5094 -0.1359
 8443TIP3    H125274   4.703   7.709   3.840  0.7397 -0.8433 -0.9790
 8443TIP3    H225275   4.637   7.783   3.726 -0.7075  0.4165  0.6454
 8444TIP3   OH225276   3.933   4.610   4.023 -0.2951 -0.0087 -0.2190
 8444TIP3    H125277   4.012   4.560   4.002 -1.0375 -1.5088  0.4649
 8444TIP3    H225278   3.908   4.580   4.111 -0.3401  2.1388  0.5464
 8445TIP3   OH225279   2.908   6.987   5.542  0.1565 -0.0053  0.1847
 8445TIP3    H125280   2.860   7.066   5.568  1.3988  0.2386  1.7475
 8445TIP3    H225281   2.941   6.951   5.623  1.1608 -1.1444 -0.7192
 8446TIP3   OH225282   5.268   2.742   5.062 -0.2680  0.1103  0.1989
 8446TIP3    H125283   5.351   2.786   5.045 -0.9508  1.5482  0.5921
 8446TIP3    H225284   5.203   2.812   5.066 -1.3803 -0.9291  0.6985
 8447TIP3   OH225285   3.950   5.532   4.582  0.1686 -0.7282  0.4884
 8447TIP3    H125286   4.041   5.515   4.604  0.3561 -0.0964  0.2030
 8447TIP3    H225287   3.953   5.571   4.494 -0.3405 -0.2848  0.6679
 8448TIP3   OH225288   3.761   7.534   5.296  0.5293 -0.1709 -0.3373
 8448TIP3    H125289   3.754   7.451   5.247  0.7077 -0.5960  0.3586
 8448TIP3    H225290   3.721   7.599   5.238 -1.6818 -1.1404  0.0570
 8449TIP3   OH225291   5.522   5.332   3.619 -0.0560 -0.0933  0.4155
 8449TIP3    H125292   5.499   5.415   3.661 -0.5844 -0.7414  1.4231
 8449TIP3    H225293   5.612   5.344   3.590 -0.6708  1.4289 -0.9469
 8450TIP3   OH225294   3.616   3.818   5.804 -0.0585 -0.4617 -0.0306
 8450TIP3    H125295   3.586   3.846   5.717  1.0946  1.9449  0.3066
 8450TIP3    H225296   3.539   3.821   5.859 -0.1822  0.9160 -0.2828
 8451TIP3   OH225297   3.072   4.262   4.245 -0.1137 -0.0025  0.6972
 8451TIP3    H125298   3.043   4.344   4.284 -0.9331  0.0483 -0.0028
 8451TIP3    H225299   3.133   4.225   4.309 -0.1364  0.8944  1.2490
 8452TIP3   OH225300   1.769   5.558   3.983 -0.5240 -0.2585  0.2796
 8452TIP3    H125301   1.680   5.584   3.960  0.0403  2.9344  1.3531
 8452TIP3    H225302   1.824   5.622   3.938  1.1725 -1.3505  0.7691
 8453TIP3   OH225303   2.929   6.008   2.859 -0.4052 -0.0747  0.2408
 8453TIP3    H125304   2.899   5.918   2.847  0.6117 -0.5369  1.1050
 8453TIP3    H225305   3.011   6.013   2.810 -1.1642  0.7901 -0.9693
 8454TIP3   OH225306   2.348   5.766   4.029 -0.2217 -0.4126 -0.5805
 8454TIP3    H125307   2.300   5.846   4.007 -0.6761 -0.0647  1.5567
 8454TIP3    H225308   2.283   5.696   4.020 -0.1723 -0.3878 -1.1661
 8455TIP3   OH225309   3.443   5.256   1.993  0.1031 -0.5369 -0.4110
 8455TIP3    H125310   3.369   5.292   1.944  0.0361  1.8413  1.3221
 8455TIP3    H225311   3.402   5.194   2.054 -0.3121 -0.3197 -0.4604
 8456TIP3   OH225312   3.916   5.431   3.289 -0.2048 -0.3266 -0.4817
 8456TIP3    H125313   3.965   5.350   3.301  0.1763 -0.3580 -2.1482
 8456TIP3    H225314   3.956   5.493   3.351  1.3277 -0.6080 -1.1774
 8457TIP3   OH225315   1.554   5.521   5.342 -0.6560 -0.2445  0.2366
 8457TIP3    H125316   1.529   5.525   5.250  0.1386  0.3987  0.0424
 8457TIP3    H225317   1.474   5.541   5.390 -1.0059 -0.3134 -0.3199
 8458TIP3   OH225318   3.930   5.202   2.783 -0.1040  0.1874 -0.3936
 8458TIP3    H125319   3.903   5.172   2.870  0.2134  0.2262 -0.2803
 8458TIP3    H225320   3.870   5.274   2.763 -0.0800  0.2796 -0.1390
 8459TIP3   OH225321   2.172   6.189   2.018  0.4604  0.1096 -0.2991
 8459TIP3    H125322   2.129   6.262   1.973  0.7417 -0.5182 -1.5835
 8459TIP3    H225323   2.167   6.116   1.957 -0.5122 -1.1815  1.3133
 8460TIP3   OH225324   4.759   7.736   1.125 -0.1581 -0.1994  0.1306
 8460TIP3    H125325   4.691   7.709   1.187 -0.7951 -2.0146 -1.3315
 8460TIP3    H225326   4.839   7.695   1.159 -0.2734 -0.1880  0.4197
 8461TIP3   OH225327   4.746   6.456   3.539 -0.0971  0.3532  0.1553
 8461TIP3    H125328   4.794   6.386   3.582  0.9406  1.4166  0.7392
 8461TIP3    H225329   4.657   6.449   3.573 -0.1977 -1.1320 -0.3503
 8462TIP3   OH225330   3.141   6.774   5.148 -0.3490  0.1157 -0.3966
 8462TIP3    H125331   3.107   6.860   5.172  1.2853  0.8819 -0.7552
 8462TIP3    H225332   3.063   6.718   5.143 -1.7025  2.0702 -2.3531
 8463TIP3   OH225333   2.880   4.255   3.665 -0.5328 -0.4392  0.5753
 8463TIP3    H125334   2.785   4.260   3.652 -0.1214  0.4678 -2.4520
 8463TIP3    H225335   2.903   4.338   3.705 -0.8235  0.0358 -0.2224
 8464TIP3   OH225336   4.546   5.571   3.778 -0.1569 -0.4808 -0.6194
 8464TIP3    H125337   4.614   5.522   3.825 -0.1905 -1.4064 -1.5273
 8464TIP3    H225338   4.593   5.645   3.739  0.8445 -2.5001 -3.3824
 8465TIP3   OH225339   2.932   3.226   4.047 -0.1540 -0.2909 -0.4016
 8465TIP3    H125340   3.015   3.180   4.039 -0.4812 -0.7867 -0.9712
 8465TIP3    H225341   2.879   3.192   3.975 -0.4225  0.9127 -0.7835
 8466TIP3   OH225342   4.689   7.785   5.518 -0.2623 -0.0930 -0.2619
 8466TIP3    H125343   4.651   7.761   5.433 -1.5813  0.2212  0.2266
 8466TIP3    H225344   4.767   7.836   5.495  0.7606 -2.0748 -1.2756
 8467TIP3   OH225345   4.788   5.100   1.665 -0.1447 -0.0382  0.0477
 8467TIP3    H125346   4.881   5.098   1.644  0.3548  1.0409  2.0172
 8467TIP3    H225347   4.750   5.159   1.600  0.2276 -1.8067 -1.8250
 8468TIP3   OH225348   3.252   5.802   3.814  0.2116 -0.7012 -0.0695
 8468TIP3    H125349   3.267   5.746   3.890  0.0638 -0.4626  0.1359
 8468TIP3    H225350   3.255   5.743   3.739 -1.8766 -1.2930  0.2829
 8469TIP3   OH225351   3.070   5.080   4.384  0.0764  0.7846  0.1363
 8469TIP3    H125352   3.025   5.156   4.349  0.1101  0.8439  0.2226
 8469TIP3    H225353   3.017   5.052   4.458 -0.5516  0.0415 -0.5852
 8470TIP3   OH225354   2.909   5.066   4.662  0.2646 -0.2283  0.1459
 8470TIP3    H125355   3.000   5.068   4.691  0.2590 -0.0898  0.1528
 8470TIP3    H225356   2.862   5.118   4.727 -0.0750 -1.6680  1.0687
 8471TIP3   OH225357   3.373   6.393   3.271  0.6381  0.0239  0.2729
 8471TIP3    H125358   3.390   6.434   3.186 -0.8295  0.1857  0.0315
 8471TIP3    H225359   3.346   6.303   3.250 -0.2270  0.2146  0.5141
 8472TIP3   OH225360   4.315   4.223   4.805 -0.1301  0.4382 -0.6823
 8472TIP3    H125361   4.402   4.181   4.806 -0.0131  0.6902 -0.1644
 8472TIP3    H225362   4.263   4.172   4.866  0.2928  1.6362  0.7005
 8473TIP3   OH225363   3.068   6.233   6.011  0.4126  0.1970  0.4401
 8473TIP3    H125364   3.066   6.139   5.991  3.4905 -0.1976  1.6406
 8473TIP3    H225365   3.059   6.238   6.106  1.5354  1.0096  0.5207
 8474TIP3   OH225366   4.001   7.646   5.431  0.4072  0.1118 -0.3889
 8474TIP3    H125367   3.935   7.623   5.366  0.3373 -0.1987 -0.2101
 8474TIP3    H225368   3.996   7.576   5.496  1.0438 -0.0063 -0.4675
 8475TIP3   OH225369   6.756   6.061   6.130 -0.1012 -0.6998 -0.3946
 8475TIP3    H125370   6.689   6.002   6.163 -1.0718  0.7121  0.1849
 8475TIP3    H225371   6.721   6.095   6.048  0.0972 -0.3280 -0.3307
 8476TIP3   OH225372   5.355   6.736   3.431  0.2895  0.5860  0.0277
 8476TIP3    H125373   5.298   6.689   3.370 -0.6062  0.5536  0.8794
 8476TIP3    H225374   5.441   6.735   3.389  0.4587 -2.4703  0.3768
 8477TIP3   OH225375   6.235   7.611   2.918  0.0767  0.6576  0.3006
 8477TIP3    H125376   6.274   7.544   2.862  1.2601  1.1694  0.4947
 8477TIP3    H225377   6.141   7.601   2.905  0.2786 -0.3343 -0.4907
 8478TIP3   OH225378   6.136   0.968   3.635  0.4012  0.1483  0.2952
 8478TIP3    H125379   6.122   1.062   3.643 -0.1802 -0.0084  1.2559
 8478TIP3    H225380   6.229   0.956   3.653  0.4102  0.5044  0.5005
 8479TIP3   OH225381   2.000   8.002   3.277  0.5439  0.1554  0.4285
 8479TIP3    H125382   1.991   7.969   3.366 -1.3302 -2.0706 -0.5345
 8479TIP3    H225383   1.911   8.001   3.242  1.0643  2.2459 -1.0571
 8480TIP3   OH225384   4.159   5.959   2.925 -0.5848 -0.1108 -0.3391
 8480TIP3    H125385   4.112   5.999   2.852  2.4477 -0.5732 -2.6486
 8480TIP3    H225386   4.173   6.030   2.987 -0.2336  1.1165 -1.8064
 8481TIP3   OH225387   4.573   7.594   3.947  0.0842 -0.0994 -0.0692
 8481TIP3    H125388   4.631   7.578   4.022  0.2683  0.3594 -0.1146
 8481TIP3    H225389   4.487   7.564   3.976  0.1514  0.1040  0.3336
 8482TIP3   OH225390   2.247   7.818   3.960 -0.5998 -0.1145  0.2011
 8482TIP3    H125391   2.327   7.842   4.006 -0.1858 -0.1259 -0.5039
 8482TIP3    H225392   2.229   7.728   3.988  0.1768 -0.4600 -0.3786
 8483TIP3   OH225393   2.452   5.448   2.538 -0.7907 -0.2535 -0.5322
 8483TIP3    H125394   2.477   5.355   2.545 -0.7587 -0.2899 -1.1585
 8483TIP3    H225395   2.362   5.451   2.570 -0.4077 -0.3188  0.5762
 8484TIP3   OH225396   4.030   6.720   1.570  0.1662  0.7881  0.2497
 8484TIP3    H125397   4.005   6.714   1.663  1.6946 -0.3266  0.6037
 8484TIP3    H225398   4.125   6.709   1.570  0.0923  0.0079 -1.5248
 8485TIP3   OH225399   3.465   7.645   5.601 -0.0060  0.5569  0.6684
 8485TIP3    H125400   3.558   7.628   5.587 -0.3195  1.2955 -2.9265
 8485TIP3    H225401   3.462   7.732   5.639  0.8109 -0.0093  2.0667
 8486TIP3   OH225402   4.025   6.418   4.549 -0.0440  0.2595  0.8232
 8486TIP3    H125403   3.993   6.477   4.481  1.9011 -0.2946 -0.6018
 8486TIP3    H225404   3.950   6.407   4.608 -1.0666  2.4907 -0.0065
 8487TIP3   OH225405   3.820   5.456   2.608 -0.2103 -0.5033  0.2685
 8487TIP3    H125406   3.869   5.536   2.591 -0.5381 -0.2603  0.4803
 8487TIP3    H225407   3.764   5.476   2.683 -0.3265 -0.9140  0.2974
 8488TIP3   OH225408   3.492   5.164   5.154  0.4127  0.0268 -0.0350
 8488TIP3    H125409   3.444   5.118   5.223 -0.3926  0.6677 -0.1645
 8488TIP3    H225410   3.567   5.202   5.199  2.0119 -2.7847 -0.2238
 8489TIP3   OH225411   4.892   0.962   4.104  0.4045  0.1505  0.1043
 8489TIP3    H125412   4.822   0.912   4.061 -0.3703 -0.0671  1.6106
 8489TIP3    H225413   4.940   1.002   4.031  0.4897 -2.0349 -1.0855
 8490TIP3   OH225414   4.400   0.008   3.781 -0.3798  0.5877  0.1981
 8490TIP3    H125415   4.421   0.101   3.794  3.2215 -0.1418  0.1664
 8490TIP3    H225416   4.429  -0.035   3.861 -2.7615 -0.4442  0.5362
 8491TIP3   OH225417   4.129   7.039   1.500  0.0802  0.0212  0.7418
 8491TIP3    H125418   4.127   6.966   1.563 -0.9910  0.2331  0.9607
 8491TIP3    H225419   4.116   6.998   1.415 -0.6249 -0.0490  0.8752
 8492TIP3   OH225420   2.856   7.215   3.515  0.0292  0.1820  0.2347
 8492TIP3    H125421   2.923   7.160   3.473 -1.3480 -1.2042 -0.1873
 8492TIP3    H225422   2.811   7.257   3.442  1.0002  1.8260  0.5547
 8493TIP3   OH225423   2.817   4.747   4.274  0.5784  0.2398 -0.1240
 8493TIP3    H125424   2.778   4.804   4.340  0.4998  0.9091 -0.7531
 8493TIP3    H225425   2.772   4.769   4.193  1.1478 -0.1092 -0.5380
 8494TIP3   OH225426   3.749   7.094   5.143  0.5652  0.8877  0.4097
 8494TIP3    H125427   3.704   7.044   5.076 -1.5232 -0.0540  2.4528
 8494TIP3    H225428   3.748   7.185   5.111  0.2830  0.3370 -1.1463
 8495TIP3   OH225429   1.827   6.334   2.011  0.5458  0.2153  0.0005
 8495TIP3    H125430   1.848   6.242   2.030 -0.6383 -0.0899 -0.1535
 8495TIP3    H225431   1.799   6.333   1.920 -2.3726  0.2399  0.8681
 8496TIP3   OH225432   6.141   0.044   3.273  0.2070  0.3203 -0.1286
 8496TIP3    H125433   6.196   0.120   3.296  1.0341 -0.1719 -0.4332
 8496TIP3    H225434   6.055   0.065   3.308  0.3769  1.5006 -0.3863
 8497TIP3   OH225435   3.464   4.274   5.583 -0.0739 -1.0070  0.2148
 8497TIP3    H125436   3.446   4.262   5.490 -0.1286 -0.7172  0.1885
 8497TIP3    H225437   3.553   4.240   5.595  0.7286  0.8412 -0.3316
 8498TIP3   OH225438   5.169   6.512   3.957  0.0281 -0.2021 -0.1077
 8498TIP3    H125439   5.200   6.567   4.029  0.6061  0.8028 -1.0989
 8498TIP3    H225440   5.128   6.437   3.999 -3.6413  2.4791  1.3359
 8499TIP3   OH225441   5.020   5.457   2.659 -0.2935 -0.4519 -0.4005
 8499TIP3    H125442   4.978   5.504   2.730  0.3735 -0.7539  0.2048
 8499TIP3    H225443   5.054   5.377   2.700 -0.4296 -0.9101 -1.1776
 8500TIP3   OH225444   2.229   6.667   5.180  0.6828 -0.3369  0.3147
 8500TIP3    H125445   2.243   6.587   5.231  0.6600 -0.2813  0.4101
 8500TIP3    H225446   2.155   6.646   5.123  0.2007 -0.1458  0.8582
 8501TIP3   OH225447   3.356   4.695   2.745 -0.0728  0.0151 -0.1861
 8501TIP3    H125448   3.419   4.657   2.806  0.3340 -0.5835 -0.9596
 8501TIP3    H225449   3.406   4.711   2.665 -1.1593 -1.6283 -1.2397
 8502TIP3   OH225450   4.882   5.543   4.576 -0.1610  0.0137 -0.6979
 8502TIP3    H125451   4.792   5.529   4.548 -0.5437 -0.6474  0.8428
 8502TIP3    H225452   4.928   5.464   4.548  0.5261  1.4040 -3.7396
 8503TIP3   OH225453   6.039   6.972   2.174 -0.0126 -0.4421 -0.0417
 8503TIP3    H125454   6.033   7.049   2.118 -1.8916  0.6049  1.5468
 8503TIP3    H225455   6.119   6.928   2.146  1.8027  2.7710 -0.1351
 8504TIP3   OH225456   3.657   6.868   4.712  0.0373  0.2097  0.3500
 8504TIP3    H125457   3.634   6.961   4.701  1.7525  0.6187  0.1086
 8504TIP3    H225458   3.685   6.840   4.625  1.1273 -0.0862  0.7900
 8505TIP3   OH225459   3.358   5.952   1.175 -0.3540  0.0583  0.0119
 8505TIP3    H125460   3.440   5.933   1.220 -0.6783 -0.1196  0.5296
 8505TIP3    H225461   3.297   5.976   1.244 -0.9313 -0.4840 -0.2978
 8506TIP3   OH225462   3.039   7.930   4.139  0.8729 -0.2803 -0.0921
 8506TIP3    H125463   3.045   7.980   4.057 -1.0017  1.1584  0.6059
 8506TIP3    H225464   3.095   7.977   4.200  0.2354  0.1570  0.1631
 8507TIP3   OH225465   2.812   3.617   3.601 -0.0833  0.4229 -1.0746
 8507TIP3    H125466   2.870   3.557   3.648 -3.4969 -1.0898  1.4057
 8507TIP3    H225467   2.833   3.704   3.636  0.7917 -0.0777 -0.3506
 8508TIP3   OH225468   6.787   0.111   4.068 -0.3492 -0.2506 -0.1522
 8508TIP3    H125469   6.872   0.107   4.024 -0.2868 -0.8442  0.0132
 8508TIP3    H225470   6.791   0.191   4.120 -0.1916  0.1351 -0.7456
 8509TIP3   OH225471   2.989   6.794   6.864 -0.5066  0.6240 -0.3188
 8509TIP3    H125472   2.963   6.708   6.831 -4.1492  1.6538 -0.4151
 8509TIP3    H225473   3.038   6.834   6.793 -0.3575 -0.6601 -0.9537
 8510TIP3   OH225474   5.532   6.891   5.513  0.0452  0.0597  0.0810
 8510TIP3    H125475   5.594   6.827   5.479  0.0855  0.1439 -0.0049
 8510TIP3    H225476   5.586   6.962   5.547  0.0941 -1.0911  2.5463
 8511TIP3   OH225477   2.030   5.808   2.110  0.1977 -0.1839 -0.2469
 8511TIP3    H125478   2.108   5.840   2.154 -1.8447 -0.5909  3.8561
 8511TIP3    H225479   2.053   5.718   2.084  0.6601 -0.7921  2.1697
 8512TIP3   OH225480   4.833   6.399   3.864 -0.1409  0.6143 -0.1197
 8512TIP3    H125481   4.812   6.323   3.809 -0.5661  0.3954  0.3448
 8512TIP3    H225482   4.828   6.366   3.954  0.1179  1.0830  0.0698
 8513TIP3   OH225483   5.274   5.715   3.235 -0.0417 -0.4687 -0.0354
 8513TIP3    H125484   5.282   5.659   3.312  1.1337 -0.1063  0.1211
 8513TIP3    H225485   5.247   5.800   3.270  0.9049 -0.1872  0.0399
 8514TIP3   OH225486   3.732   7.392   3.968 -0.6075 -0.2726 -0.1633
 8514TIP3    H125487   3.739   7.424   3.878 -0.5225 -0.6515 -0.2931
 8514TIP3    H225488   3.807   7.431   4.013  0.9161 -2.2338 -0.9199
 8515TIP3   OH225489   0.974   5.725   2.655  0.3335 -0.0412  0.3001
 8515TIP3    H125490   0.979   5.817   2.630 -0.6028  0.1909  0.9039
 8515TIP3    H225491   0.946   5.679   2.576  1.1482  0.1498 -0.0932
 8516TIP3   OH225492   4.808   7.886   6.093  0.3151  0.4765  0.4467
 8516TIP3    H125493   4.800   7.971   6.050  0.9424  0.5874  0.5510
 8516TIP3    H225494   4.770   7.824   6.030  0.9311  0.6780 -0.1293
 8517TIP3   OH225495   2.970   3.686   3.945 -0.1278 -0.4555  0.1350
 8517TIP3    H125496   2.936   3.766   3.904 -0.3948  0.2953  1.7593
 8517TIP3    H225497   3.000   3.632   3.872 -2.5301 -0.0748 -1.1993
 8518TIP3   OH225498   5.181   5.244   4.921 -0.2436  0.2903  0.3234
 8518TIP3    H125499   5.135   5.161   4.921 -0.8689  0.5032  4.8241
 8518TIP3    H225500   5.114   5.309   4.899  0.0857 -0.2757 -2.4664
 8519TIP3   OH225501   2.451   6.179   3.686  0.2578  0.1666  0.3831
 8519TIP3    H125502   2.465   6.221   3.602 -2.2349  1.7804  0.7325
 8519TIP3    H225503   2.505   6.229   3.747 -0.3783  0.9820  0.2794
 8520TIP3   OH225504   4.941   5.400   2.195  0.8204  0.1585 -0.3286
 8520TIP3    H125505   4.861   5.417   2.145  0.0553 -1.9195  0.1626
 8520TIP3    H225506   4.947   5.474   2.256 -0.8933  0.1536 -0.1388
 8521TIP3   OH225507   3.487   6.759   3.851  0.4920  0.3866  0.7948
 8521TIP3    H125508   3.430   6.708   3.793  0.4455  1.5462 -0.2129
 8521TIP3    H225509   3.428   6.803   3.912  0.4477  0.0544  0.9860
 8522TIP3   OH225510   3.456   6.902   2.065 -0.0138  0.6426 -0.4224
 8522TIP3    H125511   3.492   6.863   1.985  2.6745 -1.4341  1.6969
 8522TIP3    H225512   3.362   6.883   2.061  0.3669 -1.0451 -2.2371
 8523TIP3   OH225513   1.718   1.671   0.103 -0.4676  0.0271  0.2491
 8523TIP3    H125514   1.666   1.621   0.165 -0.9634  0.0678 -0.1253
 8523TIP3    H225515   1.806   1.670   0.138 -0.5063 -0.9744  0.3231
 8524TIP3   OH225516   3.851   5.081   3.365 -0.2521 -0.2623  0.4825
 8524TIP3    H125517   3.939   5.115   3.381 -0.2104 -0.0319 -0.2469
 8524TIP3    H225518   3.795   5.134   3.422  0.0648 -0.3720  0.9043
 8525TIP3   OH225519   3.603   6.592   3.611 -0.4360  0.0357  0.3454
 8525TIP3    H125520   3.522   6.553   3.577 -0.3105  0.1535 -0.0987
 8525TIP3    H225521   3.626   6.659   3.546 -0.3457  0.4620  0.8194
 8526TIP3   OH225522   6.436   0.283   6.333  0.1445  0.3860 -0.2544
 8526TIP3    H125523   6.435   0.200   6.286  0.0769  0.9663 -1.2808
 8526TIP3    H225524   6.509   0.276   6.394 -1.3168 -1.3756  1.3727
 8527TIP3   OH225525   3.228   5.383   1.876  0.5494 -0.6086 -0.0505
 8527TIP3    H125526   3.161   5.353   1.815  0.8358 -0.0583 -0.6372
 8527TIP3    H225527   3.264   5.462   1.836  3.2382 -2.2034 -0.9122
 8528TIP3   OH225528   4.635   7.112   3.576  0.8521  0.1661  0.1233
 8528TIP3    H125529   4.624   7.077   3.664  1.2973  0.8838  0.4700
 8528TIP3    H225530   4.721   7.154   3.577  1.0001 -0.1166 -0.7536
 8529TIP3   OH225531   3.388   6.096   6.038 -0.3608 -0.4440 -0.4954
 8529TIP3    H125532   3.345   6.181   6.029  0.5710  0.1358  0.3385
 8529TIP3    H225533   3.325   6.042   6.084 -0.1333  0.4666  0.9308
 8530TIP3   OH225534   3.158   3.082   0.608  0.2789 -0.2032 -0.3984
 8530TIP3    H125535   3.207   3.001   0.595 -0.0425 -0.3386 -0.7550
 8530TIP3    H225536   3.202   3.146   0.553  0.4613 -0.1646 -0.2070
 8531TIP3   OH225537   3.355   6.312   5.206  0.3059 -0.0244  0.5924
 8531TIP3    H125538   3.346   6.227   5.163  0.4651 -0.3765  1.2443
 8531TIP3    H225539   3.352   6.375   5.135 -1.4014 -0.4776  0.2336
 8532TIP3   OH225540   6.897   0.027   6.456  0.0528  0.1319  0.1618
 8532TIP3    H125541   6.857   0.072   6.530  1.0604 -0.9774  1.4200
 8532TIP3    H225542   6.962   0.089   6.422  1.1051 -0.1604  1.5909
 8533TIP3   OH225543   3.792   5.212   4.819 -0.1186 -0.4185  0.0027
 8533TIP3    H125544   3.797   5.135   4.875  0.1437 -1.6085 -1.6246
 8533TIP3    H225545   3.812   5.180   4.731  2.0074  1.8525 -0.4253
 8534TIP3   OH225546   3.836   4.464   3.336 -0.3199 -0.2798 -0.2164
 8534TIP3    H125547   3.825   4.415   3.417 -1.6128 -0.3903 -0.4474
 8534TIP3    H225548   3.922   4.504   3.344 -1.5905  2.1430  2.5538
 8535TIP3   OH225549   4.599   6.510   5.674  0.3471  0.1803  0.3103
 8535TIP3    H125550   4.536   6.438   5.674  0.2373  0.2253  2.4733
 8535TIP3    H225551   4.647   6.499   5.757  0.8015  2.1825  0.3376
 8536TIP3   OH225552   3.972   7.373   5.580  0.0156 -0.4995  0.4299
 8536TIP3    H125553   3.969   7.296   5.524 -0.2821  0.2298 -0.5679
 8536TIP3    H225554   3.966   7.338   5.669 -0.2923 -1.6081 -0.0174
 8537TIP3   OH225555   2.523   4.553   4.186 -0.0337 -0.2199 -0.1628
 8537TIP3    H125556   2.428   4.554   4.190 -0.0687  1.8339 -0.6871
 8537TIP3    H225557   2.543   4.523   4.097 -0.1773 -1.3038  0.1712
 8538TIP3   OH225558   2.797   7.061   4.426 -0.1596 -0.6327 -0.3261
 8538TIP3    H125559   2.710   7.085   4.456 -0.2308 -0.5617 -0.5850
 8538TIP3    H225560   2.789   7.056   4.331  0.0788 -0.7861 -0.3392
 8539TIP3   OH225561   2.751   6.800   3.824 -0.1698  0.1485  0.1386
 8539TIP3    H125562   2.750   6.852   3.744  0.8839  1.3930  0.9037
 8539TIP3    H225563   2.666   6.817   3.865  0.0022  0.9342  0.1703
 8540TIP3   OH225564   2.054   6.746   2.908  1.0126 -0.2166  0.2188
 8540TIP3    H125565   2.058   6.669   2.851 -0.2745 -1.6634  2.0314
 8540TIP3    H225566   1.961   6.770   2.909  1.2901  0.8883  0.3196
 8541TIP3   OH225567   3.212   4.337   2.416  0.0745 -0.4669 -0.0032
 8541TIP3    H125568   3.135   4.387   2.388  0.3611 -0.6433 -1.1402
 8541TIP3    H225569   3.230   4.367   2.505 -0.0294  1.1340 -0.5122
 8542TIP3   OH225570   5.406   6.378   3.848  0.3131  0.2514  0.4768
 8542TIP3    H125571   5.340   6.430   3.895  0.6575  2.4980 -1.4346
 8542TIP3    H225572   5.416   6.422   3.764  0.9804 -2.6819 -1.0567
 8543TIP3   OH225573   3.089   6.223   1.767  0.4616  0.2624  1.1232
 8543TIP3    H125574   3.029   6.179   1.707  1.4759  3.3040 -2.3109
 8543TIP3    H225575   3.032   6.264   1.832 -1.0355  0.4673 -0.2602
 8544TIP3   OH225576   6.114   0.745   4.470 -0.1554 -0.7852  0.0667
 8544TIP3    H125577   6.030   0.700   4.477 -0.4993 -0.1757 -0.0909
 8544TIP3    H225578   6.104   0.803   4.394  0.0358  0.0750  0.6790
 8545TIP3   OH225579   5.688   6.688   2.664  0.1299  0.2603 -0.6118
 8545TIP3    H125580   5.699   6.722   2.576 -1.5868 -0.0553 -0.9766
 8545TIP3    H225581   5.625   6.616   2.654 -0.1951  0.3214  0.8747
 8546TIP3   OH225582   4.770   5.975   3.500  0.4339  0.0922 -1.0078
 8546TIP3    H125583   4.691   5.923   3.483  0.1465  0.7837 -1.8069
 8546TIP3    H225584   4.833   5.912   3.534 -0.3524 -0.5325 -0.6798
 8547TIP3   OH225585   6.736   1.167   3.773  0.0741 -0.1247  0.2167
 8547TIP3    H125586   6.747   1.133   3.684  0.3738  0.5525 -0.0046
 8547TIP3    H225587   6.652   1.212   3.772  0.7112  1.0671 -0.1001
 8548TIP3   OH225588   5.287   6.139   2.800 -0.0819 -0.0029  0.3779
 8548TIP3    H125589   5.328   6.214   2.757  1.1615 -1.4417 -1.0413
 8548TIP3    H225590   5.194   6.159   2.801  0.3153  1.9055  0.7406
 8549TIP3   OH225591   5.243   0.070   4.052 -0.2521 -0.0084  0.2543
 8549TIP3    H125592   5.258   0.083   3.959 -0.7992  0.5838  0.2466
 8549TIP3    H225593   5.150   0.088   4.064  0.4083  2.9306  1.4420
 8550TIP3   OH225594   4.681   6.109   2.466  0.3991  0.1493 -0.2003
 8550TIP3    H125595   4.646   6.140   2.549 -2.6232 -1.7576 -0.6746
 8550TIP3    H225596   4.619   6.042   2.437  2.7833 -1.0985 -2.7214
 8551TIP3   OH225597   5.631   5.750   2.549  0.5075  0.1436 -0.0278
 8551TIP3    H125598   5.618   5.721   2.459  1.7852  4.2219 -1.6819
 8551TIP3    H225599   5.716   5.713   2.574  1.3021  0.9653 -1.4365
 8552TIP3   OH225600   2.732   2.556   1.223  0.6098  0.1231 -0.0795
 8552TIP3    H125601   2.783   2.539   1.144  0.4380  0.7411 -0.3281
 8552TIP3    H225602   2.766   2.494   1.288  1.4859  0.3392 -0.3220
 8553TIP3   OH225603   3.877   4.335   4.560  0.2281 -0.6908 -0.1832
 8553TIP3    H125604   3.852   4.262   4.504  0.9811 -0.3866 -0.9329
 8553TIP3    H225605   3.972   4.336   4.558  0.2644 -0.6393  1.0676
 8554TIP3   OH225606   4.809   6.161   4.434  0.0451  0.5546 -0.0067
 8554TIP3    H125607   4.856   6.168   4.517 -0.9567 -3.0797  0.9642
 8554TIP3    H225608   4.717   6.153   4.459 -0.2537 -0.7481 -1.4428
 8555TIP3   OH225609   5.586   7.995   3.131 -0.3699 -0.0219  0.2748
 8555TIP3    H125610   5.674   8.021   3.159 -0.8729  2.4196 -0.2684
 8555TIP3    H225611   5.552   7.943   3.204  1.1293 -0.0798  0.9494
 8556TIP3   OH225612   2.943   3.769   2.990  0.1473  0.1591 -0.7103
 8556TIP3    H125613   2.893   3.840   3.029  1.1350  0.4190  0.1205
 8556TIP3    H225614   2.888   3.692   3.000  0.9091 -0.0376  2.4378
 8557TIP3   OH225615   3.556   7.109   4.718  0.3611  0.0554 -0.1495
 8557TIP3    H125616   3.475   7.143   4.755 -0.7425 -0.8993 -1.6261
 8557TIP3    H225617   3.590   7.179   4.663  0.7369  0.5913  0.7603
 8558TIP3   OH225618   6.171   3.930   2.368 -0.3320 -0.8629  0.1380
 8558TIP3    H125619   6.215   4.001   2.415  1.9801 -2.4183  0.4141
 8558TIP3    H225620   6.130   3.973   2.293  1.8552  0.6527 -0.2471
 8559TIP3   OH225621   7.540   0.353   6.228  0.1846  0.9003 -0.2144
 8559TIP3    H125622   7.616   0.316   6.273 -1.8530 -0.6718  2.0629
 8559TIP3    H225623   7.529   0.439   6.268  0.6207  1.0602 -0.4251
 8560TIP3   OH225624   2.850   1.296   0.211 -0.1618 -0.1556 -0.1677
 8560TIP3    H125625   2.774   1.318   0.158 -0.1650 -1.5063 -0.7542
 8560TIP3    H225626   2.825   1.318   0.301 -1.3121 -0.7438 -0.3387
 8561TIP3   OH225627   6.769   4.823   2.303  0.1402 -0.0199 -0.3619
 8561TIP3    H125628   6.861   4.846   2.314  0.4785 -1.1033 -0.9282
 8561TIP3    H225629   6.722   4.906   2.314  1.1200  0.4000  0.7057
 8562TIP3   OH225630   2.111   5.726   3.771  0.1948 -0.0248  0.4619
 8562TIP3    H125631   2.115   5.672   3.851  1.1192  0.9927  1.1165
 8562TIP3    H225632   2.151   5.809   3.797  0.8045  0.1903 -1.1695
 8563TIP3   OH225633   1.810   4.936   4.311 -0.1090 -0.0466 -0.6480
 8563TIP3    H125634   1.888   4.881   4.297 -1.9529 -2.9609  0.0233
 8563TIP3    H225635   1.745   4.899   4.252 -1.4965  1.2535  0.0654
 8564TIP3   OH225636   3.420   4.676   3.567 -0.6478 -0.0456  0.0353
 8564TIP3    H125637   3.436   4.763   3.604 -0.6830 -0.7146  1.6728
 8564TIP3    H225638   3.441   4.686   3.474  0.5935  1.3844  0.4307
 8565TIP3   OH225639   5.872   5.525   3.372 -0.1205 -0.3840 -0.7992
 8565TIP3    H125640   5.857   5.612   3.334 -4.1431 -0.8472 -0.5053
 8565TIP3    H225641   5.918   5.542   3.454 -0.3856  1.4283 -1.0075
 8566TIP3   OH225642   1.449   6.324   3.046  0.0026 -0.2749 -0.1580
 8566TIP3    H125643   1.408   6.409   3.061  0.6927 -0.1365  0.9637
 8566TIP3    H225644   1.376   6.264   3.032 -0.6436 -0.2233  2.7482
 8567TIP3   OH225645   5.555   6.660   3.943  0.4271 -0.1580 -0.3464
 8567TIP3    H125646   5.542   6.566   3.931  1.1943 -0.0622 -2.0775
 8567TIP3    H225647   5.641   6.666   3.986  0.2430 -0.2496  0.0408
 8568TIP3   OH225648   3.245   4.049   4.981 -0.3502  0.1215  0.2767
 8568TIP3    H125649   3.187   4.123   5.001 -0.5548  0.1710 -0.5178
 8568TIP3    H225650   3.324   4.090   4.944 -0.2827 -0.0305  0.2506
 8569TIP3   OH225651   5.852   0.585   3.514 -0.2639  0.1459 -0.5959
 8569TIP3    H125652   5.945   0.605   3.498 -0.3533  1.1511  0.0993
 8569TIP3    H225653   5.819   0.663   3.559 -1.4605 -0.1935 -0.8946
 8570TIP3   OH225654   2.042   5.871   6.492  0.2970  0.1552 -1.0907
 8570TIP3    H125655   2.029   5.777   6.509 -0.9466  0.6956  1.1447
 8570TIP3    H225656   2.129   5.890   6.526  0.9111 -0.3608 -2.3533
 8571TIP3   OH225657   4.008   7.491   4.422 -0.8625  0.2297 -0.5623
 8571TIP3    H125658   4.039   7.448   4.502  0.1133 -2.1007 -2.1806
 8571TIP3    H225659   3.920   7.457   4.409 -1.2980  1.1460 -0.1454
 8572TIP3   OH225660   3.568   6.139   3.308  0.3369 -0.4544  0.0298
 8572TIP3    H125661   3.482   6.147   3.351  0.3605 -2.6628  0.5846
 8572TIP3    H225662   3.550   6.090   3.228  1.5293 -4.2690  1.9479
 8573TIP3   OH225663   5.941   3.454   2.506 -0.0377 -0.2759 -0.2897
 8573TIP3    H125664   5.961   3.404   2.585  1.5699 -2.1272 -1.8221
 8573TIP3    H225665   6.023   3.499   2.485 -0.2311 -0.3974 -1.3314
 8574TIP3   OH225666   7.336   7.925   1.899  0.6605  0.0272 -0.2409
 8574TIP3    H125667   7.277   7.867   1.947  0.1006  1.6875  1.1415
 8574TIP3    H225668   7.417   7.876   1.892  0.6258 -0.4281  2.0810
 8575TIP3   OH225669   4.609   5.660   2.850 -0.1191  0.1389  0.4951
 8575TIP3    H125670   4.544   5.606   2.896 -0.1115  0.9190  1.4501
 8575TIP3    H225671   4.571   5.748   2.851  0.5335  0.4249  0.2308
 8576TIP3   OH225672   3.287   6.888   4.506  0.0048 -0.1036 -0.2620
 8576TIP3    H125673   3.372   6.932   4.502 -0.7530  1.2717 -1.5394
 8576TIP3    H225674   3.305   6.808   4.555  1.4196  1.6028  2.1497
 8577TIP3   OH225675   3.357   4.606   3.809  0.2534 -0.1071 -0.3044
 8577TIP3    H125676   3.383   4.679   3.866 -0.5289 -0.2422  0.2257
 8577TIP3    H225677   3.382   4.634   3.721 -0.0293  0.7967 -0.1022
 8578TIP3   OH225678   3.350   7.301   4.784  0.1927  0.6236 -0.0954
 8578TIP3    H125679   3.379   7.375   4.731  0.0535  0.7389 -0.0088
 8578TIP3    H225680   3.255   7.305   4.782  0.1547 -0.4096 -1.3153
 8579TIP3   OH225681   3.859   5.290   3.791  0.3897 -0.1297  0.0579
 8579TIP3    H125682   3.789   5.290   3.856  1.2721  2.0536  1.0585
 8579TIP3    H225683   3.929   5.238   3.831  1.1449  1.6657  1.1575
 8580TIP3   OH225684   3.900   4.989   5.075  0.1210  0.4489  0.0739
 8580TIP3    H125685   3.888   5.047   5.150 -1.2826  0.4167 -0.1094
 8580TIP3    H225686   3.965   4.926   5.104  0.5841  1.2338  0.7935
 8581TIP3   OH225687   5.793   6.908   5.703  0.4160  0.2068  0.5395
 8581TIP3    H125688   5.818   6.844   5.636  1.2148 -0.3084  1.3005
 8581TIP3    H225689   5.805   6.861   5.786  0.6176  1.2154  1.0920
 8582TIP3   OH225690   2.966   4.202   5.611  0.4267  0.1942  0.0724
 8582TIP3    H125691   2.998   4.129   5.559 -2.2490 -1.5216  0.7756
 8582TIP3    H225692   2.906   4.249   5.553  1.1918  1.1564  0.0305
 8583TIP3   OH225693   3.798   6.291   4.681  0.5077 -0.1607 -0.1475
 8583TIP3    H125694   3.756   6.227   4.623 -0.3011 -1.5099  1.8389
 8583TIP3    H225695   3.755   6.277   4.766  2.4891  0.9207  1.0633
 8584TIP3   OH225696   3.980   5.544   0.779  0.5207  0.4288  0.5537
 8584TIP3    H125697   3.896   5.533   0.736  0.6540 -2.2518  0.9388
 8584TIP3    H225698   3.959   5.555   0.871  0.5390  0.8931  0.5047
 8585TIP3   OH225699   4.452   5.292   4.538  0.0028  0.2692  0.5694
 8585TIP3    H125700   4.496   5.212   4.509 -0.4910 -0.0025  0.5589
 8585TIP3    H225701   4.441   5.280   4.632 -1.5204 -0.4091  0.3336
 8586TIP3   OH225702   3.629   4.907   5.337 -0.2294  0.1377  0.6337
 8586TIP3    H125703   3.653   4.979   5.395 -1.3815 -0.5310  1.9935
 8586TIP3    H225704   3.544   4.932   5.301 -0.3705 -0.2778  0.6725
 8587TIP3   OH225705   2.914   7.294   5.365  0.2823  0.5224  0.3455
 8587TIP3    H125706   2.907   7.275   5.271  0.0570 -2.6861  0.9584
 8587TIP3    H225707   2.842   7.245   5.404  1.5502  0.3007  2.4167
 8588TIP3   OH225708   5.383   4.997   2.621  0.1494 -0.4011 -0.4616
 8588TIP3    H125709   5.328   4.925   2.652 -0.5557  0.6045  0.6442
 8588TIP3    H225710   5.440   4.956   2.555 -0.7078 -1.8204 -0.3538
 8589TIP3   OH225711   5.046   5.013   1.599 -0.0620 -0.5869  0.1056
 8589TIP3    H125712   5.009   4.947   1.541 -2.7267  0.4671  0.5252
 8589TIP3    H225713   5.140   5.009   1.583 -0.5805 -1.4500 -3.0647
 8590TIP3   OH225714   3.519   5.162   2.883  0.7302  0.4002  0.0487
 8590TIP3    H125715   3.573   5.160   2.804 -0.1205  0.2846 -0.5284
 8590TIP3    H225716   3.548   5.241   2.929  1.0290  0.6197 -0.5090
 8591TIP3   OH225717   4.784   4.757   3.698  0.0064 -0.3860  0.0603
 8591TIP3    H125718   4.859   4.808   3.668  0.8358 -1.2384  0.6452
 8591TIP3    H225719   4.803   4.668   3.668 -0.5335 -0.7012  0.6539
 8592TIP3   OH225720   3.993   6.403   2.411  0.2682 -0.0569  0.3933
 8592TIP3    H125721   3.936   6.467   2.369  1.6348  0.9527  0.0608
 8592TIP3    H225722   3.967   6.319   2.372  0.5545  0.6866 -1.4309
 8593TIP3   OH225723   2.407   5.773   1.458  0.2129  0.3486  0.5886
 8593TIP3    H125724   2.427   5.691   1.504  0.2620 -0.4976 -0.9296
 8593TIP3    H225725   2.465   5.838   1.498 -0.0406 -0.2782  2.0067
 8594TIP3   OH225726   4.268   6.869   3.627  0.1575  0.3464 -0.2338
 8594TIP3    H125727   4.281   6.790   3.680  0.8914  0.5445 -0.1186
 8594TIP3    H225728   4.207   6.842   3.558  0.2135 -0.2512 -0.0529
 8595TIP3   OH225729   5.084   6.060   5.096  0.0481  0.1817 -0.2203
 8595TIP3    H125730   4.999   6.019   5.082  0.5662 -0.3349 -1.9726
 8595TIP3    H225731   5.147   5.991   5.075  0.9028  0.9806 -0.3182
 8596TIP3   OH225732   3.119   5.339   6.121  0.2429  0.5725 -0.5949
 8596TIP3    H125733   3.194   5.393   6.148  2.3961 -1.2972 -2.5751
 8596TIP3    H225734   3.098   5.370   6.033 -1.7685  1.5237  0.2088
 8597TIP3   OH225735   2.439   5.837   2.371 -0.0805  0.4209 -0.0820
 8597TIP3    H125736   2.451   5.790   2.453  1.2533  1.0050  0.0558
 8597TIP3    H225737   2.500   5.795   2.310 -0.1848  0.8018 -0.4513
 8598TIP3   OH225738   3.972   7.113   4.726 -0.7119  0.1355  0.4092
 8598TIP3    H125739   3.970   7.029   4.680 -2.6654  0.0857  0.5562
 8598TIP3    H225740   4.013   7.094   4.810 -2.0328 -0.9029  0.8380
 8599TIP3   OH225741   0.350   0.321   4.841  0.4450 -0.1327  0.1974
 8599TIP3    H125742   0.343   0.390   4.775 -0.6176 -0.2998  0.1288
 8599TIP3    H225743   0.419   0.351   4.900  2.5472 -0.7403 -1.8873
 8600TIP3   OH225744   5.348   6.984   4.250  0.3500 -0.2104 -0.3976
 8600TIP3    H125745   5.417   7.031   4.297 -0.6536  1.4560 -0.5472
 8600TIP3    H225746   5.372   6.992   4.158 -0.5729  1.2897 -0.5264
 8601TIP3   OH225747   4.309   6.828   4.556  0.2540  0.7939  0.0098
 8601TIP3    H125748   4.401   6.854   4.559 -0.0491  2.1971 -2.1626
 8601TIP3    H225749   4.308   6.749   4.501  0.3736 -0.3563  1.6076
 8602TIP3   OH225750   6.210   5.959   5.597 -0.3321 -0.5757 -0.1235
 8602TIP3    H125751   6.166   5.908   5.530 -1.8928  0.5332  0.0220
 8602TIP3    H225752   6.188   5.915   5.679 -1.4538  0.1623 -0.0222
 8603TIP3   OH225753   5.598   6.584   3.561 -0.0243  0.3055 -0.4115
 8603TIP3    H125754   5.525   6.576   3.622  1.0468 -0.2804  0.8047
 8603TIP3    H225755   5.568   6.538   3.482 -0.6852 -0.5845  0.3464
 8604TIP3   OH225756   4.823   6.865   4.006 -1.0753 -0.8868 -0.4981
 8604TIP3    H125757   4.871   6.813   4.071 -0.4431 -1.1492 -1.1655
 8604TIP3    H225758   4.892   6.906   3.953 -1.5730  0.0204 -0.4610
 8605TIP3   OH225759   5.189   6.870   5.327 -0.1296  0.5474 -0.3696
 8605TIP3    H125760   5.228   6.948   5.289 -1.7426  1.7167  0.3013
 8605TIP3    H225761   5.147   6.825   5.253  2.0675 -0.5058 -1.0182
 8606TIP3   OH225762   6.430   5.944   3.176  0.4892  0.0197  0.0653
 8606TIP3    H125763   6.512   5.914   3.216  1.4039  1.9793 -0.2853
 8606TIP3    H225764   6.370   5.954   3.249  1.2865  0.8331  0.6238
 8607TIP3   OH225765   4.407   6.024   4.238 -0.2410 -0.2533 -0.3564
 8607TIP3    H125766   4.470   5.960   4.206  0.3167  0.9531 -1.7438
 8607TIP3    H225767   4.341   5.972   4.284 -0.2991 -1.9191 -2.2334
 8608TIP3   OH225768   6.702   6.228   3.277 -0.4684  0.5102 -1.1482
 8608TIP3    H125769   6.730   6.319   3.290  0.0693  0.3205 -0.9529
 8608TIP3    H225770   6.708   6.214   3.183  0.3202  0.3991 -1.0821
 8609TIP3   OH225771   5.272   6.925   5.601  0.4305  0.8964  0.0236
 8609TIP3    H125772   5.363   6.894   5.595  0.0130 -0.5584  0.9349
 8609TIP3    H225773   5.236   6.908   5.514  0.8426  0.8906 -0.1499
 8610TIP3   OH225774   5.887   6.327   4.553 -0.0356  0.5208 -0.3056
 8610TIP3    H125775   5.979   6.351   4.561 -0.3082  1.1204  1.1204
 8610TIP3    H225776   5.875   6.310   4.460  1.9468 -1.2884 -0.2679
 8611TIP3   OH225777   6.251   4.649   1.741 -0.3791  0.2262 -0.4033
 8611TIP3    H125778   6.245   4.745   1.742  1.5247  0.3630  0.6816
 8611TIP3    H225779   6.341   4.631   1.767 -1.0862 -1.9031  0.6426
 8612TIP3   OH225780   4.573   6.328   6.614  0.4202 -0.2985 -0.2705
 8612TIP3    H125781   4.504   6.270   6.582  0.9576 -1.5781  0.8283
 8612TIP3    H225782   4.581   6.395   6.546 -1.2889 -0.6136 -0.8291
 8613TIP3   OH225783   6.553   7.547   4.211 -0.0785 -0.7852  0.1710
 8613TIP3    H125784   6.600   7.464   4.216  0.9854 -0.1401  1.0328
 8613TIP3    H225785   6.622   7.614   4.211 -0.9987  0.2308  2.7647
 8614TIP3   OH225786   4.679   5.375   3.888 -0.3001  0.0827  0.0936
 8614TIP3    H125787   4.763   5.332   3.874  0.3830  1.5316 -0.2431
 8614TIP3    H225788   4.619   5.303   3.908  1.3461 -0.8243  1.9150
 8615TIP3   OH225789   6.297   6.769   3.696 -0.1255 -0.4089 -0.8255
 8615TIP3    H125790   6.373   6.711   3.684  0.7897  1.2476 -3.4361
 8615TIP3    H225791   6.230   6.730   3.641 -1.0826 -1.6259  1.1451
 8616TIP3   OH225792   4.399   6.587   4.019 -0.2016  0.5175 -0.3843
 8616TIP3    H125793   4.471   6.624   3.968  0.2149 -0.0454 -0.2066
 8616TIP3    H225794   4.419   6.611   4.109  1.1131 -1.7909 -0.0183
 8617TIP3   OH225795   4.910   5.071   3.818  0.6564  0.2295 -0.2680
 8617TIP3    H125796   4.882   5.005   3.881 -1.5200  1.2377 -0.1291
 8617TIP3    H225797   4.892   5.032   3.732 -0.0064  0.3691 -0.1960
 8618TIP3   OH225798   6.012   6.185   3.772 -0.0873 -0.1986 -0.1587
 8618TIP3    H125799   6.092   6.178   3.720  0.6614  1.5498  0.7078
 8618TIP3    H225800   5.994   6.096   3.801  0.8191 -0.8060 -1.4273
 8619TIP3   OH225801   1.450   0.424   1.570  0.5152 -0.3174 -0.2211
 8619TIP3    H125802   1.381   0.420   1.637  1.1377  0.0731  0.4561
 8619TIP3    H225803   1.532   0.422   1.620  0.9843  1.4020 -0.8644
 8620TIP3   OH225804   5.455   5.830   3.568 -0.0321 -0.2297 -0.3385
 8620TIP3    H125805   5.465   5.756   3.627  0.9627  1.2144  1.3591
 8620TIP3    H225806   5.414   5.898   3.621  1.6185  1.3720 -1.0565
 8621TIP3   OH225807   5.275   4.389   3.301 -0.1829  0.1731 -0.3916
 8621TIP3    H125808   5.368   4.365   3.290 -0.3259 -0.4377 -0.2977
 8621TIP3    H225809   5.271   4.480   3.273  0.3399  0.0280 -0.9753
 8622TIP3   OH225810   4.810   6.036   6.042 -0.6373  0.1771  0.7111
 8622TIP3    H125811   4.898   5.999   6.052 -0.5399  0.4068  0.7152
 8622TIP3    H225812   4.818   6.098   5.970 -0.7818  0.2430  0.7521
 8623TIP3   OH225813   6.189   6.484   5.336 -0.1576  0.6985  1.0107
 8623TIP3    H125814   6.188   6.555   5.401  0.0158  0.0478  1.7235
 8623TIP3    H225815   6.096   6.465   5.321 -0.1864  0.4752  1.4748
 8624TIP3   OH225816   6.932   4.778   4.543 -0.6540 -0.0691 -0.0958
 8624TIP3    H125817   7.012   4.787   4.594 -0.8282 -0.5128  0.2624
 8624TIP3    H225818   6.870   4.737   4.603 -0.4547 -1.8606 -1.0613
 8625TIP3   OH225819   5.427   6.688   5.002  0.2005  0.1139 -0.2102
 8625TIP3    H125820   5.510   6.736   4.998 -1.0051  2.4319  1.2741
 8625TIP3    H225821   5.382   6.712   4.921  0.6661 -0.5968 -0.6896
 8626TIP3   OH225822   6.640   5.811   3.297  0.3269 -0.1843 -0.0553
 8626TIP3    H125823   6.712   5.863   3.335  0.6470 -2.8080  3.1262
 8626TIP3    H225824   6.684   5.752   3.235  0.7839 -0.8114  0.8439
 8627TIP3   OH225825   4.124   6.767   2.482  0.4330  0.2406 -0.5192
 8627TIP3    H125826   4.185   6.730   2.546 -0.4445  0.2022  0.3047
 8627TIP3    H225827   4.160   6.741   2.398  0.4443 -1.5341  0.0135
 8628TIP3   OH225828   0.849   0.303   0.941  0.2949 -0.5856  0.0407
 8628TIP3    H125829   0.793   0.226   0.953  1.7709 -1.9043 -1.3111
 8628TIP3    H225830   0.825   0.361   1.013 -1.0799 -2.1750  0.9047
 8629TIP3   OH225831   4.435   5.490   3.425  0.0244  0.3162 -0.0796
 8629TIP3    H125832   4.512   5.511   3.372 -0.7497  2.2666 -0.4680
 8629TIP3    H225833   4.383   5.432   3.370 -1.0459  2.7661 -1.7264
 8630TIP3   OH225834   6.825   5.991   3.328 -0.0131 -0.2400 -0.3353
 8630TIP3    H125835   6.919   5.990   3.307  0.1498  1.2016  0.3078
 8630TIP3    H225836   6.790   6.065   3.278 -0.6373 -0.1955  0.1660
 8631TIP3   OH225837   5.000   4.591   2.664 -0.1652  0.2128 -0.0009
 8631TIP3    H125838   4.939   4.551   2.726  1.5272 -0.3710  1.2961
 8631TIP3    H225839   4.943   4.627   2.596 -2.0416  0.5395  1.6709
 8632TIP3   OH225840   5.786   7.321   1.559 -0.1319 -0.1801 -0.3328
 8632TIP3    H125841   5.707   7.329   1.613 -0.0870  0.9270 -0.4175
 8632TIP3    H225842   5.840   7.396   1.584  0.3783 -0.2842 -1.1113
 8633TIP3   OH225843   4.051   6.056   2.701 -0.1623 -0.6004  0.2829
 8633TIP3    H125844   4.087   6.110   2.631  0.1060 -2.3847 -0.9864
 8633TIP3    H225845   3.956   6.069   2.695 -0.0640  0.1619  0.3522
 8634TIP3   OH225846   6.744   6.611   3.053 -0.3459 -0.0828 -0.7122
 8634TIP3    H125847   6.700   6.537   3.012 -1.8574 -0.1500  0.9934
 8634TIP3    H225848   6.760   6.583   3.143 -0.8199  1.5992 -0.0890
 8635TIP3   OH225849   6.028   3.910   6.116  0.0190  0.5230  0.0449
 8635TIP3    H125850   6.053   3.886   6.027  3.3597 -0.1207  1.0981
 8635TIP3    H225851   5.940   3.874   6.127  0.2190 -0.8228 -2.4302
 8636TIP3   OH225852   4.528   6.221   2.654  0.1496  0.2236  0.0882
 8636TIP3    H125853   4.538   6.174   2.737 -0.1600  0.8377  0.4878
 8636TIP3    H225854   4.436   6.207   2.630  0.2370  0.0557 -0.1439
 8637TIP3   OH225855   5.690   5.699   5.439  0.7941 -0.0095  0.2773
 8637TIP3    H125856   5.713   5.738   5.355  1.7165  1.2207  1.0717
 8637TIP3    H225857   5.640   5.621   5.417 -1.2823  1.7200 -1.3777
 8638TIP3   OH225858   7.420   7.674   0.941 -0.0913  0.2929  0.3315
 8638TIP3    H125859   7.440   7.682   1.035  2.6823 -1.4265 -0.0516
 8638TIP3    H225860   7.331   7.709   0.933  0.3552  2.3923  3.2711
 8639TIP3   OH225861   4.715   6.401   1.831  0.1118 -0.0181 -0.0313
 8639TIP3    H125862   4.747   6.415   1.742 -0.2114  2.8117  0.2345
 8639TIP3    H225863   4.772   6.457   1.885  0.3497 -1.7592  1.5547
 8640TIP3   OH225864   5.656   5.896   3.411  0.9528 -0.6073 -0.1094
 8640TIP3    H125865   5.615   5.929   3.331  0.6306 -1.8458 -0.4653
 8640TIP3    H225866   5.585   5.849   3.456  1.7394 -1.9289 -0.2465
 8641TIP3   OH225867   5.479   0.850   3.340 -0.0133 -0.2510 -0.1583
 8641TIP3    H125868   5.448   0.815   3.424 -0.3619 -0.7925 -0.5106
 8641TIP3    H225869   5.569   0.878   3.358  0.1697 -1.0560  0.2084
 8642TIP3   OH225870   4.902   6.823   3.652 -0.2066  0.6902  0.3151
 8642TIP3    H125871   4.964   6.752   3.668 -0.2958  0.6749  0.5875
 8642TIP3    H225872   4.956   6.902   3.645 -0.1447  0.6567  0.4146
 8643TIP3   OH225873   5.788   5.202   4.039  0.1359  0.1487  0.5286
 8643TIP3    H125874   5.721   5.165   4.096  0.1341 -0.1894  0.3100
 8643TIP3    H225875   5.795   5.140   3.967  1.5229 -0.4329  1.1480
 8644TIP3   OH225876   6.426   0.742   2.732 -0.7710  0.0302  0.5277
 8644TIP3    H125877   6.387   0.703   2.811 -0.3625  0.1111  0.7725
 8644TIP3    H225878   6.354   0.749   2.670 -1.2204  0.5180  1.1090
 8645TIP3   OH225879   5.932   6.779   2.729 -0.1275 -0.2239 -0.4609
 8645TIP3    H125880   5.853   6.724   2.730  0.1208 -0.6337 -2.1327
 8645TIP3    H225881   5.899   6.867   2.744 -0.9246 -0.3741 -1.2844
 8646TIP3   OH225882   7.178   4.426   3.156  0.1726  0.1885 -0.2070
 8646TIP3    H125883   7.156   4.335   3.176 -2.2975  1.3902  2.9801
 8646TIP3    H225884   7.274   4.428   3.158  0.2973 -2.4144 -0.8988
 8647TIP3   OH225885   4.865   4.446   2.886 -0.2088 -0.4800  0.0821
 8647TIP3    H125886   4.923   4.506   2.932 -0.3352 -0.4140  0.1571
 8647TIP3    H225887   4.858   4.370   2.944 -0.0325 -0.5773 -0.0225
 8648TIP3   OH225888   5.352   7.002   3.030 -0.5480  0.1586  0.3102
 8648TIP3    H125889   5.445   6.989   3.011 -0.7868 -0.8697 -0.2180
 8648TIP3    H225890   5.349   7.025   3.122  0.1672 -0.6164  0.5364
 8649TIP3   OH225891   6.442   6.554   3.373 -0.2665  0.0180  0.3742
 8649TIP3    H125892   6.439   6.522   3.463 -1.9583  1.1790  0.7599
 8649TIP3    H225893   6.443   6.474   3.320  1.0348 -0.6706  1.4221
 8650TIP3   OH225894   6.536   6.443   2.875  0.0911  0.7636 -0.2528
 8650TIP3    H125895   6.464   6.381   2.858 -0.1465  1.1942 -0.8538
 8650TIP3    H225896   6.611   6.387   2.895 -0.0230  0.2631 -1.1915
 8651TIP3   OH225897   5.995   5.590   3.601  0.1767  0.4414  0.0745
 8651TIP3    H125898   5.996   5.686   3.610 -1.3598  0.3596  1.2908
 8651TIP3    H225899   5.992   5.558   3.691  1.9303 -0.8079 -0.2777
 8652TIP3   OH225900   5.033   6.581   3.734 -0.9706 -0.1033 -0.1260
 8652TIP3    H125901   5.070   6.559   3.820  0.2493  0.7975 -0.4153
 8652TIP3    H225902   4.961   6.518   3.723 -0.6290 -0.7576  1.1943
 8653TIP3   OH225903   5.321   6.620   5.425  0.1857 -0.0577  0.3433
 8653TIP3    H125904   5.260   6.568   5.373  1.1880 -0.5534 -0.3476
 8653TIP3    H225905   5.296   6.711   5.408  1.2617 -0.1557 -1.9771
 8654TIP3   OH225906   5.828   6.737   6.371 -0.4728  0.0556 -0.0412
 8654TIP3    H125907   5.796   6.810   6.319  0.1125 -0.0900 -0.6056
 8654TIP3    H225908   5.777   6.662   6.340  1.0703 -0.3754 -1.6480
 8655TIP3   OH225909   8.074   0.221   2.882  0.3308  0.7043 -0.3081
 8655TIP3    H125910   7.992   0.268   2.900  1.4625  1.3883  3.3731
 8655TIP3    H225911   8.047   0.129   2.873 -0.9986  1.1014 -0.5244
 8656TIP3   OH225912   5.828   6.173   1.004 -0.4045  0.8798  0.1743
 8656TIP3    H125913   5.830   6.127   1.088 -0.0648  0.1563 -0.2227
 8656TIP3    H225914   5.772   6.119   0.948 -0.9767  1.5841  0.0613
 8657TIP3   OH225915   5.607   5.219   2.190  0.6797 -0.6005  0.3150
 8657TIP3    H125916   5.518   5.202   2.158  1.3082 -0.8222 -1.3618
 8657TIP3    H225917   5.652   5.258   2.115  2.3047 -1.4790  0.8219
 8658TIP3   OH225918   2.677   6.381   4.706 -0.0957  0.1173  0.0630
 8658TIP3    H125919   2.746   6.330   4.665  1.3224  0.1190  2.3426
 8658TIP3    H225920   2.635   6.321   4.767 -1.6315  0.3343 -0.7377
 8659TIP3   OH225921   7.208   4.475   2.458 -0.1581  0.3008  0.6244
 8659TIP3    H125922   7.201   4.467   2.363 -0.5593  0.8770  0.6068
 8659TIP3    H225923   7.253   4.395   2.485 -0.2676  0.0160 -0.0231
 8660TIP3   OH225924   5.769   7.985   1.991 -0.2135 -0.4935  0.0452
 8660TIP3    H125925   5.692   7.933   1.969 -0.4899 -0.9238  1.9226
 8660TIP3    H225926   5.735   8.055   2.047  0.6562 -0.3322  0.3764
 8661TIP3   OH225927   5.747   5.427   3.133  0.6932  0.5078 -0.1823
 8661TIP3    H125928   5.780   5.443   3.221 -0.4361 -2.8464  0.9469
 8661TIP3    H225929   5.686   5.498   3.115 -1.5758 -0.5102  3.1118
 8662TIP3   OH225930   4.968   5.554   3.396 -0.1070  0.3727  0.0598
 8662TIP3    H125931   4.990   5.629   3.451 -1.1913  0.1871  0.7530
 8662TIP3    H225932   5.053   5.515   3.373  0.4124  1.2566  0.4601
 8663TIP3   OH225933   6.424   7.968   4.978  0.1505 -0.0511 -0.1189
 8663TIP3    H125934   6.461   7.915   5.049  0.6476  0.1095 -0.2556
 8663TIP3    H225935   6.497   7.981   4.917 -0.6642 -1.5454 -1.4656
 8664TIP3   OH225936   5.507   6.131   2.088 -0.3618  0.3435  0.5232
 8664TIP3    H125937   5.517   6.035   2.092 -0.9745  0.2744  0.4363
 8664TIP3    H225938   5.594   6.165   2.108 -0.3641 -0.2201  1.5356
 8665TIP3   OH225939   2.857   4.903   3.564  0.2485  0.0708 -0.3632
 8665TIP3    H125940   2.808   4.882   3.644 -0.0395  0.8049 -0.3396
 8665TIP3    H225941   2.880   4.996   3.575 -0.5078  0.4021 -1.5056
 8666TIP3   OH225942   6.052   4.428   1.025 -0.4491  0.0352 -0.1641
 8666TIP3    H125943   5.965   4.394   1.045 -0.3416  0.2901  0.7652
 8666TIP3    H225944   6.054   4.435   0.929 -1.6287  0.5261 -0.1563
 8667TIP3   OH225945   6.491   5.624   4.065 -0.1680  0.5742  0.0758
 8667TIP3    H125946   6.540   5.621   4.147 -0.7402 -1.3893  0.3722
 8667TIP3    H225947   6.536   5.690   4.012  3.2154 -1.6720  0.0566
 8668TIP3   OH225948   5.410   4.758   5.113 -0.0814 -0.0962  0.3208
 8668TIP3    H125949   5.373   4.671   5.097 -0.9564  0.4867 -0.8627
 8668TIP3    H225950   5.476   4.770   5.045  0.0450  0.1624  0.4859
 8669TIP3   OH225951   3.654   5.291   3.183  0.1696  0.9648 -0.3420
 8669TIP3    H125952   3.699   5.359   3.233 -0.1590  0.6368  0.3994
 8669TIP3    H225953   3.714   5.216   3.185 -0.2599  0.6387  0.3610
 8670TIP3   OH225954   5.806   6.255   3.593 -0.1631  0.4615 -0.8247
 8670TIP3    H125955   5.866   6.282   3.663  0.2070  1.3616 -1.4756
 8670TIP3    H225956   5.812   6.160   3.592  0.3139  0.4747 -0.0550
 8671TIP3   OH225957   6.278   5.665   4.329 -0.1640  0.6746 -0.2375
 8671TIP3    H125958   6.274   5.734   4.262  1.0142  0.3005 -0.7065
 8671TIP3    H225959   6.226   5.594   4.292 -0.5491  0.9267 -0.1942
 8672TIP3   OH225960   6.612   4.281   3.560 -0.0287 -0.0723  0.1659
 8672TIP3    H125961   6.579   4.287   3.470 -0.9395  0.8254  0.5512
 8672TIP3    H225962   6.656   4.197   3.563 -3.9910 -2.2821  0.1824
 8673TIP3   OH225963   5.207   5.565   3.029  0.3895  0.3834 -0.1963
 8673TIP3    H125964   5.215   5.634   3.095  0.4945  0.6706 -0.5069
 8673TIP3    H225965   5.129   5.516   3.055  1.1251 -0.2827  0.8551
 8674TIP3   OH225966   5.782   6.198   3.289  0.2570 -0.1203  0.1097
 8674TIP3    H125967   5.717   6.217   3.222  0.8304  0.3345 -0.3244
 8674TIP3    H225968   5.732   6.159   3.361 -0.5242  0.4713 -0.1099
 8675TIP3   OH225969   5.242   5.166   3.075  0.3617  0.0354 -0.7387
 8675TIP3    H125970   5.317   5.225   3.087  0.8234 -0.4031 -1.4284
 8675TIP3    H225971   5.166   5.222   3.087  0.7972  0.5158 -0.1618
 8676TIP3   OH225972   5.104   5.084   4.466 -0.4375  0.1807 -0.0006
 8676TIP3    H125973   5.196   5.109   4.470 -0.3443 -0.0392 -0.6906
 8676TIP3    H225974   5.059   5.147   4.522  0.1853  0.0213  0.6879
 8677TIP3   OH225975   6.836   4.079   2.265  0.4261 -0.2176  0.1046
 8677TIP3    H125976   6.797   4.145   2.322  0.5964  0.4345 -0.5284
 8677TIP3    H225977   6.882   4.020   2.325  1.0015  0.7322  0.6137
 8678TIP3   OH225978   6.299   5.147   3.825  0.3176  0.1852 -0.1321
 8678TIP3    H125979   6.385   5.148   3.866 -0.4485  0.6437  1.4922
 8678TIP3    H225980   6.242   5.192   3.887 -0.8605  0.9402 -1.7249
 8679TIP3   OH225981   7.672   7.672   4.029 -0.0296  0.3164  0.2312
 8679TIP3    H125982   7.765   7.679   4.052 -0.5845 -0.2311  2.8467
 8679TIP3    H225983   7.650   7.580   4.044 -1.1097  0.5571  0.1526
 8680TIP3   OH225984   5.809   4.997   3.860 -0.4280  0.1722 -0.4157
 8680TIP3    H125985   5.888   4.974   3.812 -1.8089 -0.2679 -2.5741
 8680TIP3    H225986   5.812   4.943   3.939  0.5572 -1.1598 -1.3368
 8681TIP3   OH225987   5.256   6.282   4.354  0.1113 -0.9440  0.5918
 8681TIP3    H125988   5.290   6.193   4.360  2.6176 -0.1216 -0.6210
 8681TIP3    H225989   5.260   6.303   4.261  2.4056  1.4375  1.1538
 8682TIP3   OH225990   5.764   5.328   3.516  0.1188  0.6942  0.2925
 8682TIP3    H125991   5.782   5.239   3.485 -0.1967  0.8656 -0.3987
 8682TIP3    H225992   5.819   5.384   3.462 -1.8996  1.1627 -1.3803
 8683TIP3   OH225993   4.589   7.251   3.323  0.1827  0.2249  0.2265
 8683TIP3    H125994   4.581   7.201   3.242  3.0464 -1.4876  0.9352
 8683TIP3    H225995   4.651   7.202   3.377 -1.6559  1.2956  3.5136
 8684TIP3   OH225996   5.619   6.118   2.934  0.0621  0.1211 -0.2036
 8684TIP3    H125997   5.690   6.060   2.905  0.6298  1.2704 -1.1807
 8684TIP3    H225998   5.662   6.202   2.948 -1.0038  0.6713 -0.2007
 8685TIP3   OH225999   2.687   2.975   0.123 -0.5136 -0.3460 -0.1360
 8685TIP3    H126000   2.606   2.933   0.150 -0.7113 -0.7534 -1.3199
 8685TIP3    H226001   2.666   3.017   0.039  0.4423 -0.3113 -0.3666
 8686TIP3   OH226002   4.554   5.350   2.597  0.4577 -0.1973  0.0099
 8686TIP3    H126003   4.637   5.331   2.640 -0.3141 -0.8617  1.2332
 8686TIP3    H226004   4.494   5.370   2.668 -1.2882 -2.9779 -0.6054
 8687TIP3   OH226005   5.030   6.477   3.430  0.1075  0.6890  0.1906
 8687TIP3    H126006   5.050   6.432   3.511  0.3983 -0.7057 -0.6483
 8687TIP3    H226007   4.949   6.525   3.448  0.3670  0.6741  1.3972
 8688TIP3   OH226008   0.346   0.103   1.914  0.0684  0.5854  0.1023
 8688TIP3    H126009   0.258   0.067   1.927 -1.2894  3.2380 -1.3255
 8688TIP3    H226010   0.378   0.120   2.003 -0.1283 -1.9709  0.6993
 8689TIP3   OH226011   6.505   6.289   5.530  0.2865 -0.1163  0.2431
 8689TIP3    H126012   6.467   6.204   5.508  1.5640 -0.0241 -2.5552
 8689TIP3    H226013   6.533   6.325   5.446  2.2962  1.8538  1.6949
 8690TIP3   OH226014   6.046   6.755   2.377 -0.2825  0.1001 -0.2086
 8690TIP3    H126015   5.958   6.782   2.403 -0.9017 -0.9977 -1.1594
 8690TIP3    H226016   6.081   6.831   2.330 -1.4452 -0.1726 -1.5395
 8691TIP3   OH226017   6.618   6.278   3.528 -0.1566 -0.9136 -0.4414
 8691TIP3    H126018   6.633   6.236   3.443  1.2453 -0.3621 -0.4789
 8691TIP3    H226019   6.704   6.307   3.556 -0.9607  1.2043 -0.0286
 8692TIP3   OH226020   5.561   7.065   1.049 -0.0356 -0.0364  0.0011
 8692TIP3    H126021   5.509   7.143   1.031  0.4681  0.2375 -0.2673
 8692TIP3    H226022   5.648   7.097   1.068  0.1718 -0.5305 -0.0921
 8693TIP3   OH226023   4.669   6.681   2.561 -0.1627  0.3346  0.3253
 8693TIP3    H126024   4.635   6.678   2.472  0.2740  0.4124  0.1549
 8693TIP3    H226025   4.741   6.617   2.562  1.1054  1.7326  0.0775
 8694TIP3   OH226026   5.555   7.103   1.597 -0.2961 -0.0600 -0.6386
 8694TIP3    H126027   5.642   7.063   1.602 -0.2037  0.0772 -1.1242
 8694TIP3    H226028   5.496   7.037   1.632 -0.2669 -1.0105 -2.3156
 8695TIP3   OH226029   5.379   6.574   2.155 -0.0186 -0.1084  0.1993
 8695TIP3    H126030   5.406   6.628   2.229  0.7795  0.8136 -0.7558
 8695TIP3    H226031   5.323   6.631   2.103  1.0346 -0.0901 -0.9464
 8696TIP3   OH226032   6.918   6.623   3.613 -0.0975  0.5055 -0.2772
 8696TIP3    H126033   6.867   6.679   3.554  0.2665  1.1952  0.0449
 8696TIP3    H226034   6.973   6.685   3.662  0.3075 -0.1428  0.0901
 8697TIP3   OH226035   7.124   0.238   2.812  0.2344 -0.0269 -0.0672
 8697TIP3    H126036   7.212   0.259   2.781  0.8322 -0.7723  1.0887
 8697TIP3    H226037   7.118   0.277   2.899 -1.4184  2.0118 -1.0419
 8698TIP3   OH226038   5.542   6.260   3.533  0.2941  0.4279 -0.1027
 8698TIP3    H126039   5.556   6.326   3.466 -0.4808  1.8069  1.0570
 8698TIP3    H226040   5.620   6.264   3.589 -1.1173  2.6461  1.8183
 8699TIP3   OH226041   5.995   6.975   3.084  0.4104 -0.4759 -0.6987
 8699TIP3    H126042   5.931   7.034   3.124  0.5757 -0.2038 -0.8270
 8699TIP3    H226043   5.961   6.887   3.100  0.0591 -0.3373 -0.6756
 8700TIP3   OH226044   8.300   0.239   2.237  0.0628 -0.3465 -0.0213
 8700TIP3    H126045   8.237   0.265   2.170 -0.4241 -2.3597 -0.3790
 8700TIP3    H226046   8.382   0.227   2.189  0.5264  1.4241  0.3015
 8701TIP3   OH226047   4.261   6.674   5.133  0.1822  0.2187  0.7924
 8701TIP3    H126048   4.188   6.687   5.072  0.8028  0.9506  0.1900
 8701TIP3    H226049   4.335   6.719   5.091  0.6993  0.4394  1.9282
 8702TIP3   OH226050   6.077   5.535   5.341  0.3558 -0.2093 -0.3138
 8702TIP3    H126051   6.024   5.509   5.417 -0.5318  1.9095 -0.1906
 8702TIP3    H226052   6.024   5.510   5.265 -1.1763  2.4640 -0.1924
 8703TIP3   OH226053   6.360   7.599   5.064  0.2066  0.2543 -0.0823
 8703TIP3    H126054   6.398   7.570   4.981  1.5294  1.3786  0.1066
 8703TIP3    H226055   6.432   7.644   5.109 -0.7153  0.3671  1.3173
 8704TIP3   OH226056   5.282   7.550   2.864  0.2919 -0.1367  0.5584
 8704TIP3    H126057   5.257   7.493   2.936 -0.0777 -0.3466  0.2629
 8704TIP3    H226058   5.207   7.607   2.850  0.6289  0.3723  0.7995
 8705TIP3   OH226059   4.371   5.599   4.129 -0.5577 -0.0551 -0.0468
 8705TIP3    H126060   4.309   5.659   4.088  0.6633  0.5390 -1.0775
 8705TIP3    H226061   4.443   5.655   4.158 -0.4282 -0.7460  0.9910
 8706TIP3   OH226062   4.340   6.457   2.755  0.5294  0.1027 -0.4715
 8706TIP3    H126063   4.279   6.402   2.706 -1.7916  0.8072  1.5302
 8706TIP3    H226064   4.366   6.403   2.829  1.5131  0.2223 -0.7172
 8707TIP3   OH226065   7.289   7.486   3.933 -0.5107 -0.3806  0.4590
 8707TIP3    H126066   7.383   7.483   3.950 -0.3191  0.6885 -0.3603
 8707TIP3    H226067   7.280   7.551   3.863 -1.7083 -1.5518 -0.4781
 8708TIP3   OH226068   5.890   4.979   4.354  0.8494  0.6452  0.9722
 8708TIP3    H126069   5.840   5.057   4.376  0.8240  0.7799  0.4522
 8708TIP3    H226070   5.852   4.910   4.408 -2.1049  0.0376 -1.7347
 8709TIP3   OH226071   7.072   7.359   2.447  0.3318 -0.3140  0.2958
 8709TIP3    H126072   7.013   7.408   2.504 -0.0676  0.2391 -0.5794
 8709TIP3    H226073   7.132   7.426   2.412  0.0539 -0.5127 -0.5664
 8710TIP3   OH226074   5.908   6.151   2.636  0.4214 -0.8665 -0.3532
 8710TIP3    H126075   5.935   6.116   2.721 -1.0788 -0.7650  0.1701
 8710TIP3    H226076   5.818   6.120   2.625  0.1017  0.3586 -1.2260
 8711TIP3   OH226077   7.745   6.226   4.027 -0.3538  0.0253 -0.5041
 8711TIP3    H126078   7.741   6.205   3.934 -0.5039  1.2146 -0.7851
 8711TIP3    H226079   7.823   6.281   4.035 -0.2875 -0.1553  0.0910
 8712TIP3   OH226080   7.086   3.800   4.549  0.0417  0.0061 -0.3382
 8712TIP3    H126081   7.118   3.740   4.616  1.3562  1.5296  0.4256
 8712TIP3    H226082   7.025   3.748   4.497 -0.7196 -1.2818  1.8138
 8713TIP3   OH226083   7.025   7.381   3.219  0.4816  0.1455  0.0468
 8713TIP3    H126084   7.065   7.435   3.287  0.3751  0.4130 -0.1035
 8713TIP3    H226085   7.006   7.298   3.263  1.4435 -0.0770  0.0438
 8714TIP3   OH226086   4.645   4.599   2.916  0.0045 -0.5472 -0.1507
 8714TIP3    H126087   4.702   4.523   2.903  0.8575  0.3287 -1.7845
 8714TIP3    H226088   4.563   4.575   2.874 -0.1304 -0.9992  0.3571
 8715TIP3   OH226089   7.015   7.133   3.332  0.0817  0.2718  0.4116
 8715TIP3    H126090   7.066   7.087   3.399 -0.5298  1.3824  1.6508
 8715TIP3    H226091   6.942   7.074   3.313  1.0972 -0.7500 -0.4480
 8716TIP3   OH226092   5.069   7.003   3.917 -0.0598 -0.3606 -0.3391
 8716TIP3    H126093   5.160   7.011   3.889  0.1127 -2.8719 -0.6552
 8716TIP3    H226094   5.040   7.093   3.933  1.9149  0.5945 -1.9744
 8717TIP3   OH226095   1.316   0.644   2.704 -0.2630 -0.2732 -0.1846
 8717TIP3    H126096   1.269   0.716   2.747 -1.3568 -1.0313 -0.0874
 8717TIP3    H226097   1.256   0.614   2.636 -1.0616 -3.0039  1.6539
 8718TIP3   OH226098   4.521   7.509   5.387 -0.0628  0.6410 -0.1057
 8718TIP3    H126099   4.482   7.545   5.308  0.1929  1.7467  0.2530
 8718TIP3    H226100   4.448   7.499   5.448 -0.5581 -1.9615 -1.0893
 8719TIP3   OH226101   4.111   6.866   3.373  0.0257 -0.5138 -0.2085
 8719TIP3    H126102   4.099   6.950   3.417  1.5534 -0.1044 -0.5627
 8719TIP3    H226103   4.066   6.803   3.430  0.0584  0.3281  0.7714
 8720TIP3   OH226104   3.754   7.157   4.410  0.1327  0.3204  0.0681
 8720TIP3    H126105   3.771   7.229   4.351 -1.1575  0.6422  0.0753
 8720TIP3    H226106   3.815   7.088   4.383  1.6907  1.5525  0.3603
 8721TIP3   OH226107   3.906   7.762   3.847  0.0651  0.0483 -0.2060
 8721TIP3    H126108   3.890   7.836   3.787  1.0259 -0.1732 -0.7513
 8721TIP3    H226109   3.899   7.800   3.934 -2.8780  0.0743 -0.4030
 8722TIP3   OH226110   6.319   1.088   4.251  0.7497  0.0192  0.3114
 8722TIP3    H126111   6.372   1.051   4.181 -0.3998 -0.6862 -0.1942
 8722TIP3    H226112   6.264   1.016   4.281 -0.8656  1.0539 -0.0674
 8723TIP3   OH226113   3.556   6.729   3.291 -0.0201  0.3280  0.2930
 8723TIP3    H126114   3.524   6.805   3.242  0.3212  0.5325  0.3822
 8723TIP3    H226115   3.638   6.760   3.331 -0.8069  0.4823  1.8149
 8724TIP3   OH226116   4.494   5.950   2.105 -0.2545  0.2895 -0.1253
 8724TIP3    H126117   4.415   5.896   2.097 -1.0018  1.3149  0.2989
 8724TIP3    H226118   4.560   5.903   2.054 -1.3666 -0.1150 -1.2117
 8725TIP3   OH226119   4.630   7.059   2.832  0.1404 -0.6905  0.1326
 8725TIP3    H126120   4.722   7.064   2.807  0.1681  0.1704  0.3787
 8725TIP3    H226121   4.586   7.122   2.774 -0.1570 -0.4370  0.6307
 8726TIP3   OH226122   6.593   6.621   2.671 -0.2196 -0.0904 -0.1182
 8726TIP3    H126123   6.542   6.586   2.744  0.0083  0.4565  0.3026
 8726TIP3    H226124   6.651   6.548   2.646 -0.9888 -0.6078 -0.4041
 8727TIP3   OH226125   5.915   7.115   4.942  0.4538 -0.6344  0.4022
 8727TIP3    H126126   5.977   7.189   4.945 -0.6605  0.4344 -1.5702
 8727TIP3    H226127   5.867   7.121   5.025  0.7002  0.5773  0.4778
 8728TIP3   OH226128   5.115   4.270   2.807  0.0160  0.3514 -0.2334
 8728TIP3    H126129   5.143   4.360   2.789 -0.8614  0.9034  1.0597
 8728TIP3    H226130   5.192   4.227   2.845  0.0261  0.9780  0.4704
 8729TIP3   OH226131   5.065   7.706   5.796  0.4814 -0.1880  0.5045
 8729TIP3    H126132   4.985   7.716   5.743 -0.2143  0.0551  1.5859
 8729TIP3    H226133   5.134   7.694   5.731 -0.5050 -0.9501 -0.4353
 8730TIP3   OH226134   3.817   7.084   3.320 -0.3810  0.3015  0.4216
 8730TIP3    H126135   3.873   7.145   3.369  0.0917  0.5953 -0.4744
 8730TIP3    H226136   3.787   7.135   3.245  0.0072 -0.5802 -0.3316
 8731TIP3   OH226137   5.322   5.903   2.643  0.4393  0.7139 -0.3013
 8731TIP3    H126138   5.315   5.994   2.670 -0.7793  0.7782 -0.8100
 8731TIP3    H226139   5.258   5.857   2.697 -0.4448  0.4997 -1.4929
 8732TIP3   OH226140   4.571   6.592   4.286  0.5476  0.6810 -0.4125
 8732TIP3    H126141   4.648   6.543   4.315  0.9099  1.4867  0.0140
 8732TIP3    H226142   4.606   6.657   4.225  0.0947  0.5453 -0.8234
 8733TIP3   OH226143   5.836   5.186   2.368 -0.5339  0.0976 -0.3246
 8733TIP3    H126144   5.754   5.224   2.338 -0.2993  0.8139 -0.0633
 8733TIP3    H226145   5.810   5.118   2.430 -0.9392  0.1567 -0.4311
 8734TIP3   OH226146   7.102   7.076   4.943 -0.3288  0.4479 -0.0954
 8734TIP3    H126147   7.140   7.005   4.994  0.6939  1.0829  0.0338
 8734TIP3    H226148   7.040   7.033   4.884 -1.5964 -0.2825  1.7257
 8735TIP3   OH226149   5.422   6.721   2.919  0.2158  0.1440 -0.5080
 8735TIP3    H126150   5.382   6.806   2.898  1.6967  1.0689  0.3388
 8735TIP3    H226151   5.451   6.687   2.834 -1.3472 -0.0411 -0.9980
 8736TIP3   OH226152   3.624   5.688   2.201 -0.5283 -0.6540  0.5489
 8736TIP3    H126153   3.624   5.668   2.108  0.1864 -0.0624  0.4122
 8736TIP3    H226154   3.635   5.603   2.244  3.4818 -0.5376 -0.0542
 8737TIP3   OH226155   7.747   0.483   2.560  0.5290 -0.1627  0.4647
 8737TIP3    H126156   7.804   0.419   2.516 -0.5683 -0.3572 -0.7149
 8737TIP3    H226157   7.761   0.564   2.512 -2.7978 -1.0451 -2.1486
 8738TIP3   OH226158   4.025   5.218   2.524 -0.1362  0.3510 -0.2735
 8738TIP3    H126159   4.001   5.228   2.616  0.9883 -0.9331  0.1731
 8738TIP3    H226160   4.056   5.305   2.498 -0.3923  0.7025  0.5797
 8739TIP3   OH226161   4.164   5.213   4.559 -0.0565 -0.4232 -0.2005
 8739TIP3    H126162   4.190   5.222   4.651 -0.7995  0.8753 -0.0932
 8739TIP3    H226163   4.230   5.262   4.511 -0.7873  0.6147 -0.1659
 8740TIP3   OH226164   4.382   7.795   5.120  0.3744  0.2904  0.3712
 8740TIP3    H126165   4.396   7.880   5.078  1.1908  0.0093  0.0665
 8740TIP3    H226166   4.460   7.781   5.173 -0.0195 -0.0064  0.8844
 8741TIP3   OH226167   4.960   6.439   5.018 -0.1289 -0.7087  0.5439
 8741TIP3    H126168   4.893   6.382   5.055 -1.2278 -1.4123 -2.3324
 8741TIP3    H226169   4.935   6.447   4.925  3.2723 -0.2820 -0.3984
 8742TIP3   OH226170   7.671   6.693   3.231 -0.6134 -0.0762  0.4923
 8742TIP3    H126171   7.725   6.625   3.273  1.4401  1.6683  0.7808
 8742TIP3    H226172   7.705   6.697   3.142  0.1322  1.4076  0.8276
 8743TIP3   OH226173   3.698   6.633   4.958 -0.0221 -0.3232 -0.3923
 8743TIP3    H126174   3.789   6.603   4.958 -0.0314 -0.3518 -1.1620
 8743TIP3    H226175   3.667   6.616   4.869 -1.1523 -1.4642  0.2050
 8744TIP3   OH226176   5.902   5.761   4.122  0.0303 -0.5039  0.2219
 8744TIP3    H126177   5.825   5.714   4.154  0.3607 -0.3465  1.2595
 8744TIP3    H226178   5.971   5.694   4.119 -0.1072 -0.6182 -0.5912
 8745TIP3   OH226179   5.577   5.445   4.475 -0.5640  0.3027  0.1286
 8745TIP3    H126180   5.640   5.498   4.425  1.0565 -1.5851  0.0993
 8745TIP3    H226181   5.493   5.488   4.460  0.2274  1.0871 -2.3870
 8746TIP3   OH226182   5.531   6.035   4.422  0.2123 -0.9745 -0.5859
 8746TIP3    H126183   5.529   6.073   4.334  0.0176 -1.5376 -0.8320
 8746TIP3    H226184   5.560   5.945   4.408 -1.1171 -1.4828 -0.2332
 8747TIP3   OH226185   5.560   7.207   5.386 -0.2924 -0.2641  0.3196
 8747TIP3    H126186   5.617   7.217   5.463  0.9180  1.1544 -0.7395
 8747TIP3    H226187   5.513   7.290   5.380 -0.5677 -0.4658 -0.3329
 8748TIP3   OH226188   4.469   5.958   5.128  0.3014 -0.1120 -0.6618
 8748TIP3    H126189   4.560   5.977   5.152 -0.4829  0.4573  2.0471
 8748TIP3    H226190   4.457   6.002   5.044  2.6808 -0.6670 -1.3312
 8749TIP3   OH226191   4.565   4.944   3.713 -0.5398  0.1447  0.2994
 8749TIP3    H126192   4.518   4.881   3.659 -0.3828  1.7197 -1.7170
 8749TIP3    H226193   4.656   4.913   3.712 -0.0806  1.4390 -2.3178
 8750TIP3   OH226194   7.751   4.567   5.142 -0.2139 -0.0172 -0.2601
 8750TIP3    H126195   7.798   4.645   5.170 -0.5164 -0.2381  0.8722
 8750TIP3    H226196   7.816   4.497   5.146 -0.6591 -0.3433  1.4119
 8751TIP3   OH226197   7.468  -0.021   1.736  0.5313  0.1371 -0.0896
 8751TIP3    H126198   7.549   0.008   1.777  0.5980  0.1906 -0.2617
 8751TIP3    H226199   7.405   0.048   1.755  0.4024 -0.1232  0.4472
 8752TIP3   OH226200   3.790   6.750   1.438 -0.3901  1.0041  0.0599
 8752TIP3    H126201   3.874   6.754   1.484 -0.1059 -1.3605 -0.2118
 8752TIP3    H226202   3.811   6.772   1.347 -0.0570  0.3698 -0.0163
 8753TIP3   OH226203   6.017   7.470   2.578 -0.0984  0.1425  0.1288
 8753TIP3    H126204   5.921   7.470   2.574 -0.0788  1.2453 -0.5848
 8753TIP3    H226205   6.041   7.562   2.570  1.0922 -0.2881 -1.3760
 8754TIP3   OH226206   3.789   6.945   5.381 -0.5870 -0.1103  0.0375
 8754TIP3    H126207   3.789   7.025   5.329 -0.4616 -0.1802 -0.0682
 8754TIP3    H226208   3.761   6.876   5.321 -0.0868 -0.2543 -0.0316
 8755TIP3   OH226209   6.558   7.760   3.116 -0.1275 -0.5266  0.4673
 8755TIP3    H126210   6.534   7.749   3.208 -0.0012 -0.4228  0.5130
 8755TIP3    H226211   6.606   7.680   3.094  2.0668  0.5466  1.2117
 8756TIP3   OH226212   8.287   7.508   3.571  0.4099 -0.7727  0.0934
 8756TIP3    H126213   8.220   7.502   3.503  0.7174 -0.7436 -0.2166
 8756TIP3    H226214   8.256   7.577   3.629  0.3052 -0.5694 -0.1993
 8757TIP3   OH226215   2.828   0.799   4.339  0.6378 -0.5792  0.0165
 8757TIP3    H126216   2.855   0.725   4.394  0.9803 -0.9076 -0.5824
 8757TIP3    H226217   2.877   0.787   4.258  0.0043 -0.2005 -0.4278
 8758TIP3   OH226218   8.344   5.407   1.364 -0.2218  0.8844  0.2580
 8758TIP3    H126219   8.328   5.489   1.316  0.2963  0.3381 -0.8687
 8758TIP3    H226220   8.375   5.346   1.297 -0.8438 -0.3171  1.0481
 8759TIP3   OH226221   6.967   6.999   4.305  0.3776  0.1367 -0.8625
 8759TIP3    H126222   7.043   7.055   4.315  0.3391 -0.3179  2.3955
 8759TIP3    H226223   7.002   6.910   4.306 -0.1769 -0.0782  0.7392
 8760TIP3   OH226224   5.204   6.918   2.420  0.3682 -0.1096  0.1024
 8760TIP3    H126225   5.118   6.880   2.436 -0.7173  1.7579 -1.1228
 8760TIP3    H226226   5.262   6.843   2.410 -1.1668 -1.3908  0.5960
 8761TIP3   OH226227   5.230   7.767   3.491  0.0649 -0.4868  0.4878
 8761TIP3    H126228   5.305   7.788   3.546 -1.1052  0.4791  1.7865
 8761TIP3    H226229   5.168   7.724   3.551 -0.3523 -1.3886 -0.5866
 8762TIP3   OH226230   0.128   6.518   3.345 -0.2663 -0.7172 -0.3619
 8762TIP3    H126231   0.086   6.478   3.421  0.0788  0.7538  0.6171
 8762TIP3    H226232   0.148   6.444   3.287 -0.2116 -1.8930  1.1330
 8763TIP3   OH226233   7.460   4.031   2.542  0.4344 -0.3850  0.0562
 8763TIP3    H126234   7.439   4.035   2.635  0.5678 -0.5881  0.0948
 8763TIP3    H226235   7.550   3.999   2.538  0.4412 -0.3487 -0.1403
 8764TIP3   OH226236   4.908   5.623   2.852 -0.0103 -0.0140  0.7042
 8764TIP3    H126237   4.814   5.636   2.840 -0.0559  0.0048  1.0889
 8764TIP3    H226238   4.926   5.652   2.941  0.4697  0.5835  0.4208
 8765TIP3   OH226239   7.837   6.893   4.617  0.4451 -0.2120  0.2014
 8765TIP3    H126240   7.799   6.940   4.543  0.0683 -1.9420 -0.7236
 8765TIP3    H226241   7.763   6.844   4.654  0.5010  1.0531  2.0782
 8766TIP3   OH226242   3.136   7.919   2.001 -0.1900  0.1913 -0.4338
 8766TIP3    H126243   3.203   7.978   1.967  0.3829 -0.1678  0.0573
 8766TIP3    H226244   3.062   7.930   1.942  0.9018 -0.6860 -2.0092
 8767TIP3   OH226245   7.171   7.162   4.374  0.0059  0.2304  0.5594
 8767TIP3    H126246   7.144   7.209   4.452 -3.6669 -0.7360 -0.0206
 8767TIP3    H226247   7.161   7.226   4.303 -0.3772 -0.0009  0.4020
 8768TIP3   OH226248   5.442   5.128   1.834 -0.0116 -0.3435  0.3203
 8768TIP3    H126249   5.510   5.060   1.834 -0.6402 -1.0179  2.1644
 8768TIP3    H226250   5.389   5.109   1.912  0.1164  2.5610  1.1880
 8769TIP3   OH226251   6.032   5.903   1.906 -1.0297  0.0868 -0.3058
 8769TIP3    H126252   5.977   5.877   1.832 -1.2331 -1.1139  0.2503
 8769TIP3    H226253   6.078   5.822   1.931  0.7716  0.9956 -0.5705
 8770TIP3   OH226254   5.200   6.303   3.604  0.1063  0.1486  0.1145
 8770TIP3    H126255   5.250   6.239   3.553  0.5530  0.1242  0.5772
 8770TIP3    H226256   5.255   6.381   3.604  0.1614  0.1128  0.6513
 8771TIP3   OH226257   6.178   6.313   3.445  0.0338  0.0374 -0.4976
 8771TIP3    H126258   6.134   6.307   3.360  0.9378  0.7817 -1.0266
 8771TIP3    H226259   6.261   6.357   3.426 -0.3055  1.3544  0.9749
 8772TIP3   OH226260   6.999   4.189   5.296  0.0066 -0.5319  0.1970
 8772TIP3    H126261   7.031   4.195   5.386 -0.1422 -0.7247  0.2616
 8772TIP3    H226262   6.914   4.233   5.297  0.6112  0.6763 -0.1429
 8773TIP3   OH226263   4.355   5.765   3.825  0.1637  0.3772 -0.4399
 8773TIP3    H126264   4.420   5.698   3.846 -1.0614 -0.5595  0.4326
 8773TIP3    H226265   4.309   5.732   3.749 -1.7699 -0.7426  1.1766
 8774TIP3   OH226266   6.635   4.800   3.423 -0.1742  0.5251 -0.1188
 8774TIP3    H126267   6.676   4.720   3.391  0.8922  0.0000  2.4575
 8774TIP3    H226268   6.639   4.793   3.518  0.0102  3.6973  0.1591
 8775TIP3   OH226269   3.234   5.626   3.611 -0.3282  0.7073 -0.1507
 8775TIP3    H126270   3.260   5.591   3.526 -0.1646  0.5060 -0.0196
 8775TIP3    H226271   3.238   5.550   3.670 -0.6905  0.7906 -0.0186
 8776TIP3   OH226272   3.853   6.926   3.652 -0.1932 -0.3601 -0.6408
 8776TIP3    H126273   3.807   6.946   3.733 -0.4702 -1.3442 -0.5530
 8776TIP3    H226274   3.920   6.862   3.677  0.6334  0.3862 -0.9335
 8777TIP3   OH226275   1.967   0.037   4.652  0.0671  0.0495 -0.7244
 8777TIP3    H126276   1.976   0.127   4.620 -0.1680  0.8992  1.5352
 8777TIP3    H226277   1.888   0.038   4.706 -0.0609 -1.5694 -0.8592
 8778TIP3   OH226278   6.196   6.639   2.589 -0.2851 -0.8761 -0.4386
 8778TIP3    H126279   6.117   6.627   2.536 -0.2676 -0.5861 -0.5316
 8778TIP3    H226280   6.255   6.570   2.559  0.0827 -0.1241 -1.4700
 8779TIP3   OH226281   3.255   5.854   3.203  0.3725 -0.3463 -0.7183
 8779TIP3    H126282   3.275   5.815   3.118  1.1050  0.1480 -0.7799
 8779TIP3    H226283   3.326   5.824   3.260 -0.2534 -0.8862 -0.2093
 8780TIP3   OH226284   5.207   4.920   3.207 -0.5479  0.3783  0.2162
 8780TIP3    H126285   5.237   4.997   3.159 -1.5963  0.8501  0.3024
 8780TIP3    H226286   5.128   4.892   3.161  1.1512 -2.1170 -1.2747
 8781TIP3   OH226287   4.317   6.893   3.994 -0.4337  0.0778 -0.3628
 8781TIP3    H126288   4.395   6.837   4.002 -0.4313  0.3360  1.5653
 8781TIP3    H226289   4.339   6.953   3.923 -0.7277 -2.7994 -3.0142
 8782TIP3   OH226290   4.793   6.323   2.802 -0.2079 -0.2409 -0.4295
 8782TIP3    H126291   4.782   6.381   2.878  1.0576 -0.8334  0.2383
 8782TIP3    H226292   4.729   6.253   2.816 -0.3534 -0.0575 -0.1746
 8783TIP3   OH226293   6.468   5.248   3.391 -0.6505  0.3537 -0.6973
 8783TIP3    H126294   6.381   5.262   3.429 -1.2513 -1.6650 -1.2762
 8783TIP3    H226295   6.529   5.265   3.463 -1.5392  1.3245 -0.1637
 8784TIP3   OH226296   7.202   0.885   3.819 -0.0682 -0.4298 -0.0447
 8784TIP3    H126297   7.284   0.856   3.858 -0.5712 -2.1409 -0.1957
 8784TIP3    H226298   7.216   0.878   3.725 -0.5403 -1.2092 -0.0636
 8785TIP3   OH226299   6.271   0.085   3.731 -0.1238 -0.1272 -0.2622
 8785TIP3    H126300   6.338   0.146   3.762 -0.2272  0.8444 -1.9178
 8785TIP3    H226301   6.195   0.103   3.787  0.7463 -0.7145  1.1227
 8786TIP3   OH226302   6.217   6.255   4.217 -0.2132 -0.7098 -0.0931
 8786TIP3    H126303   6.147   6.231   4.156  1.3605  0.5537 -2.4911
 8786TIP3    H226304   6.288   6.194   4.198  1.7275  2.0686 -2.3425
 8787TIP3   OH226305   7.001   6.201   3.889 -0.5223 -0.1451 -0.1895
 8787TIP3    H126306   6.950   6.274   3.924 -0.7213  0.0711 -0.9236
 8787TIP3    H226307   7.030   6.231   3.803  0.7703 -0.2976  0.1867
 8788TIP3   OH226308   4.306   7.747   2.736  0.8373 -0.0274  0.2426
 8788TIP3    H126309   4.240   7.807   2.773  0.5126  0.3725 -0.9706
 8788TIP3    H226310   4.272   7.725   2.649  2.1295 -0.0980 -0.2513
 8789TIP3   OH226311   5.083   6.712   1.847  0.5175 -0.1405 -0.2794
 8789TIP3    H126312   5.005   6.705   1.903  0.2272 -2.9383 -0.9558
 8789TIP3    H226313   5.152   6.743   1.906 -1.0012  2.0994  0.3961
 8790TIP3   OH226314   6.317   7.620   4.307 -0.2992 -0.0297  0.3564
 8790TIP3    H126315   6.269   7.538   4.321  0.9220 -0.6559  0.8985
 8790TIP3    H226316   6.409   7.596   4.313  0.0755  1.3542  0.3626
 8791TIP3   OH226317   5.928   4.894   2.381 -0.0823  0.6208 -0.1577
 8791TIP3    H126318   5.838   4.903   2.415  0.0104  2.0691 -0.2818
 8791TIP3    H226319   5.980   4.954   2.434  0.6525  0.4872 -0.7202
 8792TIP3   OH226320   6.461   5.182   2.768  0.1470 -0.0869  0.5839
 8792TIP3    H126321   6.554   5.159   2.764  0.2551  0.4540 -0.2111
 8792TIP3    H226322   6.457   5.256   2.828  0.0606 -0.9025  1.5948
 8793TIP3   OH226323   5.628   7.192   3.853 -0.2511 -0.4446 -0.1562
 8793TIP3    H126324   5.539   7.185   3.887  0.3292 -0.1709  1.4475
 8793TIP3    H226325   5.673   7.251   3.914  0.4560  1.1371 -2.1166
 8794TIP3   OH226326   2.421   7.956   3.059 -0.0619 -0.0997 -0.1753
 8794TIP3    H126327   2.496   7.897   3.056  0.0462 -0.0236  0.9689
 8794TIP3    H226328   2.351   7.905   3.099 -0.2459  0.2397 -0.0558
 8795TIP3   OH226329   4.866   7.230   3.429 -0.4420 -0.1066  1.0283
 8795TIP3    H126330   4.931   7.289   3.468 -1.0854 -0.0552  2.0481
 8795TIP3    H226331   4.918   7.160   3.390  0.2254 -0.2672  2.1641
 8796TIP3   OH226332   7.481   7.301   4.477  0.3079 -0.4317  0.2813
 8796TIP3    H126333   7.409   7.356   4.446  0.8876 -0.2404 -0.7328
 8796TIP3    H226334   7.440   7.217   4.497 -0.3821  0.0049  0.7501
 8797TIP3   OH226335   5.714   7.291   4.538 -0.0223 -0.2305  0.3613
 8797TIP3    H126336   5.779   7.345   4.493 -1.5992  0.3751 -1.2638
 8797TIP3    H226337   5.755   7.206   4.548  1.5545  0.5461  0.6760
 8798TIP3   OH226338   5.222   6.586   3.196 -0.5172 -0.0837  0.2810
 8798TIP3    H126339   5.252   6.565   3.107 -0.4905 -0.1018  0.2940
 8798TIP3    H226340   5.226   6.503   3.243  3.1129  0.6078  1.3521
 8799TIP3   OH226341   6.979   4.806   2.948  0.4274  0.2482 -0.4949
 8799TIP3    H126342   6.968   4.732   3.008 -1.7283  0.4915 -0.5617
 8799TIP3    H226343   7.066   4.793   2.909  0.7892 -1.2790  0.7942
 8800TIP3   OH226344   5.716   4.993   2.518 -0.5711  0.0925 -0.4829
 8800TIP3    H126345   5.727   4.992   2.613 -1.6298  2.0151 -0.3114
 8800TIP3    H226346   5.643   4.934   2.502 -1.0372  0.5377 -0.0068
 8801TIP3   OH226347   6.269   3.880   2.922  0.0669  0.1783 -0.1987
 8801TIP3    H126348   6.306   3.828   2.851  1.6493  2.2335 -0.9410
 8801TIP3    H226349   6.198   3.929   2.881  2.7152  3.4453 -1.1382
 8802TIP3   OH226350   6.423   4.301   4.332 -0.3958  0.1123  0.0684
 8802TIP3    H126351   6.363   4.363   4.291  0.5181  0.8549 -0.1407
 8802TIP3    H226352   6.501   4.302   4.276  1.1227  1.6038  2.1568
 8803TIP3   OH226353   2.940   7.700   2.818 -0.4100 -0.0656 -0.3554
 8803TIP3    H126354   3.030   7.723   2.840 -0.4563  0.4228 -0.6597
 8803TIP3    H226355   2.900   7.676   2.902  0.0238 -0.3620 -0.2328
 8804TIP3   OH226356   2.668   7.032   5.307  0.4643 -0.0547  0.1511
 8804TIP3    H126357   2.693   7.119   5.276  1.1473  0.0877  1.0955
 8804TIP3    H226358   2.575   7.040   5.330  0.4910  0.3803  0.1032
 8805TIP3   OH226359   6.974   0.270   3.678 -0.5570 -0.0455  0.2090
 8805TIP3    H126360   7.001   0.180   3.658 -1.0124 -0.2333  0.4281
 8805TIP3    H226361   7.042   0.302   3.738 -0.5359 -0.3339  0.3414
 8806TIP3   OH226362   8.200   0.622   3.463  0.0082 -0.8046 -0.0836
 8806TIP3    H126363   8.198   0.646   3.371 -0.0103  1.3270  0.4621
 8806TIP3    H226364   8.269   0.676   3.501  1.9502 -3.6419  0.6416
 8807TIP3   OH226365   4.745   7.476   2.886 -0.4565 -0.2572 -0.1870
 8807TIP3    H126366   4.717   7.563   2.917 -0.2664 -0.3482  0.2480
 8807TIP3    H226367   4.684   7.454   2.816  0.4298  0.9158 -1.3685
 8808TIP3   OH226368   7.186   6.268   5.033  0.0698  0.0171 -0.2957
 8808TIP3    H126369   7.215   6.186   5.074 -1.4487  0.3251  1.4330
 8808TIP3    H226370   7.105   6.290   5.078  0.3699  2.3930 -0.8658
 8809TIP3   OH226371   3.947   5.106   4.386 -0.3466  0.6252  0.0003
 8809TIP3    H126372   4.035   5.131   4.414  0.5952 -2.7068  0.2782
 8809TIP3    H226373   3.961   5.048   4.311 -2.3172  0.5123 -0.3004
 8810TIP3   OH226374   3.366   6.275   4.122  0.2612  0.1278  0.3358
 8810TIP3    H126375   3.322   6.238   4.045 -1.0233  0.8579  0.6943
 8810TIP3    H226376   3.457   6.246   4.114 -0.0067 -0.3816 -1.0887
 8811TIP3   OH226377   5.918   5.505   5.561 -0.3816 -0.3905 -0.3164
 8811TIP3    H126378   5.850   5.573   5.565  0.7038  0.6069  2.5752
 8811TIP3    H226379   5.877   5.429   5.603  0.2546  0.2192  1.4513
 8812TIP3   OH226380   5.167   7.095   2.203  0.4329 -0.6527 -0.1494
 8812TIP3    H126381   5.159   7.176   2.253 -1.7861 -1.0285  0.1649
 8812TIP3    H226382   5.203   7.031   2.265 -1.2078 -0.8133  0.6802
 8813TIP3   OH226383   7.000   7.757   4.849  0.6486  0.5840 -0.3031
 8813TIP3    H126384   6.998   7.847   4.816 -0.2396  0.3001 -1.0728
 8813TIP3    H226385   7.092   7.734   4.851  0.7547  0.5979 -2.7283
 8814TIP3   OH226386   8.142   3.512   3.385 -0.5915  0.5267 -0.7790
 8814TIP3    H126387   8.176   3.586   3.333 -1.2254 -0.3059 -2.4306
 8814TIP3    H226388   8.212   3.448   3.384 -1.2694 -0.2258 -2.1808
 8815TIP3   OH226389   4.976   7.411   2.689 -0.4296  0.2831 -0.1314
 8815TIP3    H126390   4.903   7.389   2.631 -1.0204  0.1548  0.6552
 8815TIP3    H226391   4.935   7.456   2.763  0.3717  0.8537 -0.0301
 8816TIP3   OH226392   7.683   7.402   4.339 -0.3473  0.7049  0.3560
 8816TIP3    H126393   7.684   7.498   4.339 -0.5839  0.7118 -0.6635
 8816TIP3    H226394   7.604   7.380   4.390 -1.1346  1.0768 -0.6787
 8817TIP3   OH226395   8.036   7.672   3.129 -0.1068  0.5314 -0.0733
 8817TIP3    H126396   7.986   7.710   3.201  0.4448 -1.0664  1.2084
 8817TIP3    H226397   8.006   7.718   3.051 -2.0947  0.9878  0.9278
 8818TIP3   OH226398   6.177   5.779   5.401  0.3045 -0.2961 -0.0521
 8818TIP3    H126399   6.132   5.702   5.365 -0.3539 -0.1796  0.5241
 8818TIP3    H226400   6.185   5.838   5.326 -1.1105 -0.0320 -0.0177
 8819TIP3   OH226401   6.748   5.404   2.201 -0.3782  0.2462  0.0837
 8819TIP3    H126402   6.668   5.452   2.177  0.7890  1.4877 -1.4092
 8819TIP3    H226403   6.819   5.459   2.169  1.0431 -1.7024 -0.1549
 8820TIP3   OH226404   7.949   7.857   2.956 -0.3383 -0.0703 -0.1754
 8820TIP3    H126405   7.934   7.942   2.914  1.8488  1.0499  1.2904
 8820TIP3    H226406   7.943   7.794   2.884 -2.7701  1.2006 -1.1506
 8821TIP3   OH226407   8.458   7.774   4.576  0.3360  0.2970  0.3855
 8821TIP3    H126408   8.421   7.699   4.622 -1.2519  0.2460 -0.9079
 8821TIP3    H226409   8.541   7.743   4.541  0.0535 -0.6317  0.5376
 8822TIP3   OH226410   7.877   6.366   4.582  0.2236  0.0891 -0.2939
 8822TIP3    H126411   7.825   6.311   4.641 -0.1787  0.0120 -0.7111
 8822TIP3    H226412   7.966   6.360   4.615 -0.0707  0.3984  0.5669
 8823TIP3   OH226413   5.996   5.186   2.135 -0.0491  0.3244  0.2585
 8823TIP3    H126414   6.089   5.202   2.154 -0.4834  0.9832  1.9116
 8823TIP3    H226415   5.953   5.190   2.220 -1.4827 -0.8671 -0.3825
 8824TIP3   OH226416   4.878   4.905   4.046 -0.2233 -0.0642 -0.2485
 8824TIP3    H126417   4.926   4.843   3.992 -1.4978 -0.1890 -1.2732
 8824TIP3    H226418   4.894   4.877   4.136  0.7808 -0.6966 -0.6168
 8825TIP3   OH226419   2.488   0.510   2.466  0.1038  0.0049  0.0361
 8825TIP3    H126420   2.420   0.531   2.529  0.8174  1.0013  0.4775
 8825TIP3    H226421   2.536   0.437   2.505 -1.0204 -1.0452 -0.5136
 8826TIP3   OH226422   8.238   3.373   2.226  0.3061 -0.7405 -0.5747
 8826TIP3    H126423   8.276   3.366   2.138  1.7796 -0.7303  0.0463
 8826TIP3    H226424   8.243   3.285   2.262  0.3955 -0.5905 -0.2167
 8827TIP3   OH226425   7.328   6.563   2.750  0.3590  0.0934 -0.0214
 8827TIP3    H126426   7.386   6.580   2.824 -0.8890  1.8847  0.5664
 8827TIP3    H226427   7.247   6.532   2.789  1.2873 -3.6044 -0.9086
 8828TIP3   OH226428   8.419   6.258   3.014 -0.1256  0.0268  0.3385
 8828TIP3    H126429   8.384   6.241   3.101 -1.0639 -0.0755 -0.0550
 8828TIP3    H226430   8.357   6.217   2.954  1.1241 -0.8912 -0.3378
 8829TIP3   OH226431   0.297   1.296   2.250  0.0811 -0.5387  0.3761
 8829TIP3    H126432   0.207   1.285   2.219  0.6241 -1.3626 -0.9475
 8829TIP3    H226433   0.327   1.207   2.270  0.9481 -0.3859 -0.1953
 8830TIP3   OH226434   5.493   6.380   2.959  0.1236  0.1435 -0.1013
 8830TIP3    H126435   5.498   6.387   3.054 -1.9331  0.6741 -0.0083
 8830TIP3    H226436   5.505   6.287   2.941  2.1716  0.2535  0.5243
 8831TIP3   OH226437   0.278   7.321   2.250 -0.1437 -0.5898 -0.5338
 8831TIP3    H126438   0.269   7.400   2.197 -1.2840 -0.9888 -0.9420
 8831TIP3    H226439   0.241   7.251   2.196  0.5305 -1.3501 -0.0314
 8832TIP3   OH226440   4.929   4.951   3.558 -0.6778  0.1788 -0.2936
 8832TIP3    H126441   5.003   4.981   3.505 -0.0015  3.1222  2.1894
 8832TIP3    H226442   4.853   4.957   3.499  0.1277  2.8324 -1.1387
 8833TIP3   OH226443   1.091   1.129   4.891 -0.1119  0.3738  0.2010
 8833TIP3    H126444   1.089   1.190   4.818  0.3765 -1.9212 -1.7832
 8833TIP3    H226445   1.041   1.172   4.960 -2.6400  1.5591 -2.2866
 8834TIP3   OH226446   5.350   5.145   2.130  0.3939 -0.5798  0.6561
 8834TIP3    H126447   5.331   5.060   2.091 -1.8483  0.5688 -0.8614
 8834TIP3    H226448   5.278   5.160   2.192 -0.4858  1.1700 -0.7330
 8835TIP3   OH226449   0.631   4.910   1.494 -0.0010 -0.4019 -0.4215
 8835TIP3    H126450   0.561   4.950   1.443  0.5102 -1.0401 -1.6414
 8835TIP3    H226451   0.712   4.937   1.450  0.4041 -1.6748 -0.4904
 8836TIP3   OH226452   8.322   4.774   2.324 -0.3637  0.1140 -0.4802
 8836TIP3    H126453   8.301   4.843   2.386 -0.1606 -2.0878  2.0972
 8836TIP3    H226454   8.243   4.766   2.270 -0.8676  1.4123  0.0469
 8837TIP3   OH226455   1.726   0.976   3.603 -0.3240  0.4358  0.4114
 8837TIP3    H126456   1.698   1.053   3.554  1.4152  0.5490 -0.4116
 8837TIP3    H226457   1.782   1.010   3.672  2.5206 -0.2629 -1.4700
 8838TIP3   OH226458   8.151   8.004   0.257 -0.2390  0.0024 -0.3743
 8838TIP3    H126459   8.093   7.937   0.220 -0.3970  0.6099 -1.2525
 8838TIP3    H226460   8.224   7.955   0.295  0.4190 -0.6195 -2.3756
 8839TIP3   OH226461   2.607   0.162   0.509  0.4105  0.3217 -0.4735
 8839TIP3    H126462   2.556   0.085   0.483 -0.9786  1.2020 -0.4007
 8839TIP3    H226463   2.656   0.134   0.587 -0.3564 -0.3728 -0.2377
 8840TIP3   OH226464   8.484   6.691   4.747  0.2003  0.0416  0.0134
 8840TIP3    H126465   8.422   6.762   4.764  0.4042  0.2497 -0.1161
 8840TIP3    H226466   8.478   6.636   4.825 -0.0248  0.1503  0.0758
 8841TIP3   OH226467   7.660   6.635   4.603 -0.1133  0.2286  0.0081
 8841TIP3    H126468   7.609   6.631   4.684 -1.2629  2.3316 -0.5871
 8841TIP3    H226469   7.595   6.650   4.534  1.2372  2.2270 -0.8586
 8842TIP3   OH226470   7.278   4.733   2.348  0.7203  0.3252  0.4173
 8842TIP3    H126471   7.222   4.697   2.417 -1.6496 -1.7460 -2.4138
 8842TIP3    H226472   7.358   4.680   2.351  0.6727  0.3236  1.6502
 8843TIP3   OH226473   6.612   4.792   3.690  0.2141  0.7288 -0.1186
 8843TIP3    H126474   6.698   4.762   3.718  0.5939  1.3113 -0.6621
 8843TIP3    H226475   6.581   4.847   3.763  0.6216  1.1331 -0.2492
 8844TIP3   OH226476   2.435   2.518   0.929 -0.4376  0.2995  0.2104
 8844TIP3    H126477   2.506   2.453   0.930 -1.1371 -0.4973 -0.7903
 8844TIP3    H226478   2.373   2.488   0.995 -0.3250  0.4418  0.3801
 8845TIP3   OH226479   6.130   6.385   3.151  0.5381 -0.3907  0.1376
 8845TIP3    H126480   6.199   6.441   3.114  1.0617 -0.7563  0.5570
 8845TIP3    H226481   6.062   6.447   3.178 -0.0230 -0.1494 -1.7779
 8846TIP3   OH226482   6.069   7.961   1.678  0.6531 -0.3335  0.1767
 8846TIP3    H126483   5.978   7.977   1.652  1.2773  0.1902 -1.7932
 8846TIP3    H226484   6.081   8.011   1.758 -0.1522  1.4574 -0.7886
 8847TIP3   OH226485   2.597   2.729   4.973 -0.1142  0.2096 -0.0768
 8847TIP3    H126486   2.657   2.784   4.921  0.0298 -0.2702 -0.4208
 8847TIP3    H226487   2.540   2.688   4.908 -1.0839  0.9814  0.2849
 8848TIP3   OH226488   7.468   6.930   1.249 -0.0527 -0.2186  0.0674
 8848TIP3    H126489   7.509   7.001   1.199 -0.8819 -0.2050 -0.6044
 8848TIP3    H226490   7.374   6.944   1.238 -0.2365 -2.2626 -1.3111
 8849TIP3   OH226491   6.130   6.578   3.570 -0.4152  0.2905 -0.1383
 8849TIP3    H126492   6.161   6.488   3.554 -1.8981 -0.1714 -0.4701
 8849TIP3    H226493   6.035   6.572   3.562 -0.4374  2.1957 -1.7478
 8850TIP3   OH226494   7.368   7.879   2.759  0.4751 -0.3328  0.0978
 8850TIP3    H126495   7.453   7.923   2.753  0.0645  0.4437 -0.1531
 8850TIP3    H226496   7.349   7.851   2.669 -0.5095  1.3877 -0.2541
 8851TIP3   OH226497   6.492   6.475   3.909 -0.9184 -0.1594  0.4518
 8851TIP3    H126498   6.558   6.539   3.885  0.7394 -1.5494  1.1839
 8851TIP3    H226499   6.449   6.513   3.986 -2.2376  1.5626 -1.0822
 8852TIP3   OH226500   4.428   7.653   4.876  0.5586  0.3088  1.2924
 8852TIP3    H126501   4.394   7.695   4.955  0.8153  0.7293  1.1770
 8852TIP3    H226502   4.501   7.600   4.906  0.6222  0.4267  1.3453
 8853TIP3   OH226503   7.194   1.343   3.190 -0.4333  0.1294 -0.0281
 8853TIP3    H126504   7.124   1.391   3.147  0.1589  0.5333 -0.5462
 8853TIP3    H226505   7.199   1.260   3.143 -0.5029  0.1310 -0.0392
 8854TIP3   OH226506   6.862   7.917   2.756 -0.6870 -0.6534 -0.2341
 8854TIP3    H126507   6.896   7.927   2.845  0.5803  0.9878 -0.8609
 8854TIP3    H226508   6.825   7.829   2.753  0.5353 -1.2369  1.4988
 8855TIP3   OH226509   1.688   0.573   4.019  0.2696 -0.1105  0.6671
 8855TIP3    H126510   1.737   0.536   3.946  0.2453 -0.2533  0.7219
 8855TIP3    H226511   1.677   0.665   3.997  1.1052  0.0561  0.9490
 8856TIP3   OH226512   7.567   5.948   3.509  0.5238 -0.3667  0.3025
 8856TIP3    H126513   7.552   5.878   3.573 -0.5859  0.0893  0.5607
 8856TIP3    H226514   7.579   5.902   3.426  3.5090 -1.0354  1.0651
 8857TIP3   OH226515   8.196   5.978   4.008 -0.2407 -0.0119 -0.3126
 8857TIP3    H126516   8.138   5.907   4.035 -0.6287 -0.2198 -1.6789
 8857TIP3    H226517   8.227   6.016   4.090 -1.0144 -0.9565  0.4230
 8858TIP3   OH226518   7.819   0.580   4.851 -0.2062 -0.2186  0.5598
 8858TIP3    H126519   7.909   0.611   4.844 -0.4355  0.4328  0.4787
 8858TIP3    H226520   7.808   0.558   4.943 -0.4559  1.2063  0.8717
 8859TIP3   OH226521   6.256   5.212   2.986  0.3638 -0.2683 -0.3738
 8859TIP3    H126522   6.237   5.121   2.963 -1.3029 -0.1137  0.2888
 8859TIP3    H226523   6.341   5.208   3.030  1.4551 -1.1586 -2.5189
 8860TIP3   OH226524   7.755   5.039   4.612 -0.4259  0.0604 -0.6259
 8860TIP3    H126525   7.760   4.965   4.552 -0.7418 -0.9161  0.5423
 8860TIP3    H226526   7.691   5.013   4.678  0.4834  0.7899  0.5769
 8861TIP3   OH226527   8.110   5.988   2.492 -0.4355 -0.6847  0.2791
 8861TIP3    H126528   8.059   5.971   2.412 -1.1346  0.0945  0.5590
 8861TIP3    H226529   8.188   5.934   2.482 -0.8735 -1.1695 -0.5917
 8862TIP3   OH226530   7.360   6.807   1.826  0.5123  0.2535 -0.4746
 8862TIP3    H126531   7.305   6.883   1.809  0.8658  0.6099 -0.0565
 8862TIP3    H226532   7.425   6.838   1.889  0.3615 -0.5317  0.0728
 8863TIP3   OH226533   7.778   6.135   1.186 -0.5602 -0.4699  0.4861
 8863TIP3    H126534   7.711   6.067   1.197  0.3084 -1.2454  1.1395
 8863TIP3    H226535   7.828   6.106   1.110  0.1497 -0.8669  1.0948
 8864TIP3   OH226536   7.626   7.105   3.025 -0.1306  0.6354  0.1773
 8864TIP3    H126537   7.665   7.018   3.014 -1.9785 -0.1207 -0.6273
 8864TIP3    H226538   7.637   7.147   2.939 -1.4240  0.2566 -0.1885
 8865TIP3   OH226539   6.198   7.383   5.184 -0.5142  0.2241 -0.0587
 8865TIP3    H126540   6.174   7.376   5.092  0.9450  1.0051 -0.5182
 8865TIP3    H226541   6.260   7.456   5.187  0.7010 -0.8259  1.2678
 8866TIP3   OH226542   0.811   0.514   2.683  0.3834  0.0525 -0.3421
 8866TIP3    H126543   0.866   0.539   2.609 -0.5695  1.5834 -0.5728
 8866TIP3    H226544   0.825   0.584   2.747 -1.7784  0.8623 -0.6837
 8867TIP3   OH226545   0.402   0.025   1.326  0.3747 -0.1351  0.5805
 8867TIP3    H126546   0.490   0.059   1.310  0.9689 -1.3244  1.2224
 8867TIP3    H226547   0.369   0.078   1.398  0.6688  0.1686  0.4914
 8868TIP3   OH226548   7.085   3.372   3.634  0.1296  0.2362 -0.0394
 8868TIP3    H126549   7.144   3.381   3.708 -0.0483 -0.2133  0.1639
 8868TIP3    H226550   7.022   3.443   3.643  2.3487  2.5063 -1.8741
 8869TIP3   OH226551   6.937   6.908   2.665  0.1830  0.2499  0.1407
 8869TIP3    H126552   6.888   6.860   2.732 -1.3129  1.2103 -0.2418
 8869TIP3    H226553   6.877   6.913   2.591  1.4229  0.1558 -0.8799
 8870TIP3   OH226554   6.671   4.955   4.299  0.0325  0.5354 -0.0519
 8870TIP3    H126555   6.759   4.933   4.330 -0.1713 -1.5626 -0.8737
 8870TIP3    H226556   6.618   4.879   4.321 -1.3916  1.4240 -0.3414
 8871TIP3   OH226557   5.783   5.840   2.959  0.0053  0.4061 -0.0758
 8871TIP3    H126558   5.832   5.758   2.963 -0.9847 -0.1161  1.8376
 8871TIP3    H226559   5.696   5.814   2.931  0.3307  1.1184 -1.7847
 8872TIP3   OH226560   7.829   7.324   2.638 -0.1886 -0.2561 -0.0891
 8872TIP3    H126561   7.905   7.326   2.580  1.0327  1.2878  1.4969
 8872TIP3    H226562   7.759   7.365   2.589  0.3460 -0.5449 -1.0955
 8873TIP3   OH226563   7.570   6.603   2.595  0.1443 -0.1621 -0.1850
 8873TIP3    H126564   7.628   6.538   2.635 -0.9530  0.1741  2.0241
 8873TIP3    H226565   7.489   6.598   2.646 -0.5085  1.8495 -0.9774
 8874TIP3   OH226566   6.510   5.971   4.141 -0.3000  0.1714  0.2932
 8874TIP3    H126567   6.597   5.936   4.124 -0.7610  0.1824 -2.2142
 8874TIP3    H226568   6.494   5.951   4.233  1.8729 -0.8442  0.4810
 8875TIP3   OH226569   8.167   4.199   0.619 -0.1531  0.0600  0.8597
 8875TIP3    H126570   8.144   4.281   0.661 -1.3796  1.5073 -2.4419
 8875TIP3    H226571   8.262   4.202   0.612 -0.1614  1.0528  1.0699
 8876TIP3   OH226572   0.883   1.419   3.960 -0.0743  0.0013 -0.5374
 8876TIP3    H126573   0.847   1.486   3.902 -0.2331  1.0984  0.8011
 8876TIP3    H226574   0.921   1.468   4.032 -0.5202 -1.3746  0.6561
 8877TIP3   OH226575   6.806   6.190   1.908 -0.6271  0.3358  0.0483
 8877TIP3    H126576   6.711   6.186   1.920 -0.5548  3.0718  1.8348
 8877TIP3    H226577   6.836   6.100   1.925 -2.9448 -0.7550 -1.3781
 8878TIP3   OH226578   6.227   4.822   3.265 -0.0691 -0.4758 -0.1806
 8878TIP3    H126579   6.146   4.868   3.285 -0.2428 -0.4380 -0.9300
 8878TIP3    H226580   6.296   4.881   3.293 -0.3027 -0.5860  0.6311
 8879TIP3   OH226581   7.541   5.499   2.624 -0.1257  0.0223  0.1036
 8879TIP3    H126582   7.494   5.506   2.541 -1.3787  2.1562  0.9437
 8879TIP3    H226583   7.475   5.471   2.687  0.4416 -0.0138  0.6939
 8880TIP3   OH226584   6.631   6.022   2.602 -0.5797  0.2689 -0.0018
 8880TIP3    H126585   6.635   5.945   2.545  0.3243  1.3255 -1.3871
 8880TIP3    H226586   6.697   6.006   2.668 -0.0165  0.0887 -0.5990
 8881TIP3   OH226587   6.979   7.695   3.633 -0.1320  0.6118 -0.6004
 8881TIP3    H126588   7.062   7.698   3.585  0.7573  0.8264  0.9196
 8881TIP3    H226589   6.914   7.670   3.567  1.3134 -0.6527 -1.5896
 8882TIP3   OH226590   1.073   0.978   3.207 -0.4519  0.2525 -0.1632
 8882TIP3    H126591   1.080   0.890   3.170 -1.2394  0.5075 -0.9322
 8882TIP3    H226592   1.110   0.970   3.295  0.2096 -0.6602 -0.5143
 8883TIP3   OH226593   5.265   4.958   1.963  0.1676 -0.3050  0.5472
 8883TIP3    H126594   5.273   4.865   1.943 -0.2791 -0.4319  0.9656
 8883TIP3    H226595   5.177   4.981   1.934  0.3735  0.0492  0.1975
 8884TIP3   OH226596   6.863   7.336   1.819 -0.7755  0.6959  0.0251
 8884TIP3    H126597   6.850   7.334   1.725  1.5440 -0.9977 -0.2957
 8884TIP3    H226598   6.824   7.419   1.847 -1.7264  1.0748 -2.3632
 8885TIP3   OH226599   8.373   6.938   2.562  0.2259  0.2987 -0.0039
 8885TIP3    H126600   8.300   6.961   2.620  0.2477 -1.4567  0.7375
 8885TIP3    H226601   8.431   7.014   2.565  0.6266 -0.0884  2.8978
 8886TIP3   OH226602   1.119   1.299   2.657 -0.7348 -0.4055 -0.0995
 8886TIP3    H126603   1.156   1.377   2.699  3.2504 -1.4691 -1.4136
 8886TIP3    H226604   1.134   1.228   2.719 -0.7274 -0.8380 -0.5879
 8887TIP3   OH226605   0.425   1.687   5.070 -0.0901 -0.5090 -0.0781
 8887TIP3    H126606   0.383   1.620   5.016 -0.1115  0.4901 -1.3451
 8887TIP3    H226607   0.463   1.748   5.006  2.3485 -0.8199  1.0418
 8888TIP3   OH226608   3.619   2.407   1.165  0.4390 -0.4260  1.1499
 8888TIP3    H126609   3.620   2.362   1.250  0.9729 -1.0625  0.8139
 8888TIP3    H226610   3.645   2.340   1.102  1.5603  0.4279  0.6770
 8889TIP3   OH226611   2.331   1.035   2.665 -0.5613 -0.1968 -0.4204
 8889TIP3    H126612   2.248   1.026   2.713 -0.6586 -1.4578 -0.8190
 8889TIP3    H226613   2.392   0.978   2.711 -0.6350 -1.3613 -1.7531
 8890TIP3   OH226614   5.789   6.852   2.443  0.2191  0.2949  0.0249
 8890TIP3    H126615   5.822   6.941   2.459  1.5509 -0.0619 -0.6977
 8890TIP3    H226616   5.699   6.865   2.416  0.5328  1.4680 -0.4975
 8891TIP3   OH226617   5.154   7.655   3.828 -0.1253  0.3428  0.3269
 8891TIP3    H126618   5.142   7.596   3.903  1.4890  0.6274  0.8302
 8891TIP3    H226619   5.195   7.733   3.866 -0.6810  1.0962 -0.6203
 8892TIP3   OH226620   2.600   0.208   4.077 -0.1390 -0.4367 -0.4474
 8892TIP3    H126621   2.681   0.168   4.108  1.1158  1.9169 -0.5468
 8892TIP3    H226622   2.547   0.219   4.156  0.0214 -1.1554 -0.2425
 8893TIP3   OH226623   6.234   6.783   2.879  0.1753  0.2089 -0.0930
 8893TIP3    H126624   6.257   6.717   2.944 -1.4179  0.2218  0.4934
 8893TIP3    H226625   6.266   6.865   2.916 -0.3249  0.1506  0.4743
 8894TIP3   OH226626   0.346   0.842   4.867  0.3053  0.7393 -0.0503
 8894TIP3    H126627   0.389   0.891   4.797 -0.1983 -0.3039 -1.1115
 8894TIP3    H226628   0.269   0.804   4.825  1.1850 -1.7561  0.4811
 8895TIP3   OH226629   6.592   6.788   3.359 -0.3011 -0.1009 -0.1514
 8895TIP3    H126630   6.542   6.706   3.365 -1.1535  0.5691  2.4175
 8895TIP3    H226631   6.545   6.839   3.293 -0.6403 -1.0719 -0.6829
 8896TIP3   OH226632   5.263   6.200   4.874  0.1332  0.5524  0.5494
 8896TIP3    H126633   5.205   6.232   4.943  0.4862  2.3714  0.0298
 8896TIP3    H226634   5.340   6.256   4.879  0.2080  0.6451 -1.2530
 8897TIP3   OH226635   5.637   7.601   3.586  0.0927 -0.4291 -0.1968
 8897TIP3    H126636   5.610   7.668   3.523 -1.4279 -1.4993 -0.7277
 8897TIP3    H226637   5.555   7.569   3.624  0.8673 -1.1780  0.8947
 8898TIP3   OH226638   4.610   6.668   2.275  0.5386 -0.4691  0.0775
 8898TIP3    H126639   4.694   6.699   2.242  0.2903 -0.0680 -0.1847
 8898TIP3    H226640   4.589   6.592   2.220  0.4301 -0.1886 -0.2713
 8899TIP3   OH226641   0.578   6.930   3.056  0.1029  0.2890  0.1674
 8899TIP3    H126642   0.635   7.001   3.084 -0.8075  0.3445  1.9742
 8899TIP3    H226643   0.490   6.968   3.056 -0.5216 -1.0544  2.0943
 8900TIP3   OH226644   6.381   6.625   3.063  0.3440  0.5949  0.2196
 8900TIP3    H126645   6.430   6.625   3.146  0.9354  0.3200 -0.1258
 8900TIP3    H226646   6.439   6.580   3.001  0.1851  1.4051 -0.5190
 8901TIP3   OH226647   6.452   5.851   2.918 -0.3654  0.4404 -0.1420
 8901TIP3    H126648   6.444   5.861   3.013 -0.1633  0.2880 -0.1090
 8901TIP3    H226649   6.545   5.834   2.903 -0.8004 -2.2119 -0.1049
 8902TIP3   OH226650   8.395   5.378   4.382 -0.8408  0.1731  0.4291
 8902TIP3    H126651   8.433   5.465   4.392 -2.5865  1.0062  0.1053
 8902TIP3    H226652   8.460   5.328   4.332  0.0071  1.4077  0.2850
 8903TIP3   OH226653   0.171   7.685   0.855 -0.4635  0.4337 -0.1867
 8903TIP3    H126654   0.078   7.666   0.866 -0.2743 -0.2465  0.2368
 8903TIP3    H226655   0.214   7.639   0.927  0.4355 -1.1209 -1.6850
 8904TIP3   OH226656   0.828   0.784   3.546 -0.0783  0.0320  0.1658
 8904TIP3    H126657   0.868   0.818   3.626  0.3366  0.4555 -0.2165
 8904TIP3    H226658   0.897   0.790   3.480 -0.8247  0.9611 -0.5460
 8905TIP3   OH226659   7.447   7.576   1.316 -0.0987 -0.5711  0.0151
 8905TIP3    H126660   7.490   7.596   1.400 -0.0712 -1.6593  0.2596
 8905TIP3    H226661   7.385   7.506   1.337 -2.5517  1.4681 -0.1753
 8906TIP3   OH226662   6.395   5.385   2.563 -0.8440 -0.5319 -0.0843
 8906TIP3    H126663   6.326   5.435   2.608  0.4119  0.4697  0.7584
 8906TIP3    H226664   6.417   5.315   2.624  0.0617  0.1515  0.3786
 8907TIP3   OH226665   0.899   6.782   0.683  0.0791  0.3859 -0.3015
 8907TIP3    H126666   0.955   6.771   0.607  1.1607  0.3841  0.4878
 8907TIP3    H226667   0.817   6.817   0.647  0.7117  0.7664 -1.4104
 8908TIP3   OH226668   0.148   7.532   1.842 -0.0253 -0.1070  0.0977
 8908TIP3    H126669   0.157   7.565   1.753  0.4862 -0.3272  0.0657
 8908TIP3    H226670   0.216   7.578   1.892 -0.8252  0.6079  0.5482
 8909TIP3   OH226671   7.057   6.579   3.103  0.6934  0.1849  0.0837
 8909TIP3    H126672   7.043   6.673   3.100 -2.6750 -0.2869 -1.9059
 8909TIP3    H226673   7.056   6.551   3.012 -2.2906 -2.1975  0.7590
 8910TIP3   OH226674   6.124   6.726   4.520 -0.6672 -0.5323  0.2621
 8910TIP3    H126675   6.187   6.678   4.573  1.6330  1.1998 -0.7866
 8910TIP3    H226676   6.136   6.692   4.431 -1.3221 -0.2907  0.0735
 8911TIP3   OH226677   0.307   5.364   3.875 -0.1860 -0.0414  0.0596
 8911TIP3    H126678   0.296   5.429   3.805  1.6632 -1.4862 -1.6250
 8911TIP3    H226679   0.382   5.396   3.925 -0.9244  0.5015  0.8197
 8912TIP3   OH226680   6.987   6.543   2.091 -0.7339  0.0546 -0.3065
 8912TIP3    H126681   7.058   6.530   2.154 -0.9240 -0.8804 -0.2810
 8912TIP3    H226682   6.997   6.471   2.029 -0.8057  0.7322 -1.1079
 8913TIP3   OH226683   7.681   5.148   2.600  0.4380 -0.1597 -0.4201
 8913TIP3    H126684   7.616   5.123   2.534 -0.1011 -0.0779  0.0771
 8913TIP3    H226685   7.669   5.085   2.671  0.9837 -0.2156 -0.3772
 8914TIP3   OH226686   0.472   0.586   4.049 -0.2252 -0.2777  0.5370
 8914TIP3    H126687   0.426   0.573   3.966  1.7022  0.5408 -0.6972
 8914TIP3    H226688   0.510   0.500   4.069 -1.7396 -0.7951  1.2377
 8915TIP3   OH226689   0.153   0.401   5.773 -0.1934 -0.7281 -0.3111
 8915TIP3    H126690   0.231   0.392   5.719  1.3225 -0.2258  1.7690
 8915TIP3    H226691   0.151   0.322   5.827  1.0229  0.9737  2.3337
 8916TIP3   OH226692   2.243   0.040   4.338 -0.2292  0.1055  0.3448
 8916TIP3    H126693   2.291   0.072   4.415 -0.1730  0.7388  0.0464
 8916TIP3    H226694   2.167  -0.005   4.374 -0.5509  0.9678  0.7517
 8917TIP3   OH226695   7.481   7.236   3.248  0.0233 -0.1890  0.1083
 8917TIP3    H126696   7.540   7.198   3.183 -0.0256  2.2755 -1.4264
 8917TIP3    H226697   7.393   7.220   3.213 -0.1107 -0.8982  0.7434
 8918TIP3   OH226698   5.873   6.526   3.544 -0.1955 -0.0854 -0.2083
 8918TIP3    H126699   5.780   6.528   3.567 -0.3424 -1.2135 -0.6490
 8918TIP3    H226700   5.876   6.480   3.460  0.7507 -0.0026 -0.2225
 8919TIP3   OH226701   7.768   7.047   1.609 -0.1254 -0.1958 -0.1659
 8919TIP3    H126702   7.705   7.114   1.582 -2.2935 -1.4767  1.5735
 8919TIP3    H226703   7.777   7.059   1.704 -0.7171 -2.4874  0.1986
 8920TIP3   OH226704   6.683   7.367   3.802  0.1626 -0.2410 -0.1838
 8920TIP3    H126705   6.599   7.410   3.790  0.6467  0.8584  0.3559
 8920TIP3    H226706   6.736   7.395   3.727  0.4237 -0.0353  0.0770
 8921TIP3   OH226707   7.915   6.014   3.464 -0.3222  0.3628  0.2029
 8921TIP3    H126708   7.869   5.952   3.521 -0.6099  1.3451  1.0571
 8921TIP3    H226709   7.998   5.972   3.443 -1.4720 -1.3126 -1.1052
 8922TIP3   OH226710   7.220   7.351   4.160 -0.2353  0.1697 -0.2242
 8922TIP3    H126711   7.290   7.286   4.154  0.8268  1.2205  0.4925
 8922TIP3    H226712   7.224   7.397   4.076  1.3890  1.6556  0.6385
 8923TIP3   OH226713   7.743   6.931   3.695  0.1034 -0.5401 -0.3391
 8923TIP3    H126714   7.707   6.858   3.645  0.8848 -0.8767 -0.4176
 8923TIP3    H226715   7.757   6.999   3.630 -0.4825 -0.3664 -0.2907
 8924TIP3   OH226716   7.196   6.805   2.598 -0.3318  0.0435 -0.7571
 8924TIP3    H126717   7.250   6.735   2.634 -1.9642 -1.0060 -0.3003
 8924TIP3    H226718   7.200   6.793   2.503  2.6541  1.8186 -0.9055
 8925TIP3   OH226719   6.494   7.211   1.721 -0.0815  0.1571 -0.3139
 8925TIP3    H126720   6.567   7.190   1.663  1.2666 -0.1819  1.4614
 8925TIP3    H226721   6.511   7.300   1.752 -0.2423 -0.0331  0.3483
 8926TIP3   OH226722   6.760   6.205   3.006  0.5445 -0.1237 -0.0653
 8926TIP3    H126723   6.735   6.125   2.958  0.1488 -1.0044  1.5851
 8926TIP3    H226724   6.856   6.207   3.000  0.5137 -0.3302 -0.7113
 8927TIP3   OH226725   7.999   3.820   2.931  0.2126  0.0812 -0.2636
 8927TIP3    H126726   7.919   3.786   2.970  1.0990  0.0350  1.5973
 8927TIP3    H226727   7.983   3.913   2.920  0.2071  0.2305  0.9358
 8928TIP3   OH226728   7.169   5.994   4.056  0.4918  0.4160 -0.4626
 8928TIP3    H126729   7.106   6.060   4.026  1.1329  1.0915 -0.3398
 8928TIP3    H226730   7.245   6.006   3.999  0.2318 -0.8975 -1.0960
 8929TIP3   OH226731   8.158   7.018   3.550  0.6962 -0.0405 -0.2647
 8929TIP3    H126732   8.199   7.048   3.631  1.3179 -0.4938 -0.4113
 8929TIP3    H226733   8.167   7.092   3.490 -3.1229  1.7581  1.2200
 8930TIP3   OH226734   8.007   5.514   4.214 -0.4691 -0.3713 -0.2997
 8930TIP3    H126735   7.934   5.576   4.211 -1.3599 -1.4119 -0.2212
 8930TIP3    H226736   8.085   5.570   4.217 -1.3758  0.8106  4.1185
 8931TIP3   OH226737   0.457   0.817   5.404 -0.5263 -0.1817  0.0868
 8931TIP3    H126738   0.543   0.804   5.444 -0.2762 -1.7886 -0.9246
 8931TIP3    H226739   0.475   0.834   5.312 -1.2676  0.0595 -0.0219
 8932TIP3   OH226740   6.644   7.467   3.522  0.8126  0.3221  0.4280
 8932TIP3    H126741   6.584   7.407   3.477  2.7575 -0.9446 -0.5293
 8932TIP3    H226742   6.730   7.428   3.510  1.7214  1.5954  2.6576
 8933TIP3   OH226743   8.300   7.182   4.090 -0.0173 -0.6389  0.6905
 8933TIP3    H126744   8.257   7.122   4.029  0.4401 -0.0973 -0.1850
 8933TIP3    H226745   8.264   7.159   4.175 -1.7266 -0.4856  0.0404
 8934TIP3   OH226746   7.137   4.915   6.554  0.3218  0.4498 -0.2765
 8934TIP3    H126747   7.116   5.003   6.588  0.8831 -0.3446  2.2380
 8934TIP3    H226748   7.096   4.855   6.617 -0.4451 -1.1211 -2.2201
 8935TIP3   OH226749   6.073   4.699   4.143  0.0087 -0.0632 -0.1055
 8935TIP3    H126750   6.020   4.671   4.217  0.1736  0.0899  0.0717
 8935TIP3    H226751   6.076   4.795   4.150  0.3477 -0.0721 -0.0842
 8936TIP3   OH226752   7.058   6.320   2.526  0.6312 -0.5582  0.4070
 8936TIP3    H126753   6.967   6.296   2.507  0.9230 -0.2549 -1.5277
 8936TIP3    H226754   7.089   6.361   2.445  1.9581  0.9499  1.6349
 8937TIP3   OH226755   2.052   1.191   3.902 -0.0216  0.3486  0.0163
 8937TIP3    H126756   2.129   1.141   3.877  1.1967  1.4128  1.5113
 8937TIP3    H226757   2.080   1.282   3.897 -1.8756  0.8505 -1.6267
 8938TIP3   OH226758   6.209   7.890   2.268  0.7769  0.0334 -0.3766
 8938TIP3    H126759   6.177   7.957   2.330  1.0143 -0.1153 -0.0899
 8938TIP3    H226760   6.132   7.867   2.216  0.3522 -0.4974  0.4663
 8939TIP3   OH226761   7.941   6.898   2.598  0.1820  0.4026  0.5197
 8939TIP3    H126762   7.887   6.905   2.520  1.4715  0.9982 -0.3432
 8939TIP3    H226763   7.970   6.807   2.599  0.2335  0.4162  0.2595
 8940TIP3   OH226764   6.800   6.436   2.671 -0.4769  0.4707 -0.1278
 8940TIP3    H126765   6.863   6.476   2.611  0.6323  0.5544  1.0627
 8940TIP3    H226766   6.786   6.348   2.636  2.3301 -0.5038  0.9764
 8941TIP3   OH226767   5.954   6.148   2.328  0.0489  0.2975  0.5117
 8941TIP3    H126768   5.927   6.172   2.417 -0.9311  1.7935 -0.1530
 8941TIP3    H226769   5.896   6.076   2.304  0.2334 -0.0296  1.0310
 8942TIP3   OH226770   7.901   5.881   2.740  0.2910 -0.3034 -0.3746
 8942TIP3    H126771   7.866   5.870   2.652 -0.7932 -0.2963  0.0396
 8942TIP3    H226772   7.950   5.801   2.757  0.3163 -0.4006 -0.8914
 8943TIP3   OH226773   8.236   6.162   2.152  0.4122 -0.0082  0.2461
 8943TIP3    H126774   8.242   6.226   2.081  0.5965 -1.1776 -0.8091
 8943TIP3    H226775   8.152   6.119   2.137  0.2717  0.0068  0.9806
 8944TIP3   OH226776   7.786   6.479   3.488  0.1007 -0.5527  0.1666
 8944TIP3    H126777   7.811   6.487   3.580  0.4557 -1.7598  0.1785
 8944TIP3    H226778   7.852   6.421   3.450  0.3509  0.4941 -1.0115
 8945TIP3   OH226779   1.473   0.641   5.170 -0.0628  0.3970  0.2169
 8945TIP3    H126780   1.448   0.575   5.106  1.4753  1.0945 -1.1354
 8945TIP3    H226781   1.441   0.607   5.254  1.2571 -2.3760 -0.3393
 8946TIP3   OH226782   1.104   0.112   2.463 -0.3376  0.4688  0.2217
 8946TIP3    H126783   1.107   0.018   2.447  1.0515  1.1878 -4.4404
 8946TIP3    H226784   1.013   0.137   2.447 -0.4472  0.0847  0.2522
 8947TIP3   OH226785   7.540   5.789   2.480 -0.1781 -0.1526 -0.5094
 8947TIP3    H126786   7.630   5.784   2.511 -0.0509  0.4841 -0.7721
 8947TIP3    H226787   7.493   5.723   2.531  0.3380 -0.1584 -0.0431
 8948TIP3   OH226788   0.052   5.539   2.369 -1.1141 -0.3289  0.1115
 8948TIP3    H126789   0.033   5.617   2.316 -0.7632 -0.3962 -0.1181
 8948TIP3    H226790   0.139   5.556   2.405 -0.9795 -0.6749 -0.0499
 8949TIP3   OH226791   6.041   5.021   3.711  0.3468  0.1570  0.0873
 8949TIP3    H126792   6.116   5.006   3.769  0.9232 -1.0082 -0.9591
 8949TIP3    H226793   6.031   5.117   3.710  0.6984  0.2232  1.6407
 8950TIP3   OH226794   7.652   7.550   2.104  0.4637 -0.3360 -0.0279
 8950TIP3    H126795   7.606   7.601   2.038 -0.1285  0.3524  0.8956
 8950TIP3    H226796   7.668   7.465   2.063 -0.3865 -0.0976 -0.8589
 8951TIP3   OH226797   6.170   5.623   3.243 -0.1696  0.0940  0.1128
 8951TIP3    H126798   6.130   5.706   3.217  1.4347  0.6837 -0.5644
 8951TIP3    H226799   6.146   5.562   3.173 -0.7186  0.1718  0.2286
 8952TIP3   OH226800   6.211   5.214   3.567  0.2507 -0.6492 -0.1818
 8952TIP3    H126801   6.254   5.184   3.647  1.8751 -1.1796 -1.2307
 8952TIP3    H226802   6.164   5.137   3.535 -0.5156 -0.3980  0.3242
 8953TIP3   OH226803   5.065   7.843   2.539 -0.4918  0.4159 -0.5303
 8953TIP3    H126804   5.005   7.883   2.477 -0.4158  1.2962 -0.0372
 8953TIP3    H226805   5.077   7.908   2.608 -1.0677 -0.7927  0.7373
 8954TIP3   OH226806   6.994   5.487   3.048  0.2100 -0.2486 -0.2188
 8954TIP3    H126807   7.051   5.444   3.112  1.2312 -1.9220 -2.2029
 8954TIP3    H226808   6.908   5.489   3.090  0.6597 -2.1292  0.8431
 8955TIP3   OH226809   4.940   6.981   1.918 -0.1976 -0.3241 -0.4201
 8955TIP3    H126810   4.923   7.074   1.908  0.4388 -0.1924 -0.2997
 8955TIP3    H226811   5.035   6.972   1.909 -0.4134 -1.1689 -2.0273
 8956TIP3   OH226812   0.425   0.955   3.429 -0.1718  0.4365  0.2999
 8956TIP3    H126813   0.488   1.011   3.384 -0.3051  0.6755  0.4145
 8956TIP3    H226814   0.459   0.947   3.518 -0.5299  0.9071  0.4766
 8957TIP3   OH226815   7.857   5.228   2.232  0.0573 -0.7359  0.2906
 8957TIP3    H126816   7.876   5.310   2.187 -2.3315 -0.5639 -0.4699
 8957TIP3    H226817   7.916   5.227   2.307 -0.7551  2.2799  1.0097
 8958TIP3   OH226818   7.321   1.308   1.534 -0.1696  0.1267 -0.2381
 8958TIP3    H126819   7.247   1.350   1.491  0.0760  1.3787  0.5188
 8958TIP3    H226820   7.387   1.378   1.541  0.3177 -0.4326  0.8970
 8959TIP3   OH226821   4.814   6.633   1.664 -0.6872 -0.1169  0.0866
 8959TIP3    H126822   4.825   6.682   1.745  0.6512 -0.8492  0.3606
 8959TIP3    H226823   4.729   6.661   1.630 -1.3727 -0.0005  1.8719
 8960TIP3   OH226824   6.956   6.868   4.804 -0.3802 -0.2368 -0.1782
 8960TIP3    H126825   6.870   6.887   4.766 -1.8400 -1.8702  2.2207
 8960TIP3    H226826   6.994   6.803   4.745 -0.8132  0.4003 -1.1810
 8961TIP3   OH226827   7.969   7.634   2.804 -0.1279 -0.0736 -0.2001
 8961TIP3    H126828   7.931   7.560   2.852  1.7343 -0.7988  0.2343
 8961TIP3    H226829   8.062   7.610   2.795  0.8217  2.8594  1.2033
 8962TIP3   OH226830   5.999   7.472   3.734 -0.2507  0.1430 -0.1545
 8962TIP3    H126831   5.942   7.420   3.677 -0.0309  0.3003 -0.5168
 8962TIP3    H226832   6.079   7.483   3.684  0.2611 -0.4483  0.5234
 8963TIP3   OH226833   0.597   0.326   3.536  0.6049 -0.5266  0.0593
 8963TIP3    H126834   0.643   0.410   3.546 -0.3488 -0.0432  0.4592
 8963TIP3    H226835   0.637   0.269   3.602  1.4049 -0.4483 -0.3566
 8964TIP3   OH226836   6.570   5.383   2.931  0.8760  0.1781 -0.1997
 8964TIP3    H126837   6.583   5.331   3.010  1.3366  2.0928  1.0457
 8964TIP3    H226838   6.624   5.461   2.945 -0.6059  1.4896 -1.4915
 8965TIP3   OH226839  -0.027   5.256   1.142  0.4108 -0.1989 -0.2252
 8965TIP3    H126840   0.021   5.173   1.138 -0.1575 -0.8139  3.6247
 8965TIP3    H226841   0.041   5.321   1.160  0.3509 -0.4641  1.0062
 8966TIP3   OH226842   8.455   3.497   1.576 -0.1893  0.2286  0.2339
 8966TIP3    H126843   8.420   3.477   1.489  0.7734  0.8584 -0.3068
 8966TIP3    H226844   8.404   3.442   1.635 -1.2330  0.2058 -0.6678
 8967TIP3   OH226845   0.114   5.476   1.993 -0.0313 -0.2551  0.1525
 8967TIP3    H126846   0.029   5.435   2.006 -0.3042  0.7454  1.7028
 8967TIP3    H226847   0.121   5.489   1.899 -0.4335 -2.7657 -0.2509
 8968TIP3   OH226848   7.236   6.395   3.871 -0.2300  0.4943  0.3763
 8968TIP3    H126849   7.160   6.382   3.928 -0.3178 -0.5966  0.0109
 8968TIP3    H226850   7.219   6.340   3.795  1.9243 -1.4507  1.2262
 8969TIP3   OH226851   6.755   3.617   1.685  0.4597 -0.2540 -0.1696
 8969TIP3    H126852   6.718   3.616   1.597  3.4891 -0.2991 -1.5019
 8969TIP3    H226853   6.792   3.529   1.696  0.1355 -0.2347  1.1422
 8970TIP3   OH226854   0.614   4.156   2.988 -0.1065 -0.1038 -0.0854
 8970TIP3    H126855   0.617   4.241   2.944 -0.4214 -0.1707 -0.2333
 8970TIP3    H226856   0.579   4.175   3.075 -0.9916 -0.2092 -0.4143
 8971TIP3   OH226857   6.946   5.034   3.299  0.0851  0.1652  0.6749
 8971TIP3    H126858   6.881   4.984   3.349  0.3379 -1.5420 -0.6602
 8971TIP3    H226859   6.895   5.078   3.231 -0.0764  1.3880  1.5730
 8972TIP3   OH226860   0.408   7.313   1.151 -0.4653  0.1547  0.2915
 8972TIP3    H126861   0.399   7.250   1.080 -2.4702 -0.0873  0.7437
 8972TIP3    H226862   0.478   7.278   1.206 -0.3641 -0.7528 -0.4107
 8973TIP3   OH226863   7.471   7.341   0.557  0.6866 -0.1808  0.1964
 8973TIP3    H126864   7.553   7.293   0.562  0.8756  0.1285  0.1162
 8973TIP3    H226865   7.461   7.380   0.644  0.3824 -0.6090  0.3552
 8974TIP3   OH226866   7.403   5.949   3.107  0.1877 -0.4365  0.6894
 8974TIP3    H126867   7.449   5.981   3.029  0.3764 -0.1933  0.8996
 8974TIP3    H226868   7.353   6.024   3.139  0.6333 -0.3421  1.1843
 8975TIP3   OH226869   3.358   1.152   0.066 -0.3737  0.0615 -0.5078
 8975TIP3    H126870   3.331   1.225   0.010 -0.8573  0.2755  0.0029
 8975TIP3    H226871   3.413   1.192   0.134 -1.8517  0.1876  0.6455
 8976TIP3   OH226872   7.583   5.040   4.169 -0.5689 -0.4816  0.3986
 8976TIP3    H126873   7.563   4.975   4.236 -1.6695  0.9154  1.4415
 8976TIP3    H226874   7.679   5.046   4.170 -0.5544 -0.7737  1.5619
 8977TIP3   OH226875   6.422   5.811   3.669 -0.0030  0.3504  0.2084
 8977TIP3    H126876   6.449   5.902   3.658 -2.2111  1.1323  0.8544
 8977TIP3    H226877   6.504   5.762   3.674  1.3183  2.6661  2.9123
 8978TIP3   OH226878   5.211   7.980   2.883 -0.7652 -0.2607 -0.2343
 8978TIP3    H126879   5.124   7.962   2.847 -0.6866  1.6189 -1.3898
 8978TIP3    H226880   5.271   7.936   2.822 -0.8224 -0.0843 -0.4203
 8979TIP3   OH226881   6.429   6.323   3.233 -0.2163 -0.7330  0.1194
 8979TIP3    H126882   6.521   6.300   3.244  0.5910 -0.3545 -4.8227
 8979TIP3    H226883   6.396   6.259   3.170 -2.3542  1.4175 -1.0128
 8980TIP3   OH226884   1.126   6.777   6.167  0.6261 -0.1208  0.3968
 8980TIP3    H126885   1.102   6.712   6.233  0.4486  0.2953  0.7416
 8980TIP3    H226886   1.218   6.759   6.149  1.0840  0.6815  1.8185
 8981TIP3   OH226887   6.669   6.659   3.833 -0.5738  0.7116  0.4416
 8981TIP3    H126888   6.647   6.698   3.748 -1.0984 -1.0108 -0.2413
 8981TIP3    H226889   6.760   6.685   3.849 -0.3466  0.7330 -0.8425
 8982TIP3   OH226890   7.655   7.130   2.737 -0.1747  0.3964  0.0252
 8982TIP3    H126891   7.562   7.145   2.720 -0.1892  2.8710  1.9122
 8982TIP3    H226892   7.700   7.194   2.682  0.4072 -0.6045 -0.6739
 8983TIP3   OH226893   8.329   6.898   4.823  0.3432  0.4077  0.5721
 8983TIP3    H126894   8.308   6.988   4.845 -0.3295  0.4349 -0.1766
 8983TIP3    H226895   8.261   6.846   4.865 -1.3235  0.5030 -1.9228
 8984TIP3   OH226896   0.844   5.686   6.087 -0.6967 -0.1628  0.1646
 8984TIP3    H126897   0.781   5.655   6.151 -0.3283  0.0754  0.6467
 8984TIP3    H226898   0.831   5.781   6.083  0.1727  0.0052  0.8792
 8985TIP3   OH226899   2.330   2.653   5.261  0.3868  0.9480  0.2817
 8985TIP3    H126900   2.318   2.746   5.280 -1.3602  0.3063  2.5858
 8985TIP3    H226901   2.393   2.623   5.327 -0.4345  0.1553  0.7320
 8986TIP3   OH226902   8.167   6.679   4.021 -0.1624  0.0122 -0.3655
 8986TIP3    H126903   8.196   6.587   4.023 -0.1188  0.0295 -0.0984
 8986TIP3    H226904   8.087   6.679   4.074  1.1228  0.5646  1.6155
 8987TIP3   OH226905   7.812   5.576   4.643  0.5692  0.6535  0.1870
 8987TIP3    H126906   7.733   5.607   4.597 -2.2703 -3.0805  2.3361
 8987TIP3    H226907   7.828   5.489   4.606  1.9155  0.1758  1.8838
 8988TIP3   OH226908   1.041   5.264   5.117 -0.0337  0.0362  0.3711
 8988TIP3    H126909   0.981   5.253   5.191 -0.0620 -2.0991  0.0706
 8988TIP3    H226910   0.989   5.240   5.040  0.7607 -0.3461 -0.0552
 8989TIP3   OH226911   7.168   2.930   6.002 -0.4596 -0.2985 -0.1007
 8989TIP3    H126912   7.110   3.004   5.987 -0.0689  0.1332  0.5252
 8989TIP3    H226913   7.205   2.910   5.916  2.0103  2.3646  0.3006
 8990TIP3   OH226914   4.203   0.039   0.248 -0.3817 -0.0597 -0.0210
 8990TIP3    H126915   4.299   0.037   0.255 -0.3693  0.9830  0.0562
 8990TIP3    H226916   4.179   0.130   0.266 -1.6620 -0.9891  3.5041
 8991TIP3   OH226917   2.478   5.206   5.473  0.2220 -0.3317 -0.4574
 8991TIP3    H126918   2.403   5.156   5.503  0.4292 -0.3713 -0.0024
 8991TIP3    H226919   2.544   5.141   5.452  0.7641 -0.2368  0.8683
 8992TIP3   OH226920   4.447   1.306   5.676  0.2207 -0.1579 -0.6063
 8992TIP3    H126921   4.490   1.365   5.739 -1.7351  0.2349  0.3889
 8992TIP3    H226922   4.413   1.365   5.609 -0.6068 -0.2600 -0.2818
 8993TIP3   OH226923   6.983   7.304   4.992  0.3366 -0.5940 -0.1344
 8993TIP3    H126924   7.044   7.232   5.008  0.7619 -0.1077  0.4622
 8993TIP3    H226925   7.039   7.380   4.976 -0.0547  0.4927  3.1896
 8994TIP3   OH226926   0.261   6.269   1.779 -0.2153 -0.5910 -0.3355
 8994TIP3    H126927   0.191   6.271   1.714  0.7997 -0.3080 -1.4287
 8994TIP3    H226928   0.341   6.280   1.728  0.5470  0.2473  1.0265
 8995TIP3   OH226929   2.038   5.488   4.884  0.1574 -0.2173 -0.1902
 8995TIP3    H126930   2.025   5.546   4.959 -1.1246  0.0036 -0.5871
 8995TIP3    H226931   2.027   5.400   4.920 -1.0176 -0.0888 -0.2359
 8996TIP3   OH226932   1.600   7.094   4.635 -0.0684 -0.2204 -0.3710
 8996TIP3    H126933   1.680   7.071   4.683 -1.3070 -0.5973  1.5365
 8996TIP3    H226934   1.629   7.101   4.544  2.3484  0.5935  0.3976
 8997TIP3   OH226935   0.788   6.823   1.734 -0.3230  0.2200 -0.1763
 8997TIP3    H126936   0.748   6.893   1.785  0.3245  1.2019 -1.0132
 8997TIP3    H226937   0.714   6.777   1.694 -0.8741 -0.8123  1.9364
 8998TIP3   OH226938   7.827   7.263   3.919 -0.3744  0.2601  0.0052
 8998TIP3    H126939   7.772   7.302   3.851 -0.1537  1.3500  0.4470
 8998TIP3    H226940   7.911   7.308   3.911 -0.2072  0.0778  0.7100
 8999TIP3   OH226941   8.465   7.478   2.093  0.6649 -0.5852 -0.3620
 8999TIP3    H126942   8.407   7.402   2.098 -0.9363  0.7367  2.0486
 8999TIP3    H226943   8.407   7.552   2.073  1.7108  0.5317  0.6397
 9000TIP3   OH226944   4.085   0.032   2.800  0.5823 -0.4270  0.0559
 9000TIP3    H126945   4.115  -0.056   2.821 -0.8024 -0.9682 -0.1790
 9000TIP3    H226946   3.991   0.031   2.820  0.4353  0.8059 -0.5290
 9001TIP3   OH226947   7.175   6.843   3.762 -0.3659 -0.6952  0.6831
 9001TIP3    H126948   7.209   6.822   3.675 -0.0273 -0.5148  0.7734
 9001TIP3    H226949   7.220   6.923   3.787 -1.4985  0.0381  0.4358
 9002TIP3   OH226950   7.346   5.426   4.450 -0.1195 -0.0198  0.1347
 9002TIP3    H126951   7.304   5.369   4.385  0.2835 -1.8454  1.4497
 9002TIP3    H226952   7.439   5.423   4.427 -0.1240  0.2778  0.0787
 9003TIP3   OH226953   0.798   6.265   4.928  0.0377  0.7328  0.6292
 9003TIP3    H126954   0.713   6.222   4.942 -1.4699  3.0173 -1.0549
 9003TIP3    H226955   0.859   6.216   4.983 -1.8151 -2.6872 -0.2138
 9004TIP3   OH226956   6.453   8.028   4.301  0.0517  0.3490  0.0955
 9004TIP3    H126957   6.490   8.013   4.214 -0.4324 -0.6425  0.0527
 9004TIP3    H226958   6.472   7.947   4.349 -0.7529  0.4121  0.5309
 9005TIP3   OH226959   3.094   1.091   4.196  0.5192  0.0983  0.0791
 9005TIP3    H126960   3.042   1.121   4.122  0.4389  0.0096  0.0995
 9005TIP3    H226961   3.033   1.093   4.270  0.4164 -0.4533  0.0113
 9006TIP3   OH226962   7.309   6.075   3.602 -0.2800  0.2433  0.5117
 9006TIP3    H126963   7.398   6.047   3.621  0.2911  0.8158 -1.2275
 9006TIP3    H226964   7.300   6.064   3.507 -1.7879  0.9655  0.5515
 9007TIP3   OH226965   0.912   7.235   4.794  0.3370 -0.3219 -0.4916
 9007TIP3    H126966   0.884   7.312   4.844  1.2419  0.1983 -0.7800
 9007TIP3    H226967   0.831   7.198   4.759 -0.1994 -0.0717  0.4625
 9008TIP3   OH226968   2.082   6.502   5.687 -0.0389 -0.2184  0.1533
 9008TIP3    H126969   1.998   6.484   5.644  0.6607 -0.6485 -1.0686
 9008TIP3    H226970   2.144   6.444   5.644  1.4309  2.0498 -0.8913
 9009TIP3   OH226971   6.963   7.930   4.634  0.3471 -0.6110  0.2832
 9009TIP3    H126972   6.941   8.016   4.598  1.0821 -0.0284  1.1991
 9009TIP3    H226973   7.043   7.904   4.588  0.1432 -0.7984  0.0305
 9010TIP3   OH226974   2.253   6.804   6.619 -0.4055 -0.1361 -0.1925
 9010TIP3    H126975   2.228   6.856   6.695 -0.4136  1.4604 -1.2818
 9010TIP3    H226976   2.316   6.740   6.654  2.1802  2.7261  0.5641
 9011TIP3   OH226977   6.538   7.444   3.182 -0.3941  0.2990 -0.0461
 9011TIP3    H126978   6.532   7.354   3.152 -0.7248 -0.3185  1.8491
 9011TIP3    H226979   6.624   7.474   3.151 -1.1560  0.0511 -2.5262
 9012TIP3   OH226980   7.718   3.448   5.387 -0.0018  0.3832  0.4896
 9012TIP3    H126981   7.668   3.528   5.404 -1.4297 -0.5316  0.6249
 9012TIP3    H226982   7.781   3.444   5.459  0.1632  1.4389  0.4248
 9013TIP3   OH226983   1.840   1.286   4.590 -0.5966  0.0073 -0.6870
 9013TIP3    H126984   1.889   1.285   4.672 -1.3275  2.3460 -0.1854
 9013TIP3    H226985   1.907   1.287   4.521  0.0340  0.8122 -0.0602
 9014TIP3   OH226986   7.799   6.407   3.169  0.6690 -0.1313  0.0657
 9014TIP3    H126987   7.853   6.415   3.247  1.1582  0.9511 -0.3736
 9014TIP3    H226988   7.860   6.381   3.100  0.3330 -0.5469 -0.0776
 9015TIP3   OH226989   7.203   5.159   4.463 -0.0603 -0.6429  0.8076
 9015TIP3    H126990   7.269   5.173   4.395 -0.2119 -1.1455  0.5533
 9015TIP3    H226991   7.225   5.223   4.531 -0.0388  0.0117  0.1936
 9016TIP3   OH226992   8.387   4.350   5.626 -0.8129  0.4318 -0.3485
 9016TIP3    H126993   8.341   4.420   5.674 -0.0151  1.2400 -0.7481
 9016TIP3    H226994   8.477   4.354   5.660 -1.0700 -1.2921  0.5990
 9017TIP3   OH226995   0.789   6.643   5.120  0.2009 -0.1908 -0.3015
 9017TIP3    H126996   0.858   6.589   5.080 -0.1044 -0.0916 -0.9562
 9017TIP3    H226997   0.729   6.579   5.158  1.0121 -0.2683  0.8880
 9018TIP3   OH226998   5.311   2.059   4.132  0.2543  0.0432 -0.2001
 9018TIP3    H126999   5.246   2.069   4.201  0.7249 -1.6752  0.5098
 9018TIP3    H227000   5.276   2.110   4.058 -2.8510 -2.4259 -0.5035
 9019TIP3   OH227001   8.133   7.830   4.264 -0.3758  0.0237 -0.2380
 9019TIP3    H127002   8.203   7.892   4.284  0.7423 -1.1774 -0.3872
 9019TIP3    H227003   8.169   7.744   4.288 -1.4657 -0.7016 -1.1427
 9020TIP3   OH227004   0.409   7.665   1.884 -0.1441 -0.1841 -0.1876
 9020TIP3    H127005   0.440   7.707   1.965 -1.2437  1.4696 -0.5937
 9020TIP3    H227006   0.441   7.721   1.814  0.4370 -1.3799 -0.8948
 9021TIP3   OH227007   5.010   1.426   3.188 -0.1320  0.2408 -0.4111
 9021TIP3    H127008   4.934   1.402   3.136 -0.0862  0.2129 -0.4656
 9021TIP3    H227009   4.977   1.490   3.251 -0.1408  0.4498 -0.6261
 9022TIP3   OH227010   0.517   7.521   2.900  0.0512  0.0201 -0.4202
 9022TIP3    H127011   0.515   7.616   2.897  2.2282  0.0687 -1.3694
 9022TIP3    H227012   0.507   7.499   2.992  0.4820  1.2136 -0.0835
 9023TIP3   OH227013   7.630   7.416   4.050 -0.1077 -0.6235 -0.0804
 9023TIP3    H127014   7.663   7.416   4.140 -0.1299  0.3383 -0.0619
 9023TIP3    H227015   7.631   7.324   4.024  0.4112 -0.8512  0.7146
 9024TIP3   OH227016   1.677   0.099   4.678 -0.4866  0.2654 -0.0661
 9024TIP3    H127017   1.628   0.142   4.748  0.5573  0.3798  0.6026
 9024TIP3    H227018   1.683   0.165   4.609  1.3073  1.2918  1.0432
 9025TIP3   OH227019   0.180   7.703   3.062 -0.1766  0.3357 -0.1182
 9025TIP3    H127020   0.104   7.759   3.077 -0.1538  0.1593  0.6650
 9025TIP3    H227021   0.255   7.763   3.068 -0.2268  0.4544 -0.5956
 9026TIP3   OH227022   0.594   7.456   3.968  0.1239  0.2555 -0.2067
 9026TIP3    H127023   0.556   7.523   4.026 -1.4135  0.3417 -1.2888
 9026TIP3    H227024   0.575   7.374   4.012  1.5798  0.4853  0.8810
 9027TIP3   OH227025   1.443   7.366   5.511  0.1896  0.0648 -0.1912
 9027TIP3    H127026   1.376   7.300   5.499  2.0096 -1.7238 -0.7973
 9027TIP3    H227027   1.436   7.391   5.603 -0.6803 -0.7821 -0.0274
 9028TIP3   OH227028   1.427   5.707   5.878 -0.1926  0.0352 -0.2221
 9028TIP3    H127029   1.431   5.712   5.974 -0.8070 -1.0438 -0.1302
 9028TIP3    H227030   1.390   5.621   5.860 -1.9843  1.0197 -1.3897
 9029TIP3   OH227031   1.293   6.241   4.118  1.0655 -0.2363  0.2580
 9029TIP3    H127032   1.300   6.297   4.196 -0.1330 -0.5521  0.6006
 9029TIP3    H227033   1.221   6.278   4.068  2.2488  0.3520 -1.0470
 9030TIP3   OH227034   7.920   5.430   2.870 -0.1815 -0.5524 -0.3025
 9030TIP3    H127035   7.870   5.428   2.788  0.3429 -0.8530 -0.6123
 9030TIP3    H227036   7.856   5.407   2.937 -0.9947  1.2383 -0.4365
 9031TIP3   OH227037   2.778   0.152   3.043  0.4603  0.0151 -0.3969
 9031TIP3    H127038   2.706   0.114   2.992 -0.2732 -1.3362  1.5704
 9031TIP3    H227039   2.735   0.212   3.104  1.1880  0.5748 -0.4293
 9032TIP3   OH227040   2.597   7.255   4.242  0.2983 -0.2682  0.9096
 9032TIP3    H127041   2.611   7.293   4.329  3.8310 -2.6786  1.4986
 9032TIP3    H227042   2.684   7.234   4.210 -1.0207 -0.5194 -2.7656
 9033TIP3   OH227043   1.353   7.595   3.898 -0.1918 -0.2760  0.6094
 9033TIP3    H127044   1.407   7.524   3.862  3.3262  1.7878  1.5783
 9033TIP3    H227045   1.366   7.668   3.838 -0.9151  0.6391  1.5557
 9034TIP3   OH227046   0.517   5.941   0.666 -0.3940  0.0622 -0.7189
 9034TIP3    H127047   0.477   5.981   0.589  1.0120  2.6275 -0.1794
 9034TIP3    H227048   0.611   5.961   0.658 -0.2674  0.7524  1.8235
 9035TIP3   OH227049   0.033   6.521   5.000  0.5139 -0.0700 -0.2297
 9035TIP3    H127050   0.032   6.428   4.977  2.4052 -0.2275  0.1998
 9035TIP3    H227051  -0.049   6.535   5.047  0.0645 -1.4468 -0.5640
 9036TIP3   OH227052   0.619   7.037   3.500  0.5961 -0.2684 -0.9372
 9036TIP3    H127053   0.607   7.061   3.592 -0.5628 -1.3938 -0.7683
 9036TIP3    H227054   0.714   7.029   3.489  0.7634  0.3652  0.0303
 9037TIP3   OH227055   1.454   7.491   4.239 -0.2936 -0.0648 -0.1143
 9037TIP3    H127056   1.378   7.529   4.282  0.1629  0.6461  0.0943
 9037TIP3    H227057   1.514   7.470   4.311 -0.3386 -0.7188 -0.2692
 9038TIP3   OH227058   4.661   2.121   3.209 -0.3701  0.1650 -0.7815
 9038TIP3    H127059   4.749   2.158   3.198 -0.7766  2.1804  2.2872
 9038TIP3    H227060   4.621   2.131   3.122  1.6419  1.3428 -1.6225
 9039TIP3   OH227061   3.173   0.763   2.665  0.4053  0.0351 -0.4082
 9039TIP3    H127062   3.098   0.744   2.608 -1.6638  0.6557  2.0286
 9039TIP3    H227063   3.198   0.853   2.642 -0.9458  0.5823  0.2426
 9040TIP3   OH227064   0.954   5.425   3.971 -0.0177  0.2719 -0.9407
 9040TIP3    H127065   0.919   5.499   3.921 -1.1352  0.8219  0.6171
 9040TIP3    H227066   0.899   5.421   4.049 -0.6315 -2.8839 -1.4933
 9041TIP3   OH227067   3.235   5.570   3.963  0.4972 -0.3907 -0.1113
 9041TIP3    H127068   3.194   5.510   4.026  0.7363 -0.4611 -0.0231
 9041TIP3    H227069   3.162   5.603   3.911  0.3089 -0.4061  0.1424
 9042TIP3   OH227070   6.671   1.535   6.281 -0.3822 -0.2556 -0.0475
 9042TIP3    H127071   6.744   1.554   6.222  1.7607  1.2590  2.9825
 9042TIP3    H227072   6.633   1.621   6.299 -1.8572 -0.8594 -0.2047
 9043TIP3   OH227073   7.366   0.952   4.713  0.5356 -0.1608 -0.5567
 9043TIP3    H127074   7.379   0.859   4.696  1.2312 -0.2130  0.2156
 9043TIP3    H227075   7.400   0.996   4.635  2.5479 -0.4427  0.1450
 9044TIP3   OH227076   0.025   7.207   3.512 -0.0189 -0.0257 -0.0743
 9044TIP3    H127077   0.031   7.278   3.448 -2.9175  1.3382  1.0721
 9044TIP3    H227078  -0.006   7.132   3.462  2.5720 -0.4025 -1.1973
 9045TIP3   OH227079   3.676   0.617   1.867  0.1779  0.2940 -0.0895
 9045TIP3    H127080   3.771   0.619   1.873  0.0462  0.1247  2.3446
 9045TIP3    H227081   3.648   0.707   1.885 -0.1604  0.2360 -0.3044
 9046TIP3   OH227082   3.260   7.020   4.884  0.0007 -0.0654  0.3595
 9046TIP3    H127083   3.268   7.090   4.820 -0.2736  0.1702  0.5836
 9046TIP3    H227084   3.284   7.060   4.968 -2.0873  0.2777  0.8038
 9047TIP3   OH227085   7.772   5.711   1.711 -0.0006 -0.1332  0.1905
 9047TIP3    H127086   7.762   5.641   1.776  0.1158 -0.3218  0.0034
 9047TIP3    H227087   7.686   5.753   1.709  0.6337  1.3646  2.1623
 9048TIP3   OH227088   4.128   1.800   2.873 -0.2891  0.3099  0.2345
 9048TIP3    H127089   4.151   1.768   2.786  1.4232  1.5851  0.1789
 9048TIP3    H227090   4.058   1.742   2.903 -0.0749 -0.8756 -1.5035
 9049TIP3   OH227091   8.440   7.789   3.594  0.3522 -0.3245 -0.1147
 9049TIP3    H127092   8.366   7.757   3.543  0.2293 -0.6404  0.2548
 9049TIP3    H227093   8.516   7.741   3.560  0.5793  0.8135 -1.2610
 9050TIP3   OH227094   1.247   7.740   2.355  0.3147  0.5119 -0.1028
 9050TIP3    H127095   1.290   7.669   2.308  0.3646  0.7807 -0.4690
 9050TIP3    H227096   1.318   7.789   2.396  0.3623  0.9487 -0.6970
 9051TIP3   OH227097   8.155   7.059   4.294 -0.0691 -0.3548 -0.6730
 9051TIP3    H127098   8.189   7.066   4.383  1.7632  0.2604 -1.3952
 9051TIP3    H227099   8.133   6.966   4.283 -0.4316 -0.4041  0.4570
 9052TIP3   OH227100   5.911   0.440   2.546 -0.6010  0.0184 -0.0131
 9052TIP3    H127101   5.817   0.423   2.542 -0.6532  0.0632  1.0396
 9052TIP3    H227102   5.918   0.535   2.546 -0.3367  0.1849 -5.1171
 9053TIP3   OH227103   0.804   7.302   3.323  0.5753 -0.0111 -0.3107
 9053TIP3    H127104   0.898   7.305   3.337  0.3975  0.3817  0.8493
 9053TIP3    H227105   0.794   7.275   3.231  1.8001 -0.3842 -0.3395
 9054TIP3   OH227106   5.050   0.914   4.318  0.2649  0.1633 -0.2818
 9054TIP3    H127107   5.013   0.944   4.236 -0.3530 -2.4766 -1.0124
 9054TIP3    H227108   5.069   0.994   4.367 -2.9857  1.6644 -1.3846
 9055TIP3   OH227109   2.669   4.226   1.742 -0.3607  0.2434  0.6576
 9055TIP3    H127110   2.601   4.208   1.807  0.2217 -0.6149  1.0464
 9055TIP3    H227111   2.637   4.187   1.661 -0.6559  0.4881  0.6526
 9056TIP3   OH227112   0.729   6.026   4.725  0.4680  0.4834  0.3868
 9056TIP3    H127113   0.646   5.983   4.703  0.6798  0.4197 -0.3251
 9056TIP3    H227114   0.733   6.024   4.820  1.0649 -2.2514  0.3444
 9057TIP3   OH227115   0.157   6.013   3.235 -0.4165  0.6473 -0.2851
 9057TIP3    H127116   0.133   5.978   3.150 -0.5166 -0.3624  0.1557
 9057TIP3    H227117   0.127   6.104   3.233 -1.5493  0.2670 -0.8558
 9058TIP3   OH227118   2.100   6.270   3.911 -0.7331 -0.0378  0.3462
 9058TIP3    H127119   2.100   6.333   3.983  3.1198 -0.9690  1.2699
 9058TIP3    H227120   2.134   6.319   3.836 -1.1619 -0.0637  0.1351
 9059TIP3   OH227121   6.034   0.054   4.322 -0.1399  0.2739  0.2872
 9059TIP3    H127122   6.052   0.141   4.288 -0.2447  0.3635  0.4609
 9059TIP3    H227123   5.988   0.069   4.405 -0.8792  0.0533 -0.0736
 9060TIP3   OH227124   0.946   7.063   4.234 -0.0142 -0.4393  0.2421
 9060TIP3    H127125   1.021   7.114   4.265 -0.0496 -0.2428  0.0055
 9060TIP3    H227126   0.939   7.084   4.141 -0.8469  0.1556  0.4367
 9061TIP3   OH227127   1.032   7.318   3.092 -0.3666 -0.7882 -0.2455
 9061TIP3    H127128   0.990   7.389   3.045  0.8106  0.0160 -0.1010
 9061TIP3    H227129   1.071   7.263   3.023 -0.3753 -0.7190 -0.3043
 9062TIP3   OH227130   1.781   6.084   4.627  0.1327 -0.2698  0.4296
 9062TIP3    H127131   1.816   6.120   4.709  1.1889 -0.7484  0.1957
 9062TIP3    H227132   1.839   6.119   4.560  0.0865 -0.9740  0.0220
 9063TIP3   OH227133   1.533   7.554   2.756  1.1045 -0.0514 -0.1081
 9063TIP3    H127134   1.558   7.483   2.697  1.6386 -0.2426  0.3409
 9063TIP3    H227135   1.492   7.510   2.830  1.2981  0.1181  0.1008
 9064TIP3   OH227136   8.396   6.337   4.802  0.2984  0.0940  0.4411
 9064TIP3    H127137   8.392   6.243   4.821 -1.7816  0.0540 -0.0512
 9064TIP3    H227138   8.331   6.376   4.859  1.3707  1.2924  0.8591
 9065TIP3   OH227139   0.467   6.048   5.032 -0.0964 -0.0038 -0.0836
 9065TIP3    H127140   0.444   6.069   5.122  0.1406 -0.2854  0.0439
 9065TIP3    H227141   0.400   6.091   4.979  0.2649  0.8831  0.1816
 9066TIP3   OH227142   3.972   0.496   3.741 -0.2203  0.1265 -0.1378
 9066TIP3    H127143   3.964   0.581   3.785 -2.7087 -0.6435  0.9343
 9066TIP3    H227144   3.894   0.489   3.687  0.6478 -0.9164 -1.2963
 9067TIP3   OH227145   0.994   6.129   3.408  0.3344 -0.8969  0.2637
 9067TIP3    H127146   0.960   6.086   3.486 -0.6595  1.0943  0.9572
 9067TIP3    H227147   1.088   6.140   3.424  0.3309 -1.5306  0.6823
 9068TIP3   OH227148   6.463   1.667   3.479 -0.1745 -0.4427  0.3546
 9068TIP3    H127149   6.504   1.735   3.533 -1.0534  0.6035 -0.2937
 9068TIP3    H227150   6.471   1.587   3.531 -0.3671  0.4177  1.7101
 9069TIP3   OH227151   1.712   7.731   5.710  0.0400 -0.1378 -0.3888
 9069TIP3    H127152   1.748   7.647   5.740 -1.5609 -1.2206 -1.4499
 9069TIP3    H227153   1.689   7.716   5.618 -0.9079  1.2699 -0.3942
 9070TIP3   OH227154   1.224   7.269   3.758  0.1706  0.5707 -0.5131
 9070TIP3    H127155   1.187   7.319   3.685 -0.1615  1.1817  0.0677
 9070TIP3    H227156   1.172   7.295   3.833  1.2002  0.7322  0.1485
 9071TIP3   OH227157   1.569   6.277   3.453 -0.3191  0.0045  0.2324
 9071TIP3    H127158   1.505   6.226   3.403  0.0891 -0.4753  0.1879
 9071TIP3    H227159   1.543   6.265   3.545 -0.6776  0.3424  0.1725
 9072TIP3   OH227160   7.891   7.857   3.606 -0.3990  0.1151 -0.2518
 9072TIP3    H127161   7.799   7.877   3.589 -0.0545  1.0339 -1.0562
 9072TIP3    H227162   7.917   7.917   3.676 -0.0666  0.7389 -0.9048
 9073TIP3   OH227163   7.850   6.940   3.225  0.8136 -1.1050 -0.6460
 9073TIP3    H127164   7.907   6.906   3.294 -0.3327 -1.0624  0.3310
 9073TIP3    H227165   7.767   6.894   3.237 -0.0116  0.3333 -0.7598
 9074TIP3   OH227166   1.063   5.790   4.200  0.0911 -0.0125 -0.0343
 9074TIP3    H127167   1.106   5.867   4.164  0.0552  0.1042  0.1665
 9074TIP3    H227168   0.970   5.811   4.197  0.0780 -0.0699 -0.0322
 9075TIP3   OH227169   0.791   7.841   1.818  0.4337  0.0131 -0.4648
 9075TIP3    H127170   0.878   7.800   1.815 -0.0303 -1.0981  1.0695
 9075TIP3    H227171   0.806   7.930   1.785  1.8251 -0.7053 -1.8737
 9076TIP3   OH227172   7.816   7.672   2.586  0.7122  0.1707 -0.2554
 9076TIP3    H127173   7.860   7.655   2.669  0.9105  2.9134  0.2499
 9076TIP3    H227174   7.722   7.666   2.606  0.7856 -1.0434 -0.2715
 9077TIP3   OH227175  -0.018   5.619   4.725 -0.2311 -0.3726  0.2204
 9077TIP3    H127176  -0.012   5.714   4.724 -1.2601 -0.2696  2.0361
 9077TIP3    H227177   0.072   5.589   4.731  0.1437  0.4580 -1.0451
 9078TIP3   OH227178  -0.013   5.037   4.625  0.4541 -0.9125 -1.0364
 9078TIP3    H127179  -0.004   4.951   4.585  1.1900 -1.7162  0.7953
 9078TIP3    H227180   0.067   5.084   4.599  1.4849 -1.8290  0.3634
 9079TIP3   OH227181   4.879   1.188   4.448 -0.4072 -0.0414  0.3237
 9079TIP3    H127182   4.822   1.143   4.510 -0.5299 -0.6727 -0.2396
 9079TIP3    H227183   4.968   1.170   4.479 -0.3731 -2.2937 -0.9731
 9080TIP3   OH227184   3.027   0.155   3.747 -0.1104  0.4065 -0.0421
 9080TIP3    H127185   3.061   0.135   3.660  0.3332 -0.9287  0.4212
 9080TIP3    H227186   3.049   0.247   3.761  2.1661 -0.0609 -0.3032
 9081TIP3   OH227187   3.313   1.023   4.696  0.3275  0.6370  0.5430
 9081TIP3    H127188   3.398   0.980   4.704  0.0775 -0.1846 -0.9456
 9081TIP3    H227189   3.259   0.960   4.648 -0.7889  1.6168  0.4845
 9082TIP3   OH227190   1.044   6.992   3.470 -0.7235  0.0485 -0.4141
 9082TIP3    H127191   1.042   7.068   3.411  0.3993 -0.3395 -0.9512
 9082TIP3    H227192   1.134   6.962   3.468 -0.7746 -0.2525  1.1615
 9083TIP3   OH227193   8.150   7.996   3.823  0.2210 -0.7208  0.4613
 9083TIP3    H127194   8.233   7.962   3.858  0.0784 -1.0243  0.5097
 9083TIP3    H227195   8.104   8.031   3.900  1.3524  1.6939  0.0752
 9084TIP3   OH227196   0.172   6.204   2.857 -0.1853 -0.1580 -0.4903
 9084TIP3    H127197   0.081   6.223   2.878 -0.3325  0.0433 -1.2736
 9084TIP3    H227198   0.204   6.283   2.813  0.5925  0.0684  0.4662
 9085TIP3   OH227199   1.007   6.096   4.426 -0.6986 -0.0027  0.3820
 9085TIP3    H127200   1.089   6.081   4.381 -0.9930  0.3144 -0.2661
 9085TIP3    H227201   0.958   6.155   4.368 -1.1375  0.2888  1.0388
 9086TIP3   OH227202   0.952   6.746   3.601  0.4889 -0.1613  0.4102
 9086TIP3    H127203   0.962   6.830   3.556  0.7857  0.8984  2.3805
 9086TIP3    H227204   1.022   6.745   3.666  0.8486 -2.2167  0.0475
 9087TIP3   OH227205   2.934   1.128   4.772 -0.0536 -0.0272 -0.2632
 9087TIP3    H127206   3.001   1.093   4.830 -1.0015 -1.0154  0.2503
 9087TIP3    H227207   2.874   1.175   4.830  0.1935  0.8680 -0.7232
 9088TIP3   OH227208   0.825   7.881   3.812 -0.0686 -0.0120  0.8954
 9088TIP3    H127209   0.880   7.959   3.804  0.2743 -0.2018  1.3715
 9088TIP3    H227210   0.862   7.834   3.886 -2.7670  1.3716  3.2119
 9089TIP3   OH227211   1.037   0.198   5.176 -0.4699 -0.4591  0.1266
 9089TIP3    H127212   1.076   0.194   5.088 -1.5051  0.3801 -0.3797
 9089TIP3    H227213   1.108   0.172   5.235  0.1656 -1.2597 -0.9753
 9090TIP3   OH227214   7.911   6.572   4.116  0.3862 -0.1920 -0.2625
 9090TIP3    H127215   7.908   6.563   4.211 -2.9233 -0.6754 -0.3414
 9090TIP3    H227216   7.926   6.483   4.084 -0.9348 -0.4374 -0.2298
 9091TIP3   OH227217   6.394   3.082   0.990 -0.4333 -0.0915 -0.8361
 9091TIP3    H127218   6.396   3.077   1.086  0.5031 -0.2699 -0.8589
 9091TIP3    H227219   6.486   3.081   0.964 -0.6968 -1.8623 -1.8199
 9092TIP3   OH227220   2.434   1.206   2.979  0.4126  0.2572  0.8288
 9092TIP3    H127221   2.364   1.265   2.952 -0.1360  1.1004  3.8637
 9092TIP3    H227222   2.506   1.265   3.004  0.7769 -0.4633  1.4860
 9093TIP3   OH227223   5.834   1.051   0.825 -0.1615  0.0857 -0.0047
 9093TIP3    H127224   5.828   1.133   0.777  1.1560 -0.6041 -1.3906
 9093TIP3    H227225   5.923   1.019   0.807 -0.8948 -2.0090 -0.0952
 9094TIP3   OH227226   7.961   0.359   3.848  0.0452  0.4112  0.0851
 9094TIP3    H127227   7.948   0.265   3.840 -0.6084  0.7067 -2.9078
 9094TIP3    H227228   7.997   0.386   3.764  3.9147  2.3242  2.2130
 9095TIP3   OH227229   0.304   6.332   0.978  0.0275  0.1998 -0.0708
 9095TIP3    H127230   0.370   6.347   1.046  0.6206 -0.3305 -0.5239
 9095TIP3    H227231   0.348   6.356   0.897 -0.3979  0.0128 -0.3540
 9096TIP3   OH227232   0.731   7.482   2.432 -0.1603  0.0996  0.8302
 9096TIP3    H127233   0.748   7.400   2.478  0.4058 -0.5656 -0.5257
 9096TIP3    H227234   0.725   7.548   2.501  1.5757 -0.7174  1.7928
 9097TIP3   OH227235   0.019   6.974   4.229  0.3522 -0.2187  0.0341
 9097TIP3    H127236   0.047   7.059   4.197 -1.4867  0.9306  1.3467
 9097TIP3    H227237  -0.008   6.926   4.150 -0.7139  1.2483 -0.5117
 9098TIP3   OH227238   0.713   6.408   3.298  0.2354  0.2414  0.2822
 9098TIP3    H127239   0.727   6.486   3.351  0.4274  1.2634 -1.2573
 9098TIP3    H227240   0.643   6.360   3.344  0.8438  0.7734  1.7944
 9099TIP3   OH227241   7.708   7.101   4.498  0.4016  0.0734  0.3047
 9099TIP3    H127242   7.665   7.184   4.478 -0.8757 -0.7296 -0.3641
 9099TIP3    H227243   7.736   7.067   4.414  2.6337  0.7052  0.7576
 9100TIP3   OH227244   0.216   6.751   4.331  0.2576 -0.1825 -0.2696
 9100TIP3    H127245   0.235   6.660   4.354  0.5553 -0.4181 -1.4387
 9100TIP3    H227246   0.301   6.789   4.312 -0.0416 -0.1312 -1.5029
 9101TIP3   OH227247   3.816   1.335   3.820  0.0135 -0.4099 -0.1001
 9101TIP3    H127248   3.873   1.358   3.747  0.5765 -0.7059  0.2456
 9101TIP3    H227249   3.739   1.391   3.809  0.5371  0.2625 -0.3444
 9102TIP3   OH227250   7.640   7.927   2.480  0.5649  0.0923 -0.0095
 9102TIP3    H127251   7.678   7.998   2.427  0.7168  1.0156  1.3169
 9102TIP3    H227252   7.600   7.868   2.415  0.4332  1.3875 -1.1335
 9103TIP3   OH227253   0.507   6.239   4.037 -0.0336  0.0237  0.3253
 9103TIP3    H127254   0.545   6.153   4.054  0.2522  0.3454  1.3695
 9103TIP3    H227255   0.569   6.282   3.979  0.8939  0.3147  1.5163
 9104TIP3   OH227256   3.360   6.524   4.368  0.1911  0.5639 -0.2999
 9104TIP3    H127257   3.357   6.433   4.398  0.7396  0.3904 -0.7664
 9104TIP3    H227258   3.357   6.575   4.448 -0.1638  0.1351 -0.0360
 9105TIP3   OH227259   1.904   5.307   0.610 -0.1439  0.2141 -0.4282
 9105TIP3    H127260   1.873   5.398   0.613 -1.6499 -0.3178  0.7937
 9105TIP3    H227261   1.980   5.306   0.667 -1.0267  0.4094  0.7901
 9106TIP3   OH227262   1.960   5.281   5.024  0.1855  0.0047 -0.1063
 9106TIP3    H127263   1.969   5.194   5.062  0.3954  0.5621  1.1347
 9106TIP3    H227264   1.887   5.321   5.071  0.0092  0.4647 -0.7556
 9107TIP3   OH227265   0.733   6.600   2.120 -0.1684  0.4983 -0.6926
 9107TIP3    H127266   0.657   6.658   2.111 -1.1352 -0.5674  0.4522
 9107TIP3    H227267   0.804   6.658   2.146 -0.7809  1.3908 -0.9882
 9108TIP3   OH227268   1.967   7.694   3.145 -0.1279 -0.5915 -0.2132
 9108TIP3    H127269   1.995   7.614   3.101  2.6236 -0.4076  1.1181
 9108TIP3    H227270   1.988   7.680   3.237 -0.3706  1.3290  0.1611
 9109TIP3   OH227271   7.566   4.430   3.782 -0.0478 -0.2239  0.0311
 9109TIP3    H127272   7.483   4.416   3.826 -0.0534  1.6071  0.6291
 9109TIP3    H227273   7.594   4.342   3.755 -2.1172 -0.8512 -0.1201
 9110TIP3   OH227274   4.593   0.423   2.602  0.0922 -0.0287  0.3246
 9110TIP3    H127275   4.647   0.463   2.670 -0.0198  1.0552 -0.2081
 9110TIP3    H227276   4.610   0.329   2.609 -0.5372 -0.0128  2.3862
 9111TIP3   OH227277   2.793   6.475   3.707 -0.1577  0.3474 -0.1016
 9111TIP3    H127278   2.776   6.382   3.691  2.3206  0.2996 -2.7596
 9111TIP3    H227279   2.709   6.509   3.736 -1.0527 -2.7740  1.2159
 9112TIP3   OH227280   1.771   0.204   4.191  0.5901  0.7096  0.0961
 9112TIP3    H127281   1.850   0.152   4.175  0.6834  0.8681  0.0340
 9112TIP3    H227282   1.804   0.291   4.214  0.4182  1.3935 -2.0908
 9113TIP3   OH227283   0.708   7.283   2.806  0.3086 -0.2879  0.1469
 9113TIP3    H127284   0.666   7.290   2.720 -0.8093  1.5690  0.8131
 9113TIP3    H227285   0.791   7.239   2.789 -0.3579 -0.8556 -1.7279
 9114TIP3   OH227286   1.099   7.447   4.040  0.5216 -0.2121 -0.1333
 9114TIP3    H127287   1.168   7.504   4.007  0.0370 -0.8872 -2.4358
 9114TIP3    H227288   1.028   7.506   4.065  1.6725  0.4381  1.5840
 9115TIP3   OH227289   0.788   7.348   4.455  0.8130 -0.3632  0.6965
 9115TIP3    H127290   0.853   7.286   4.488  1.0521 -1.4598 -1.7794
 9115TIP3    H227291   0.838   7.424   4.426  0.7432 -0.0939  1.2710
 9116TIP3   OH227292   2.186   7.671   2.574  0.2373 -0.7798 -0.0170
 9116TIP3    H127293   2.093   7.647   2.571 -0.0354  0.3250 -1.0528
 9116TIP3    H227294   2.185   7.764   2.597  1.2228 -1.4348  2.9131
 9117TIP3   OH227295   4.759   0.743   3.692  0.1690 -0.5589 -0.5746
 9117TIP3    H127296   4.674   0.729   3.649 -0.8930 -0.4267  1.4127
 9117TIP3    H227297   4.792   0.824   3.653 -0.4736 -0.7649 -1.5806
 9118TIP3   OH227298   1.795   7.602   4.396 -0.1200 -0.0636  0.1840
 9118TIP3    H127299   1.812   7.529   4.455 -0.8450 -0.2974  0.1214
 9118TIP3    H227300   1.773   7.675   4.453  1.9805  0.5081  0.3025
 9119TIP3   OH227301   3.851   0.272   3.017 -0.4219  0.0109 -0.2670
 9119TIP3    H127302   3.854   0.368   3.007 -2.5636  0.2543  1.1218
 9119TIP3    H227303   3.935   0.250   3.057 -0.7528  1.5961  1.4112
 9120TIP3   OH227304   1.504   7.481   5.272  0.2443 -0.8965  0.0309
 9120TIP3    H127305   1.533   7.569   5.294  0.8080 -0.5051 -2.1709
 9120TIP3    H227306   1.471   7.445   5.354 -1.4139  1.9122  0.6357
 9121TIP3   OH227307   1.258   6.550   3.049 -0.5312  0.6598 -0.2116
 9121TIP3    H127308   1.189   6.545   2.983 -2.0029  0.1137  1.3232
 9121TIP3    H227309   1.244   6.634   3.092  0.2072  0.8648 -0.3790
 9122TIP3   OH227310   8.158   7.739   3.711 -0.5300  0.4065 -0.1068
 9122TIP3    H127311   8.063   7.724   3.710 -0.5286  0.4158 -1.8855
 9122TIP3    H227312   8.166   7.834   3.715 -0.5635  0.3538  1.9465
 9123TIP3   OH227313   7.508   7.503   3.162  0.0617  0.1066  0.4483
 9123TIP3    H127314   7.491   7.409   3.168  0.3010 -0.1224 -1.9542
 9123TIP3    H227315   7.424   7.541   3.138  0.6369  0.1122 -1.6816
 9124TIP3   OH227316   4.940  -0.009   2.179 -0.1262 -0.3036  0.6808
 9124TIP3    H127317   4.892   0.005   2.261 -0.7334 -1.3330  0.5110
 9124TIP3    H227318   4.888   0.038   2.114  0.0149 -0.0099  0.7778
 9125TIP3   OH227319   1.232   5.594   3.192  0.3312  0.4099 -0.8259
 9125TIP3    H127320   1.210   5.530   3.125  0.0439 -0.1510 -0.1921
 9125TIP3    H227321   1.316   5.565   3.227 -0.2042 -0.0912  0.0453
 9126TIP3   OH227322   3.222   0.359   4.779 -0.0917  0.1906  0.1625
 9126TIP3    H127323   3.316   0.345   4.766  0.1801  1.9791 -0.0281
 9126TIP3    H227324   3.218   0.419   4.855 -0.8298  3.5324 -2.3920
 9127TIP3   OH227325   0.568   7.339   2.211 -0.2775  0.1576  0.3047
 9127TIP3    H127326   0.594   7.263   2.159 -0.6798 -0.3764  0.8722
 9127TIP3    H227327   0.477   7.322   2.234 -0.0676  0.3048  1.2936
 9128TIP3   OH227328   1.499   7.668   6.914  0.3925 -0.0155 -0.3203
 9128TIP3    H127329   1.585   7.635   6.940 -1.1445 -2.4002  1.8935
 9128TIP3    H227330   1.457   7.594   6.870 -1.2099  0.5380  0.2397
 9129TIP3   OH227331   2.552   7.283   4.951 -0.1447 -0.7438  0.5160
 9129TIP3    H127332   2.590   7.217   4.893 -0.7093  0.2295 -1.0207
 9129TIP3    H227333   2.620   7.301   5.016  1.0920 -0.8153 -0.7270
 9130TIP3   OH227334   2.077   7.227   3.519 -0.6977  0.2060  0.0612
 9130TIP3    H127335   2.163   7.225   3.477 -0.5726  0.3296  0.3093
 9130TIP3    H227336   2.060   7.136   3.542  0.0001  0.3780  1.2868
 9131TIP3   OH227337   3.379   0.319   3.895  0.8549 -0.0859  0.1776
 9131TIP3    H127338   3.365   0.383   3.964  1.0494  0.4747 -0.3034
 9131TIP3    H227339   3.370   0.234   3.939 -1.4283  0.2549  0.4316
 9132TIP3   OH227340   8.471   3.225   0.087  0.3303  0.3186 -0.1840
 9132TIP3    H127341   8.541   3.159   0.090 -0.8665 -0.9352  1.1351
 9132TIP3    H227342   8.472   3.264   0.175 -0.9557 -0.0862  0.0256
 9133TIP3   OH227343   7.588   0.535   5.258 -0.0804  0.1596 -0.2119
 9133TIP3    H127344   7.589   0.538   5.353 -1.4402  1.9125 -0.2275
 9133TIP3    H227345   7.510   0.483   5.236  0.2951 -0.3378 -0.3630
 9134TIP3   OH227346   2.285   7.760   6.826 -0.1571 -0.5288 -0.4541
 9134TIP3    H127347   2.304   7.843   6.783 -1.4796  0.3014  0.5060
 9134TIP3    H227348   2.354   7.751   6.892 -0.1082 -0.1016 -0.4464
 9135TIP3   OH227349   1.135   7.478   1.541 -0.7064  1.0025 -0.0025
 9135TIP3    H127350   1.156   7.477   1.448  0.8753  1.3344  0.3366
 9135TIP3    H227351   1.213   7.517   1.583 -0.1288 -1.8811  1.7350
 9136TIP3   OH227352   0.793   6.885   4.943 -0.0192  0.1160 -0.0648
 9136TIP3    H127353   0.716   6.882   4.886  1.4952 -0.7108 -2.1529
 9136TIP3    H227354   0.790   6.803   4.992 -0.7119  0.2913  0.1895
 9137TIP3   OH227355   1.239   0.574   4.306  0.0992 -0.1979  0.3581
 9137TIP3    H127356   1.267   0.661   4.334  0.7646 -0.1493 -0.4562
 9137TIP3    H227357   1.245   0.520   4.385 -0.8096  0.6123  0.9880
 9138TIP3   OH227358   0.630   1.438   5.635 -0.3639  0.2694 -0.1036
 9138TIP3    H127359   0.553   1.488   5.610 -1.0220 -0.9569 -0.6056
 9138TIP3    H227360   0.631   1.364   5.574  0.8177 -0.0953  0.3437
 9139TIP3   OH227361   6.590   1.921   1.230  0.1012  0.4283 -0.6201
 9139TIP3    H127362   6.501   1.929   1.196 -0.2541 -1.7083 -0.2235
 9139TIP3    H227363   6.580   1.925   1.325  0.6308  1.9782 -0.6207
 9140TIP3   OH227364   0.678   7.506   3.553  0.3491  0.5723 -0.7523
 9140TIP3    H127365   0.740   7.576   3.577 -0.3243  1.2353 -0.9249
 9140TIP3    H227366   0.654   7.527   3.463 -0.0672  0.2717 -0.7079
 9141TIP3   OH227367   3.065   5.305   3.287  0.1384  0.3060 -0.6503
 9141TIP3    H127368   2.994   5.243   3.304  1.5380 -1.0192  0.4357
 9141TIP3    H227369   3.087   5.291   3.195  0.7774 -1.1793 -0.2795
 9142TIP3   OH227370   1.320   7.328   2.908  0.2639 -0.1459 -0.0717
 9142TIP3    H127371   1.231   7.336   2.872 -0.1339 -1.1112  0.6641
 9142TIP3    H227372   1.317   7.377   2.990 -0.4888 -2.7008  1.4842
 9143TIP3   OH227373   5.524   1.671   3.280 -0.3740 -0.4154 -0.2969
 9143TIP3    H127374   5.567   1.725   3.346 -1.1938 -0.6747  0.4497
 9143TIP3    H227375   5.454   1.626   3.327 -0.6560 -0.9759 -1.2366
 9144TIP3   OH227376   4.755   0.574   2.785 -0.5142 -0.3356 -0.1398
 9144TIP3    H127377   4.804   0.649   2.752 -0.6594  0.0769  0.5811
 9144TIP3    H227378   4.784   0.564   2.875 -0.6308 -1.0342 -0.1784
 9145TIP3   OH227379   0.624   7.980   3.407  0.1176 -0.3090 -0.0554
 9145TIP3    H127380   0.577   8.057   3.373 -0.8792 -1.1984 -0.7278
 9145TIP3    H227381   0.716   8.001   3.395 -0.1320  0.9987  0.2323
 9146TIP3   OH227382   2.861   6.627   5.099  0.0125 -0.2994  0.1207
 9146TIP3    H127383   2.777   6.673   5.096  0.4791  0.5943  0.4958
 9146TIP3    H227384   2.889   6.619   5.008  0.4196  1.0901  0.1166
 9147TIP3   OH227385   6.026   0.855   4.243  0.0484  0.2702 -0.1512
 9147TIP3    H127386   5.939   0.884   4.219 -0.2078 -0.4888 -0.1702
 9147TIP3    H227387   6.080   0.875   4.166 -0.7304 -1.9751 -1.3317
 9148TIP3   OH227388   2.072   6.068   1.765 -0.4928 -0.0361 -0.1281
 9148TIP3    H127389   2.166   6.061   1.750 -0.2882 -0.4821  1.3409
 9148TIP3    H227390   2.032   6.041   1.682  0.6548 -0.6159 -0.4923
 9149TIP3   OH227391   1.435   7.309   1.965  0.2573 -0.4965  0.4092
 9149TIP3    H127392   1.404   7.226   2.000  0.4619  0.1673  2.2563
 9149TIP3    H227393   1.479   7.351   2.039  2.0622  0.3060 -1.0819
 9150TIP3   OH227394   3.531   5.197   4.524  0.5702  0.3836 -0.8279
 9150TIP3    H127395   3.598   5.141   4.562  2.3233  1.7433 -1.8636
 9150TIP3    H227396   3.448   5.154   4.546  1.7925 -1.5578  0.0416
 9151TIP3   OH227397   3.621   7.951   5.386 -0.2765 -0.2615  0.4100
 9151TIP3    H127398   3.616   7.936   5.480 -0.8611 -0.6419  0.3227
 9151TIP3    H227399   3.547   8.010   5.368  1.9624  2.7940  0.7539
 9152TIP3   OH227400   0.806   6.236   4.299  0.2475 -0.1084  0.0790
 9152TIP3    H127401   0.717   6.243   4.263  0.0083  0.7903  0.8258
 9152TIP3    H227402   0.821   6.321   4.341  0.8484 -0.8424  1.3614
 9153TIP3   OH227403   4.015   0.394   4.433 -0.3887 -0.1145 -0.0282
 9153TIP3    H127404   3.988   0.395   4.341  1.4600  1.4986 -0.5898
 9153TIP3    H227405   3.984   0.478   4.467 -1.1125 -0.7309  0.8500
 9154TIP3   OH227406   3.599   7.872   3.865 -0.2929  0.0640 -0.1382
 9154TIP3    H127407   3.504   7.879   3.860 -0.2874  0.4194  0.2372
 9154TIP3    H227408   3.630   7.895   3.777 -0.6772 -2.2987 -0.9138
 9155TIP3   OH227409   0.499   4.859   4.822 -0.4594 -0.2531 -0.1593
 9155TIP3    H127410   0.408   4.849   4.795 -0.6107  0.9639 -0.1589
 9155TIP3    H227411   0.495   4.912   4.902  0.3055  0.8952 -0.8606
 9156TIP3   OH227412   8.277   6.746   3.312 -0.2387 -0.1600 -0.6194
 9156TIP3    H127413   8.299   6.839   3.303  2.1110 -0.8050 -1.9111
 9156TIP3    H227414   8.293   6.710   3.225 -4.0467 -1.2242 -0.9465
 9157TIP3   OH227415   7.176   0.637   5.956  0.0936 -0.0255  0.0750
 9157TIP3    H127416   7.191   0.660   6.048  0.5954 -2.4572  0.6217
 9157TIP3    H227417   7.090   0.596   5.955 -1.5239  3.2422 -1.1736
 9158TIP3   OH227418   0.888   6.372   4.061 -0.7365 -1.3312 -0.0827
 9158TIP3    H127419   0.881   6.321   4.142  3.0472 -0.2599  1.0218
 9158TIP3    H227420   0.854   6.458   4.084  1.1437 -0.7692  0.6538
 9159TIP3   OH227421   0.067   6.451   4.564  0.2296 -0.6203 -0.1372
 9159TIP3    H127422   0.057   6.370   4.612 -0.1527 -0.3000  0.3247
 9159TIP3    H227423   0.045   6.520   4.627  0.2926 -0.1734 -0.5961
 9160TIP3   OH227424   1.086   7.864   3.468  0.0365 -0.1618 -0.3901
 9160TIP3    H127425   1.066   7.956   3.486 -0.1959 -0.0982 -0.9499
 9160TIP3    H227426   1.082   7.857   3.372 -0.1723 -0.8022 -0.3379
 9161TIP3   OH227427   4.056   6.222   3.113 -0.6520  0.2942  0.8636
 9161TIP3    H127428   3.993   6.228   3.185 -0.7945  1.0882  0.6718
 9161TIP3    H227429   4.075   6.313   3.089  0.3592  0.0607  0.7389
 9162TIP3   OH227430   1.555   7.370   5.924  0.3192 -0.0175 -0.1303
 9162TIP3    H127431   1.637   7.321   5.925  1.1509  1.2867  2.7818
 9162TIP3    H227432   1.576   7.452   5.881  0.0364 -0.4402 -1.0886
 9163TIP3   OH227433   4.238   6.511   2.348  0.4381 -0.2569 -0.1348
 9163TIP3    H127434   4.162   6.460   2.377  0.3355  0.1348  0.2994
 9163TIP3    H227435   4.310   6.481   2.403  0.2106  0.5919  0.6421
 9164TIP3   OH227436   3.696   5.726   3.733  0.5289  0.2558  0.7023
 9164TIP3    H127437   3.790   5.724   3.751  0.3669 -2.2249  1.4558
 9164TIP3    H227438   3.657   5.678   3.806 -1.0611 -1.1761 -1.0272
 9165TIP3   OH227439   0.073   7.356   4.383 -0.0762  0.1039  0.1296
 9165TIP3    H127440   0.067   7.300   4.460 -0.2504 -2.3532 -1.6105
 9165TIP3    H227441   0.152   7.326   4.337 -1.6538 -0.5592 -2.2245
 9166TIP3   OH227442   2.968   7.308   4.090 -0.1076 -0.2067  0.6165
 9166TIP3    H127443   2.909   7.383   4.097 -0.4457 -0.5651  1.6765
 9166TIP3    H227444   3.002   7.313   4.000 -2.3329 -0.4673 -0.2631
 9167TIP3   OH227445   2.151   6.791   3.381  0.1907 -0.3684  0.0618
 9167TIP3    H127446   2.233   6.770   3.426  0.8284 -0.6225 -1.1805
 9167TIP3    H227447   2.147   6.729   3.308 -0.6880  0.1989 -0.3833
 9168TIP3   OH227448   1.152   6.223   6.468  0.0195 -0.4501  0.7887
 9168TIP3    H127449   1.068   6.228   6.421  0.2507  3.5747  0.5831
 9168TIP3    H227450   1.139   6.280   6.544  1.9336 -1.4293  1.8727
 9169TIP3   OH227451   1.703   7.786   2.471  0.1417  0.0400  0.2104
 9169TIP3    H127452   1.611   7.800   2.448 -0.0400  0.0018  0.8826
 9169TIP3    H227453   1.703   7.784   2.567  0.9085  0.4834  0.2247
 9170TIP3   OH227454   0.102   6.476   0.856  0.1116 -0.0337  0.0014
 9170TIP3    H127455   0.160   6.427   0.915  0.0007  0.5095  0.5649
 9170TIP3    H227456   0.140   6.464   0.769  1.0064  0.2488  0.3548
 9171TIP3   OH227457   7.534   6.481   4.085 -0.7462 -0.1095 -0.1808
 9171TIP3    H127458   7.532   6.429   4.005 -1.1145 -0.9998  0.3938
 9171TIP3    H227459   7.538   6.416   4.155  0.1842  0.6745  0.4991
 9172TIP3   OH227460   3.863   7.880   5.719  0.1193  0.3151 -0.1365
 9172TIP3    H127461   3.898   7.797   5.686  1.4387  1.2727 -1.2202
 9172TIP3    H227462   3.775   7.858   5.751  0.6975 -1.6177  0.2036
 9173TIP3   OH227463   2.902   7.788   3.653 -0.7911  0.1324 -0.7927
 9173TIP3    H127464   2.837   7.719   3.670 -0.3917 -0.1471 -0.3968
 9173TIP3    H227465   2.872   7.862   3.706 -1.1916  0.2497 -1.1782
 9174TIP3   OH227466   3.397   6.881   5.345 -0.3649 -0.1241  0.3801
 9174TIP3    H127467   3.350   6.842   5.271 -1.6136 -0.2220  1.2087
 9174TIP3    H227468   3.437   6.806   5.390 -3.3970 -0.6434  2.4177
 9175TIP3   OH227469   1.184   7.744   4.999  0.1389  0.4343 -0.6270
 9175TIP3    H127470   1.165   7.756   4.905  2.4287 -1.1644 -1.3381
 9175TIP3    H227471   1.121   7.678   5.027  0.3628 -0.1313 -1.4117
 9176TIP3   OH227472   7.488   1.101   3.344 -0.4937  0.6059  0.0790
 9176TIP3    H127473   7.459   1.191   3.333 -0.9030  0.3770 -0.7512
 9176TIP3    H227474   7.413   1.056   3.384 -0.2955  0.6250  0.4774
 9177TIP3   OH227475   5.697   1.229   2.894 -0.0708 -0.4718  0.3567
 9177TIP3    H127476   5.688   1.209   2.801 -2.4006  1.1508  0.1825
 9177TIP3    H227477   5.735   1.317   2.896  0.7362 -0.8299  0.9610
 9178TIP3   OH227478   6.398   2.242   3.570  0.4452  0.1764  0.0365
 9178TIP3    H127479   6.408   2.158   3.614 -0.4794 -0.1292 -0.3265
 9178TIP3    H227480   6.486   2.266   3.543  0.8996 -0.0554  1.2814
 9179TIP3   OH227481   5.633   1.431   2.491 -0.0911 -0.0351 -0.4509
 9179TIP3    H127482   5.599   1.503   2.544 -0.1799  0.1544 -0.7635
 9179TIP3    H227483   5.558   1.400   2.441 -0.1614 -0.6600  0.0395
 9180TIP3   OH227484   5.955   0.382   3.135 -0.5473 -0.1880 -0.6914
 9180TIP3    H127485   5.953   0.399   3.041  1.1131  1.3988 -0.4686
 9180TIP3    H227486   6.048   0.390   3.158 -1.1674  1.2921  1.3863
 9181TIP3   OH227487   3.965   0.841   1.219 -0.3673  0.4161 -0.2743
 9181TIP3    H127488   3.930   0.896   1.289  1.0884  0.3503  0.5224
 9181TIP3    H227489   3.889   0.794   1.185 -1.0885  0.4289  1.2889
 9182TIP3   OH227490   6.676   0.622   2.708 -0.5910  0.0122  0.3445
 9182TIP3    H127491   6.681   0.537   2.664 -0.5231  0.0444  0.2906
 9182TIP3    H227492   6.590   0.657   2.682 -0.0690  0.5520 -0.7218
 9183TIP3   OH227493   7.177   7.315   3.718 -0.3735  0.2432 -0.3138
 9183TIP3    H127494   7.221   7.261   3.783  1.2908 -1.2054 -2.5541
 9183TIP3    H227495   7.214   7.402   3.729  1.4962 -0.4701 -0.7120
 9184TIP3   OH227496   4.650   7.759   4.271 -0.1829  0.8050  0.2907
 9184TIP3    H127497   4.721   7.712   4.227 -0.1988  0.9216  0.1382
 9184TIP3    H227498   4.660   7.738   4.364  0.1743  0.9882  0.2922
 9185TIP3   OH227499   2.597   6.815   4.561  0.6764  0.1775 -0.8079
 9185TIP3    H127500   2.576   6.725   4.585  3.4563 -0.1020  0.8440
 9185TIP3    H227501   2.691   6.815   4.545  0.4624  2.4597 -2.4204
 9186TIP3   OH227502   3.298   5.330   3.502  0.4497 -0.4243  0.0852
 9186TIP3    H127503   3.300   5.240   3.533 -0.1228 -0.1665  0.9247
 9186TIP3    H227504   3.231   5.331   3.434  0.4204 -0.6310  0.1127
 9187TIP3   OH227505   1.341   4.178   3.567 -0.2214 -0.1947  0.2449
 9187TIP3    H127506   1.389   4.105   3.605  0.6343  0.3174  0.1643
 9187TIP3    H227507   1.287   4.139   3.498  0.0411 -0.7738  0.3692
 9188TIP3   OH227508   7.122   0.499   3.022 -0.5179  0.5611 -0.4356
 9188TIP3    H127509   7.144   0.539   3.106 -1.8503  1.3968 -0.4739
 9188TIP3    H227510   7.195   0.522   2.964  0.7474 -0.5915  0.6525
 9189TIP3   OH227511   6.101   0.804   2.127  0.1221  0.4253 -0.3010
 9189TIP3    H127512   6.034   0.757   2.177 -0.2885  0.5075 -0.7697
 9189TIP3    H227513   6.179   0.749   2.134 -0.1209  0.0980 -0.1373
 9190TIP3   OH227514   1.379   6.960   2.544 -0.3535  0.0820 -0.1178
 9190TIP3    H127515   1.312   6.911   2.497  0.5279 -1.2140 -0.0544
 9190TIP3    H227516   1.401   6.906   2.619 -0.1793  1.1124  0.5897
 9191TIP3   OH227517   4.271   7.756   2.230 -0.0106  0.4536 -0.4145
 9191TIP3    H127518   4.300   7.837   2.188  0.3546  0.8124  0.5227
 9191TIP3    H227519   4.193   7.731   2.181 -0.0356  1.2848 -0.8142
 9192TIP3   OH227520   7.574   2.388   3.824  0.5410  0.5351 -0.0634
 9192TIP3    H127521   7.633   2.329   3.870  0.6098 -0.5367 -1.5104
 9192TIP3    H227522   7.561   2.461   3.885  0.2993 -1.0335  1.8184
 9193TIP3   OH227523   3.339   5.950   4.134 -0.7181  0.2199 -0.9499
 9193TIP3    H127524   3.350   5.995   4.051  2.1256 -0.0943 -0.7945
 9193TIP3    H227525   3.371   5.861   4.117 -3.4487 -0.9029 -0.4526
 9194TIP3   OH227526   5.777   0.398   3.730 -0.1804 -0.0249 -0.4460
 9194TIP3    H127527   5.779   0.493   3.742  0.1374 -0.2767  1.5443
 9194TIP3    H227528   5.800   0.386   3.637  0.2532  1.8125 -0.6026
 9195TIP3   OH227529   5.438   0.778   4.713  0.2565 -0.2668  0.1022
 9195TIP3    H127530   5.407   0.688   4.717  1.1032 -0.5280  0.8418
 9195TIP3    H227531   5.407   0.818   4.795 -0.0477  0.0963 -0.1852
 9196TIP3   OH227532   4.137   0.593   4.032 -0.2827  0.3905  0.1555
 9196TIP3    H127533   4.097   0.634   4.109 -1.7636 -0.2369 -0.2704
 9196TIP3    H227534   4.181   0.515   4.067 -1.5620 -0.2872  0.2774
 9197TIP3   OH227535   3.673   7.618   3.488  0.5955 -0.2221  0.2555
 9197TIP3    H127536   3.657   7.700   3.442  2.1041 -0.3906 -0.5787
 9197TIP3    H227537   3.661   7.550   3.422 -0.2226 -0.6555  0.8396
 9198TIP3   OH227538   6.186   0.912   5.213  0.0431 -0.2337 -0.4001
 9198TIP3    H127539   6.139   0.993   5.193 -2.0928 -1.7541 -1.8772
 9198TIP3    H227540   6.141   0.876   5.289  0.2783 -0.5523 -0.4094
 9199TIP3   OH227541   6.442   0.419   1.750  0.5092  0.5234 -0.0611
 9199TIP3    H127542   6.421   0.504   1.788  1.0078  0.2111  0.9343
 9199TIP3    H227543   6.506   0.381   1.810 -1.2033 -1.4008  0.5991
 9200TIP3   OH227544   6.679   0.372   4.902 -0.0906 -0.3819  0.3578
 9200TIP3    H127545   6.612   0.321   4.947  0.4458  0.6242  2.3533
 9200TIP3    H227546   6.632   0.441   4.856 -0.4889 -0.2089  1.0293
 9201TIP3   OH227547   2.814   6.240   3.135  0.2832 -0.1732  1.0111
 9201TIP3    H127548   2.855   6.325   3.151  1.8369 -0.5764 -0.6452
 9201TIP3    H227549   2.729   6.245   3.179  1.1024  1.5697  2.4479
 9202TIP3   OH227550   5.275   6.393   0.868  0.1122  0.5988 -0.2598
 9202TIP3    H127551   5.337   6.462   0.845  0.5080  0.2734 -0.1734
 9202TIP3    H227552   5.315   6.348   0.942  0.9260 -1.1148 -1.7029
 9203TIP3   OH227553   3.750   7.318   2.517 -0.2662 -0.3089 -0.3529
 9203TIP3    H127554   3.691   7.259   2.563  0.1973 -0.1623  0.4391
 9203TIP3    H227555   3.776   7.382   2.582 -1.9067  1.6581 -1.5752
 9204TIP3   OH227556   4.859   0.506   3.902 -0.2023 -0.6969 -0.0807
 9204TIP3    H127557   4.839   0.429   3.848  0.2146 -0.3641 -0.7102
 9204TIP3    H227558   4.813   0.578   3.859 -2.4327 -0.9656  1.7378
 9205TIP3   OH227559   2.479   7.694   4.410  0.5440 -0.1441 -0.1272
 9205TIP3    H127560   2.434   7.776   4.388  0.3542  0.0682  1.0249
 9205TIP3    H227561   2.438   7.628   4.355 -1.4754 -0.0232  1.1971
 9206TIP3   OH227562   6.061   1.186   3.417  0.1972 -0.0695 -0.0056
 9206TIP3    H127563   6.128   1.156   3.355  1.3490 -0.2277  1.2641
 9206TIP3    H227564   6.111   1.238   3.481 -0.5173 -2.0358  2.2159
 9207TIP3   OH227565   4.727   0.331   4.116 -0.1583 -0.6020 -0.2646
 9207TIP3    H127566   4.785   0.330   4.192  0.1318 -0.7763 -0.4866
 9207TIP3    H227567   4.751   0.411   4.069 -0.1766 -0.6146 -0.2956
 9208TIP3   OH227568   6.374   0.923   2.210 -0.1311  0.0161  0.2498
 9208TIP3    H127569   6.468   0.941   2.212 -0.5078  2.2716 -0.7962
 9208TIP3    H227570   6.360   0.861   2.281  2.2865 -1.0736 -0.1812
 9209TIP3   OH227571   3.116   7.197   4.297  0.4790  0.1095  0.1704
 9209TIP3    H127572   3.137   7.143   4.221  0.9519 -0.8876  0.9914
 9209TIP3    H227573   3.060   7.267   4.262 -0.5615 -1.1792 -0.8247
 9210TIP3   OH227574   1.781   7.481   1.836  0.3275  0.5303  0.6361
 9210TIP3    H127575   1.814   7.417   1.899  1.0228  1.0693  0.8189
 9210TIP3    H227576   1.845   7.552   1.838  0.8070  0.1709 -1.3097
 9211TIP3   OH227577   6.332   0.198   3.402 -0.1547  0.1421  0.3872
 9211TIP3    H127578   6.316   0.274   3.346 -0.9390 -1.3407 -1.4585
 9211TIP3    H227579   6.273   0.210   3.477 -0.8311  0.9800 -0.2724
 9212TIP3   OH227580   6.722   5.837   4.040  0.3883  0.3942  0.3078
 9212TIP3    H127581   6.763   5.756   4.067 -0.1193 -0.4122 -1.2465
 9212TIP3    H227582   6.785   5.878   3.982  0.4073  0.8294  0.6362
 9213TIP3   OH227583   1.732   5.204   3.341  0.4934  0.2496  0.3103
 9213TIP3    H127584   1.820   5.231   3.313  0.1097  1.2675  0.0463
 9213TIP3    H227585   1.722   5.243   3.428  0.9837 -1.3758  1.1161
 9214TIP3   OH227586   3.992   6.919   2.171 -0.0173 -0.0499 -0.5674
 9214TIP3    H127587   3.936   6.957   2.239  0.7183  0.3590 -0.1809
 9214TIP3    H227588   3.931   6.888   2.104 -0.7436 -0.3010  0.1959
 9215TIP3   OH227589   4.986   0.213   3.447  0.0629  0.1224  0.2034
 9215TIP3    H127590   4.923   0.209   3.519 -0.0522 -1.3029  0.0542
 9215TIP3    H227591   4.933   0.237   3.371 -0.1967 -0.4006  0.2112
 9216TIP3   OH227592   1.438   7.024   4.210  0.8585  0.3266 -0.1791
 9216TIP3    H127593   1.434   7.108   4.165 -0.2784  0.0372 -0.6349
 9216TIP3    H227594   1.351   7.012   4.247  1.0122 -0.6358 -0.1019
 9217TIP3   OH227595   2.193   5.277   2.942  0.3920  0.6057 -0.2602
 9217TIP3    H127596   2.243   5.351   2.976 -0.4320  1.3121 -0.5578
 9217TIP3    H227597   2.167   5.304   2.854 -0.6435  0.3197 -0.0496
 9218TIP3   OH227598   3.879   6.519   5.727  0.0318 -0.0160  0.4637
 9218TIP3    H127599   3.918   6.605   5.712 -0.5687  0.6494  2.5360
 9218TIP3    H227600   3.788   6.537   5.748 -0.4253 -1.2734 -0.3660
 9219TIP3   OH227601   6.623   6.400   5.148 -0.1733  1.2539  0.2219
 9219TIP3    H127602   6.714   6.394   5.178 -0.7357 -0.1872  1.6678
 9219TIP3    H227603   6.579   6.452   5.215 -0.9986 -0.3246  0.9286
 9220TIP3   OH227604   4.207   4.564   2.835  0.1579 -0.2281  0.1055
 9220TIP3    H127605   4.250   4.481   2.851 -0.2152 -0.5173 -0.3804
 9220TIP3    H227606   4.179   4.559   2.744 -1.3392 -0.2380  0.5542
 9221TIP3   OH227607   5.743   0.893   3.365 -0.0194  0.7737 -1.0080
 9221TIP3    H127608   5.782   0.815   3.326  0.2703  1.2448 -1.6769
 9221TIP3    H227609   5.802   0.917   3.436 -0.5756 -0.1196 -0.2395
 9222TIP3   OH227610   3.637   7.011   6.092  0.0800  0.3724  0.1712
 9222TIP3    H127611   3.650   6.936   6.149 -2.9198  0.2682  0.7550
 9222TIP3    H227612   3.591   7.075   6.146  3.4322  3.0964  0.0006
 9223TIP3   OH227613   7.265   1.689   3.731  0.4352 -0.3034 -0.0225
 9223TIP3    H127614   7.324   1.618   3.754 -0.2191 -0.5630  0.9046
 9223TIP3    H227615   7.321   1.765   3.718  0.8693 -0.2818  1.9464
 9224TIP3   OH227616   6.422   6.947   4.920  0.1785  0.4686  0.1638
 9224TIP3    H127617   6.397   6.948   4.828  1.2526  1.1014 -0.1249
 9224TIP3    H227618   6.508   6.906   4.922  0.7006  1.5635  0.7349
 9225TIP3   OH227619   2.114   6.497   4.071  0.6105  0.5005  0.0509
 9225TIP3    H127620   2.120   6.592   4.063  1.2706  0.4266 -0.3690
 9225TIP3    H227621   2.052   6.483   4.143 -2.3006  1.2042 -2.2061
 9226TIP3   OH227622   1.744   6.539   4.939 -1.1582 -0.3140 -0.9260
 9226TIP3    H127623   1.774   6.448   4.937 -0.0334  0.0702 -2.4261
 9226TIP3    H227624   1.686   6.543   5.015  1.4433 -1.4331  1.2040
 9227TIP3   OH227625   1.609   7.047   5.425 -0.9031  0.0728 -0.0070
 9227TIP3    H127626   1.586   7.126   5.376  2.8702  1.5806  0.4068
 9227TIP3    H227627   1.653   6.991   5.360 -0.1920 -0.0242  0.5541
 9228TIP3   OH227628   0.012   7.632   4.085  0.0746 -0.1811 -0.0134
 9228TIP3    H127629  -0.016   7.556   4.034 -0.8635  1.3616 -1.8739
 9228TIP3    H227630   0.072   7.679   4.027  1.8993 -0.3360  1.7263
 9229TIP3   OH227631   2.529   7.166   3.982 -0.8257 -0.4286  0.3309
 9229TIP3    H127632   2.541   7.235   4.048 -0.5225 -1.1770  1.0712
 9229TIP3    H227633   2.604   7.176   3.923 -0.3529 -0.5985  0.8838
 9230TIP3   OH227634   4.393   5.453   2.130 -0.1179 -0.4631  0.3389
 9230TIP3    H127635   4.345   5.408   2.061 -0.6508  0.0249  0.3804
 9230TIP3    H227636   4.461   5.392   2.157 -1.7069 -1.8084  1.3848
 9231TIP3   OH227637   6.798   0.600   4.560  0.2987  0.3962 -0.3025
 9231TIP3    H127638   6.710   0.583   4.527  0.0495 -1.1388  1.0925
 9231TIP3    H227639   6.841   0.649   4.490 -0.9478 -0.8018 -1.9385
 9232TIP3   OH227640   3.364   6.801   3.494 -0.0403 -0.4001  0.6987
 9232TIP3    H127641   3.409   6.885   3.488 -0.6009 -0.1396  0.0370
 9232TIP3    H227642   3.419   6.741   3.443  2.2082 -1.2755  3.9909
 9233TIP3   OH227643   4.529   7.707   1.371  0.5991 -0.3562  0.5274
 9233TIP3    H127644   4.501   7.707   1.279  1.4982 -1.9566  0.2263
 9233TIP3    H227645   4.603   7.647   1.373  0.7904 -0.0883  2.2555
 9234TIP3   OH227646   2.434   7.733   3.637  0.0099  0.4187 -0.6261
 9234TIP3    H127647   2.348   7.758   3.672  0.8921  0.7970  1.3280
 9234TIP3    H227648   2.414   7.685   3.557 -1.9655  1.7616 -0.9696
 9235TIP3   OH227649   8.135   0.165   4.023 -0.2458  0.1610  0.4453
 9235TIP3    H127650   8.183   0.091   3.984 -0.3588  0.8575 -1.0517
 9235TIP3    H227651   8.175   0.242   3.983 -1.5436  0.8204  0.4123
 9236TIP3   OH227652   1.410   7.581   4.643  0.4354  0.7285  0.8287
 9236TIP3    H127653   1.358   7.558   4.567 -2.7391  3.4313  2.0675
 9236TIP3    H227654   1.415   7.500   4.695 -1.3973  0.1013  0.0387
 9237TIP3   OH227655   2.008   7.187   2.376  0.3769  0.2042  0.4102
 9237TIP3    H127656   2.092   7.166   2.334 -0.6031 -0.7939 -1.1029
 9237TIP3    H227657   1.982   7.106   2.420 -0.6242 -0.0317 -0.5940
 9238TIP3   OH227658   5.353   5.863   4.168  0.0080 -0.0220 -0.0061
 9238TIP3    H127659   5.435   5.815   4.160 -0.1419  0.0065 -1.8001
 9238TIP3    H227660   5.290   5.798   4.198  0.2567 -0.4882 -0.4873
 9239TIP3   OH227661   5.052   1.573   2.768  0.8599 -0.2213  0.0931
 9239TIP3    H127662   5.064   1.564   2.862  0.8832  0.5110  0.1630
 9239TIP3    H227663   4.958   1.587   2.757  0.5085 -2.5846 -0.1839
 9240TIP3   OH227664   2.795   6.503   4.168  0.5194  0.0119 -0.1954
 9240TIP3    H127665   2.861   6.490   4.101 -0.9347  1.0679 -1.8886
 9240TIP3    H227666   2.810   6.592   4.200  0.1796  0.1120 -0.3087
 9241TIP3   OH227667   3.751   7.359   5.045  0.0144  0.2195 -0.3976
 9241TIP3    H127668   3.759   7.365   4.950 -0.3448 -0.5564 -0.4769
 9241TIP3    H227669   3.665   7.396   5.064 -0.3255 -0.5249 -0.4699
 9242TIP3   OH227670   6.373   1.287   4.419 -0.6264 -0.8308  0.4265
 9242TIP3    H127671   6.295   1.323   4.377  0.0045  0.1060  0.0580
 9242TIP3    H227672   6.378   1.197   4.387 -1.0980 -0.6427 -0.1830
 9243TIP3   OH227673   2.647   6.770   2.308  0.1352 -0.1350  0.4159
 9243TIP3    H127674   2.669   6.748   2.217 -0.6051  0.1569  0.1679
 9243TIP3    H227675   2.622   6.686   2.347  0.3516 -0.2433  0.3267
 9244TIP3   OH227676   6.605   0.899   4.139  0.4193 -0.3638 -0.0707
 9244TIP3    H127677   6.516   0.866   4.155  0.3953 -0.6959 -0.8605
 9244TIP3    H227678   6.592   0.975   4.082  0.4119  1.5284  2.3426
 9245TIP3   OH227679   1.921   7.305   3.035  0.3924  0.3743  0.1692
 9245TIP3    H127680   1.966   7.303   3.119 -2.9551  0.4218  2.0303
 9245TIP3    H227681   1.828   7.309   3.057 -0.5832  0.1087 -3.5349
 9246TIP3   OH227682   2.822   7.613   2.244 -0.2829 -0.1939  0.0138
 9246TIP3    H127683   2.759   7.557   2.288  0.6888  0.0401  1.7374
 9246TIP3    H227684   2.851   7.674   2.312 -0.7438  1.9057 -1.6100
 9247TIP3   OH227685   2.790   6.719   2.777  0.3277  0.0187  0.4015
 9247TIP3    H127686   2.813   6.798   2.827  0.9122 -0.3983  0.7995
 9247TIP3    H227687   2.836   6.730   2.693  1.2287 -0.3677  0.8381
 9248TIP3   OH227688   4.373   7.083   2.288  0.0816  0.3325 -0.0013
 9248TIP3    H127689   4.368   7.154   2.224  1.5454  0.3240 -0.1489
 9248TIP3    H227690   4.292   7.034   2.276 -0.1584  0.9835 -1.0847
 9249TIP3   OH227691   6.602   1.864   5.458  0.6375 -0.2962  0.2992
 9249TIP3    H127692   6.670   1.914   5.502  0.7506  0.1362 -0.3599
 9249TIP3    H227693   6.567   1.923   5.391 -0.4601 -0.4775  0.6983
 9250TIP3   OH227694   7.507   1.337   4.930 -0.2175 -0.4402  0.3121
 9250TIP3    H127695   7.571   1.387   4.981 -1.0242 -0.0896  0.9896
 9250TIP3    H227696   7.537   1.246   4.937  1.6227 -0.0127 -1.4697
 9251TIP3   OH227697   3.467   7.662   1.940 -0.6949 -0.0504 -0.2613
 9251TIP3    H127698   3.459   7.706   1.856 -1.1382 -0.8725 -0.6622
 9251TIP3    H227699   3.537   7.597   1.927 -0.4222  0.1598  0.1508
 9252TIP3   OH227700   1.492   5.835   3.423 -0.3987  0.0748  0.1763
 9252TIP3    H127701   1.556   5.791   3.366  0.0394 -0.0670  0.7719
 9252TIP3    H227702   1.544   5.892   3.479 -0.8401  0.3214  0.3394
 9253TIP3   OH227703   4.322   7.880   4.428 -0.0085  0.4368  0.3094
 9253TIP3    H127704   4.227   7.878   4.417  0.0385  1.4437 -0.2663
 9253TIP3    H227705   4.343   7.792   4.461 -1.1867  0.3549  0.9042
 9254TIP3   OH227706   3.271   7.881   1.277 -0.4920  0.1947  0.1397
 9254TIP3    H127707   3.203   7.829   1.321 -0.6655  0.4010  0.1166
 9254TIP3    H227708   3.333   7.816   1.244 -0.8520 -0.0189 -0.1275
 9255TIP3   OH227709   0.236   5.717   4.199 -0.1382 -0.3351 -0.2245
 9255TIP3    H127710   0.189   5.635   4.180  0.6009 -0.9491  0.5641
 9255TIP3    H227711   0.241   5.719   4.294  2.4340 -0.8303 -0.3337
 9256TIP3   OH227712   3.832   7.145   2.306 -0.3357 -0.6035 -0.2182
 9256TIP3    H127713   3.821   7.198   2.385  0.6855 -3.4198  1.9162
 9256TIP3    H227714   3.747   7.151   2.262 -0.7359  1.4917  0.7662
 9257TIP3   OH227715   5.784   7.951   2.363 -0.3322 -0.0367  0.2491
 9257TIP3    H127716   5.877   7.929   2.366  0.0522  1.4359 -0.2619
 9257TIP3    H227717   5.746   7.902   2.436  0.7679 -0.9785  0.2086
 9258TIP3   OH227718   3.560   6.220   2.520 -0.0877 -0.0494  0.3070
 9258TIP3    H127719   3.631   6.192   2.463  0.2101 -0.7346  1.0062
 9258TIP3    H227720   3.587   6.307   2.552  0.9672 -0.7815  1.4520
 9259TIP3   OH227721   4.381   7.770   3.618  0.4087  0.3295 -0.2579
 9259TIP3    H127722   4.374   7.795   3.526  1.0055  0.6495 -0.2188
 9259TIP3    H227723   4.304   7.716   3.635  0.6371 -0.2704 -1.1263
 9260TIP3   OH227724   4.291   3.980   2.502  0.6960 -0.1463  0.2917
 9260TIP3    H127725   4.280   4.047   2.570 -0.3752 -0.4441  0.4292
 9260TIP3    H227726   4.385   3.964   2.498  1.0981  2.2823 -0.6164
 9261TIP3   OH227727   3.749   6.242   4.224  0.0928  0.0602 -0.2534
 9261TIP3    H127728   3.698   6.240   4.143  0.3800 -1.3440 -0.3979
 9261TIP3    H227729   3.719   6.166   4.274 -1.4305  1.9336  1.8082
 9262TIP3   OH227730   2.790   7.088   4.131 -0.0141 -0.1047 -0.2326
 9262TIP3    H127731   2.775   7.087   4.037 -0.5345  1.7233 -0.1991
 9262TIP3    H227732   2.860   7.153   4.143 -0.6811  0.4566  0.7247
 9263TIP3   OH227733   6.041   5.869   3.609  0.3062 -0.1599 -0.3565
 9263TIP3    H127734   6.042   5.850   3.515 -0.5719 -0.4004 -0.3211
 9263TIP3    H227735   6.093   5.948   3.618 -1.5551  1.2266 -1.3484
 9264TIP3   OH227736   2.284   7.175   2.303  0.1164  0.3562  0.2452
 9264TIP3    H127737   2.335   7.102   2.267 -0.4099  0.4040 -0.6212
 9264TIP3    H227738   2.345   7.248   2.305  0.1607  0.3480 -0.5535
 9265TIP3   OH227739   4.473   7.927   2.060  0.1166  0.2077 -0.4857
 9265TIP3    H127740   4.413   8.001   2.065  0.6576  0.5237  1.5348
 9265TIP3    H227741   4.461   7.892   1.971 -1.8499  1.2608 -0.6468
 9266TIP3   OH227742   4.811   1.682   3.034 -0.0594 -0.6364 -0.0310
 9266TIP3    H127743   4.811   1.623   2.959  0.6241  0.2587 -0.7497
 9266TIP3    H227744   4.723   1.720   3.034  0.0836 -0.2961 -0.6567
 9267TIP3   OH227745   4.405   0.427   2.374  0.4725  0.2765  0.2883
 9267TIP3    H127746   4.444   0.397   2.457 -1.2935 -1.2061  0.6208
 9267TIP3    H227747   4.466   0.397   2.307 -0.1181 -2.1722  0.7923
 9268TIP3   OH227748   2.597   7.802   0.829 -0.0269  0.2121 -0.5404
 9268TIP3    H127749   2.638   7.868   0.884  0.4767  0.4916 -1.2368
 9268TIP3    H227750   2.614   7.719   0.873 -1.2471  0.6009  0.6915
 9269TIP3   OH227751   3.579   6.477   3.900 -0.1728  0.0903 -0.2143
 9269TIP3    H127752   3.671   6.498   3.916 -1.0552  2.6661  1.8016
 9269TIP3    H227753   3.564   6.503   3.810  1.2552 -1.1130 -0.8307
 9270TIP3   OH227754   5.043   7.737   4.351 -0.7618 -0.8377 -0.2104
 9270TIP3    H127755   5.116   7.793   4.325 -2.8154  1.3594 -1.3989
 9270TIP3    H227756   5.056   7.723   4.445  0.3992  0.6895 -0.1241
 9271TIP3   OH227757   3.294   6.863   3.003  0.1903  0.0130  0.3044
 9271TIP3    H127758   3.221   6.919   3.027 -0.2194  2.1721 -5.1477
 9271TIP3    H227759   3.253   6.780   2.976  0.0688 -0.0084  0.5581
 9272TIP3   OH227760   2.917   7.654   3.090  0.3418  0.0602 -0.0570
 9272TIP3    H127761   3.010   7.646   3.070  0.1912 -0.7298 -0.5011
 9272TIP3    H227762   2.913   7.666   3.184  0.8699 -0.4590  0.0332
 9273TIP3   OH227763   3.104   6.873   3.533  0.4172 -0.1270 -0.0317
 9273TIP3    H127764   3.187   6.830   3.553  0.2726 -0.7439 -0.7296
 9273TIP3    H227765   3.083   6.923   3.612  1.1623 -0.4206  0.3585
 9274TIP3   OH227766   5.607   0.014   3.859 -0.0926 -0.0135 -0.1423
 9274TIP3    H127767   5.566  -0.011   3.777 -1.9608 -0.9334  1.0237
 9274TIP3    H227768   5.559   0.092   3.887 -2.1922 -2.0130  2.0226
 9275TIP3   OH227769   4.943   0.674   4.212 -0.9458  0.6706  0.2204
 9275TIP3    H127770   4.973   0.756   4.251 -0.7872  0.9685 -0.5195
 9275TIP3    H227771   4.880   0.701   4.145  1.1126  0.3775 -1.9175
 9276TIP3   OH227772   2.317   7.691   4.662  0.0837 -0.1737 -0.0494
 9276TIP3    H127773   2.384   7.639   4.707  0.2424  0.2205  0.1767
 9276TIP3    H227774   2.364   7.731   4.588  0.4451  1.1746  0.8700
 9277TIP3   OH227775   3.551   7.351   1.600 -0.0028 -0.3141  0.2661
 9277TIP3    H127776   3.574   7.442   1.615  0.8364 -0.3392 -0.8570
 9277TIP3    H227777   3.614   7.301   1.652  0.6973 -0.3013 -0.5643
 9278TIP3   OH227778   3.419   7.693   2.211  0.5986 -0.3651  0.0674
 9278TIP3    H127779   3.380   7.605   2.218 -1.0945  0.2180 -1.5661
 9278TIP3    H227780   3.434   7.705   2.118 -0.8816  1.7895  0.0746
 9279TIP3   OH227781   3.244   4.823   3.156 -0.0281  0.2470  0.6811
 9279TIP3    H127782   3.273   4.909   3.126  0.4742 -0.4142 -0.7815
 9279TIP3    H227783   3.148   4.829   3.159 -0.0947  0.3369 -1.1016
 9280TIP3   OH227784   7.514   0.499   1.599 -0.3370  0.0737  0.1018
 9280TIP3    H127785   7.531   0.462   1.685  1.9397 -0.8606 -0.7098
 9280TIP3    H227786   7.461   0.577   1.617  0.7568  0.3385  2.4230
 9281TIP3   OH227787   1.352   6.571   3.436  0.0408 -0.1479  0.3225
 9281TIP3    H127788   1.402   6.614   3.367  0.0300 -0.6853 -0.0189
 9281TIP3    H227789   1.366   6.477   3.422 -1.8147 -0.3565 -0.3510
 9282TIP3   OH227790   5.286   1.149   4.845  0.0353 -0.1267 -0.5395
 9282TIP3    H127791   5.336   1.086   4.897 -0.4335 -0.7668 -0.8635
 9282TIP3    H227792   5.324   1.234   4.868  0.5716 -0.5100  0.0093
 9283TIP3   OH227793   2.515   6.875   3.974  0.0145  0.4264 -0.1183
 9283TIP3    H127794   2.487   6.847   4.061  1.3756  0.3050  0.2917
 9283TIP3    H227795   2.521   6.970   3.980 -0.5809  0.4766 -0.2913
 9284TIP3   OH227796   3.400   6.973   4.012  0.2002 -0.1872  0.2097
 9284TIP3    H127797   3.451   7.053   4.022  1.7279 -1.2506  1.1153
 9284TIP3    H227798   3.392   6.938   4.101  0.5421 -1.6339 -0.3036
 9285TIP3   OH227799   5.089   1.729   3.339  0.0791  0.0206  0.2176
 9285TIP3    H127800   4.993   1.731   3.346 -0.0617 -3.3537  0.2221
 9285TIP3    H227801   5.118   1.692   3.422  1.2787 -0.3604 -0.3597
 9286TIP3   OH227802   5.835   7.729   4.444  0.5853 -0.1188  0.4132
 9286TIP3    H127803   5.915   7.728   4.497  0.0312 -0.4842  1.2655
 9286TIP3    H227804   5.767   7.698   4.504 -0.2440  0.4672 -0.2211
 9287TIP3   OH227805   4.234   6.371   4.360 -0.4342 -0.3986 -0.2258
 9287TIP3    H127806   4.169   6.372   4.430 -0.2011 -0.3484 -0.0100
 9287TIP3    H227807   4.184   6.352   4.281 -0.6502 -0.8283  0.0084
 9288TIP3   OH227808   8.042   0.757   4.213  0.3739  0.1547 -0.1082
 9288TIP3    H127809   8.089   0.781   4.133  1.1410 -0.0939  0.2590
 9288TIP3    H227810   7.965   0.709   4.182  0.0027  1.1488 -0.7479
 9289TIP3   OH227811   7.639   0.291   4.547  0.8188 -0.1417  0.5564
 9289TIP3    H127812   7.561   0.347   4.540  2.1006  1.6172  0.0424
 9289TIP3    H227813   7.660   0.291   4.640 -0.4348 -1.5325  0.8526
 9290TIP3   OH227814   0.117   0.753   6.650  0.6440 -0.2374  0.0769
 9290TIP3    H127815   0.142   0.802   6.572  1.8511 -0.4318  0.3232
 9290TIP3    H227816   0.200   0.739   6.697  0.0936 -1.1096  0.8099
 9291TIP3   OH227817   3.146   5.104   4.757 -0.4267 -0.1448 -0.0780
 9291TIP3    H127818   3.173   5.125   4.846 -1.4825  1.7945 -0.1728
 9291TIP3    H227819   3.228   5.104   4.707  0.4579 -3.4951  1.2354
 9292TIP3   OH227820   4.359   6.324   4.060  0.6129  0.1909 -0.4711
 9292TIP3    H127821   4.441   6.281   4.084 -0.2899 -0.3693  1.6675
 9292TIP3    H227822   4.384   6.416   4.046  1.5589  0.0798  0.4444
 9293TIP3   OH227823   3.618   6.405   5.330  0.0959  0.4478 -0.0966
 9293TIP3    H127824   3.532   6.373   5.303 -1.4679  2.4405  2.3222
 9293TIP3    H227825   3.678   6.370   5.264 -2.6544 -0.2366 -2.3402
 9294TIP3   OH227826   2.129   6.626   2.670  0.4748  0.1467 -0.0351
 9294TIP3    H127827   2.220   6.652   2.651  0.9862  1.3342  3.6684
 9294TIP3    H227828   2.076   6.697   2.633  1.3291  1.5220  1.2959
 9295TIP3   OH227829   7.705   0.512   3.865  0.0200  0.1870 -0.0442
 9295TIP3    H127830   7.763   0.485   3.936  0.4722  0.7834 -0.1859
 9295TIP3    H227831   7.759   0.508   3.786  0.0767  1.4303 -0.0806
 9296TIP3   OH227832   6.484   7.353   2.852  0.3420 -1.3192  0.2037
 9296TIP3    H127833   6.575   7.339   2.827  0.7675  0.4705  0.6763
 9296TIP3    H227834   6.447   7.407   2.782 -0.2773 -1.7392  0.1920
 9297TIP3   OH227835   2.764   7.915   4.129  0.0928 -0.0001 -0.3689
 9297TIP3    H127836   2.858   7.923   4.145  0.1548 -0.4661 -0.5115
 9297TIP3    H227837   2.753   7.943   4.038  0.2205 -0.8697 -0.6533
 9298TIP3   OH227838   0.158   2.165   4.847 -0.3234  0.5066 -0.0211
 9298TIP3    H127839   0.252   2.184   4.857  0.1104 -1.8906  0.8136
 9298TIP3    H227840   0.134   2.121   4.928 -1.4388 -1.6764 -1.4930
 9299TIP3   OH227841   3.805   7.746   2.294  0.1467 -0.0222 -0.2903
 9299TIP3    H127842   3.801   7.797   2.375  1.9508 -1.7240  0.9339
 9299TIP3    H227843   3.773   7.660   2.319  0.9864 -0.6391 -1.3068
 9300TIP3   OH227844   1.820   6.919   2.957  0.0407 -0.3720  0.8307
 9300TIP3    H127845   1.776   6.987   2.906  0.9724  0.1609  0.7121
 9300TIP3    H227846   1.799   6.940   3.048 -0.4069 -0.4526  0.7482
 9301TIP3   OH227847   3.730   6.357   2.953  0.1934  0.0860 -0.0158
 9301TIP3    H127848   3.726   6.402   3.037  1.2198 -0.5473  0.3807
 9301TIP3    H227849   3.653   6.300   2.952 -1.4576  2.2355 -0.7750
 9302TIP3   OH227850   6.600   3.474   6.497  0.6406 -0.2059 -0.3264
 9302TIP3    H127851   6.661   3.401   6.487 -0.6111 -1.4789  1.0511
 9302TIP3    H227852   6.606   3.497   6.590  1.2514  1.6709 -0.8135
 9303TIP3   OH227853   7.054   1.997   3.054 -0.0623 -0.0269 -0.3901
 9303TIP3    H127854   6.967   2.037   3.058 -0.0969 -0.1357  0.0101
 9303TIP3    H227855   7.098   2.043   2.983 -0.3825  0.1598 -0.4705
 9304TIP3   OH227856   7.526   0.320   3.766  0.5600  0.3306  0.4749
 9304TIP3    H127857   7.533   0.236   3.812  1.7374  0.5202  0.6616
 9304TIP3    H227858   7.585   0.378   3.814  1.5586  0.6221 -1.0945
 9305TIP3   OH227859   3.824   4.278   3.607 -0.2542  0.0852 -0.3896
 9305TIP3    H127860   3.890   4.248   3.669 -0.7297 -0.2499 -0.0452
 9305TIP3    H227861   3.845   4.232   3.525 -0.7217 -0.8509  0.0167
 9306TIP3   OH227862   5.180   1.618   3.095  0.3875  0.3281  0.4715
 9306TIP3    H127863   5.118   1.549   3.115 -1.1575  1.7409  0.6216
 9306TIP3    H227864   5.170   1.682   3.165  0.3611  1.6578 -0.7099
 9307TIP3   OH227865   7.643   0.835   2.999 -1.1115 -0.4831 -0.0112
 9307TIP3    H127866   7.703   0.864   3.068  0.9336 -1.0937 -1.5154
 9307TIP3    H227867   7.615   0.748   3.027  0.2996 -1.0401 -0.3198
 9308TIP3   OH227868   5.849   0.745   3.893 -0.4535 -0.0343 -0.3353
 9308TIP3    H127869   5.753   0.750   3.894 -0.5629 -1.6358 -1.1880
 9308TIP3    H227870   5.872   0.707   3.978 -0.7050 -1.3099 -0.8188
 9309TIP3   OH227871   4.262   1.453   4.603 -0.5212 -0.2560 -0.0915
 9309TIP3    H127872   4.218   1.503   4.672  0.4918  0.1304  0.2806
 9309TIP3    H227873   4.209   1.375   4.592 -1.4727  0.3490  0.1470
 9310TIP3   OH227874   5.041   7.706   1.965 -0.5780 -0.3284  0.1811
 9310TIP3    H127875   4.988   7.634   1.998  0.5022 -0.5818  1.3962
 9310TIP3    H227876   5.096   7.732   2.040  0.5645  0.3339 -0.8701
 9311TIP3   OH227877   4.767   7.461   4.383 -0.6334  0.4177 -0.2623
 9311TIP3    H127878   4.758   7.530   4.448  1.7123 -0.0806  0.6257
 9311TIP3    H227879   4.731   7.383   4.425 -1.7913  0.7077 -0.6747
 9312TIP3   OH227880   3.653   6.015   5.986  0.2276  0.0763  0.7662
 9312TIP3    H127881   3.565   6.048   6.001 -0.4957 -1.1623 -0.5830
 9312TIP3    H227882   3.658   5.935   6.038  0.7367  0.4136  1.2414
 9313TIP3   OH227883   3.427   1.218   3.953 -0.0084  0.3795  0.0246
 9313TIP3    H127884   3.450   1.304   3.918  1.4476 -0.3713 -0.9056
 9313TIP3    H227885   3.500   1.162   3.928 -0.9115 -1.1161  0.6961
 9314TIP3   OH227886   6.091   1.248   2.081 -0.0818 -0.0642 -0.0896
 9314TIP3    H127887   6.177   1.212   2.060  0.0666  0.0327  0.3343
 9314TIP3    H227888   6.029   1.188   2.040  0.2018  0.2139 -0.9243
 9315TIP3   OH227889   5.081   7.042   2.683 -0.1034  0.0978 -0.8375
 9315TIP3    H127890   5.156   7.012   2.735  0.0876  4.3068  1.6462
 9315TIP3    H227891   5.117   7.057   2.596  1.7609  1.0628  0.0502
 9316TIP3   OH227892   4.289   0.121   3.550 -0.0383  0.4254  0.1873
 9316TIP3    H127893   4.235   0.190   3.589 -1.3843 -0.3132 -0.3256
 9316TIP3    H227894   4.323   0.072   3.625  0.2389  1.1183  0.5237
 9317TIP3   OH227895   4.452   7.171   3.941 -0.5561 -0.4826  0.2253
 9317TIP3    H127896   4.371   7.143   3.900  0.3289 -0.8294 -1.3299
 9317TIP3    H227897   4.520   7.119   3.898  0.4922 -0.1669  1.4708
 9318TIP3   OH227898   4.817   5.768   4.748 -0.3351  0.4834 -0.5026
 9318TIP3    H127899   4.722   5.777   4.743 -0.2654  0.7603 -1.5517
 9318TIP3    H227900   4.835   5.688   4.698  0.1410  1.4491 -1.9025
 9319TIP3   OH227901   4.507   7.491   1.147  0.0414  0.4111  0.2542
 9319TIP3    H127902   4.548   7.479   1.061 -1.0449 -1.1844 -0.0698
 9319TIP3    H227903   4.556   7.434   1.206  1.7291  2.6242  1.0285
 9320TIP3   OH227904   6.764   0.583   3.006  0.4642 -0.1306  0.3156
 9320TIP3    H127905   6.715   0.538   2.937  0.7745 -0.8212  0.5406
 9320TIP3    H227906   6.814   0.514   3.050 -0.8542  0.0712  2.1885
 9321TIP3   OH227907   5.624   1.264   3.233 -0.0789  0.5253 -0.2250
 9321TIP3    H127908   5.558   1.303   3.289  0.2332 -0.0771  0.5646
 9321TIP3    H227909   5.707   1.300   3.264  0.3116 -1.4530  1.1412
 9322TIP3   OH227910   3.422   6.547   2.206 -0.1891  0.0334 -0.5856
 9322TIP3    H127911   3.378   6.610   2.264  1.1743  0.9838 -0.5728
 9322TIP3    H227912   3.451   6.477   2.264  3.1077  2.0259  0.2672
 9323TIP3   OH227913   2.571   6.852   3.074  0.9977  0.2652 -0.3029
 9323TIP3    H127914   2.588   6.942   3.048  0.8811  0.1259 -0.8869
 9323TIP3    H227915   2.636   6.833   3.141  0.9007  0.8420 -0.0511
 9324TIP3   OH227916   2.803   4.347   5.444 -0.2323  0.4719 -0.5692
 9324TIP3    H127917   2.857   4.386   5.375  0.7523 -0.6561 -0.4697
 9324TIP3    H227918   2.733   4.303   5.396  0.2425  0.0005 -0.8427
 9325TIP3   OH227919   6.601   6.283   4.385 -0.0224  0.5809  0.4921
 9325TIP3    H127920   6.640   6.266   4.299 -3.9996 -0.9538 -1.0989
 9325TIP3    H227921   6.612   6.201   4.433 -1.6718 -0.0395 -0.1532
 9326TIP3   OH227922   4.209   6.854   1.773 -0.3173 -0.1723  0.1086
 9326TIP3    H127923   4.294   6.814   1.755 -1.1781 -1.6235 -0.8702
 9326TIP3    H227924   4.222   6.902   1.855  1.0007 -1.7878  0.8856
 9327TIP3   OH227925   4.387   4.062   3.725  0.0801  0.0055  0.0475
 9327TIP3    H127926   4.339   4.034   3.646  0.9664 -1.9336  0.1603
 9327TIP3    H227927   4.324   4.052   3.796  0.2504 -1.3779  0.0244
 9328TIP3   OH227928   2.040   5.714   3.507  0.5032  0.1372  0.0639
 9328TIP3    H127929   2.124   5.753   3.485 -0.0318  0.7875 -0.8735
 9328TIP3    H227930   2.034   5.722   3.602  0.4997  2.1925 -0.0888
 9329TIP3   OH227931   4.995   0.173   4.101  0.1806 -0.4420  0.2066
 9329TIP3    H127932   4.956   0.246   4.149 -0.1435 -0.9663  0.7464
 9329TIP3    H227933   4.970   0.095   4.151  0.6917 -0.9067 -0.2552
 9330TIP3   OH227934   4.726   7.895   4.683  0.2533  0.0823 -0.4481
 9330TIP3    H127935   4.661   7.955   4.648 -0.6302 -0.7625 -0.2746
 9330TIP3    H227936   4.803   7.909   4.628  0.2969  1.8687  0.0344
 9331TIP3   OH227937   3.401   6.431   3.540  0.5943 -0.5462  0.1695
 9331TIP3    H127938   3.437   6.343   3.554  1.8864 -0.2467 -1.1704
 9331TIP3    H227939   3.360   6.426   3.454 -1.0829 -0.3795  0.9372
 9332TIP3   OH227940   1.075   1.836   2.542  0.3428 -0.9890  0.3506
 9332TIP3    H127941   1.135   1.878   2.481  0.9460 -0.6391  1.1775
 9332TIP3    H227942   1.122   1.836   2.625 -0.9812 -0.2883  1.1147
 9333TIP3   OH227943   0.220   0.828   3.334  0.1173 -0.1434 -0.0566
 9333TIP3    H127944   0.268   0.756   3.293  1.7409  0.9939 -0.2042
 9333TIP3    H227945   0.288   0.885   3.369 -1.1868 -0.0333  2.4319
 9334TIP3   OH227946   2.040   5.730   6.830  0.0378  0.1668  0.0524
 9334TIP3    H127947   2.016   5.650   6.877 -0.7962  0.6095  0.3883
 9334TIP3    H227948   1.992   5.724   6.747  0.5635 -0.0365 -0.2389
 9335TIP3   OH227949   8.252   0.987   1.744 -0.0677 -0.1757  0.1054
 9335TIP3    H127950   8.204   0.976   1.826 -0.1162  0.6141  0.1803
 9335TIP3    H227951   8.237   1.078   1.718 -0.6508 -0.6129 -1.1518
 9336TIP3   OH227952   0.635   0.733   1.867 -0.2972 -0.0468  0.0263
 9336TIP3    H127953   0.561   0.704   1.815 -1.4677 -0.6706  1.9805
 9336TIP3    H227954   0.695   0.658   1.869 -1.7901 -1.2453  2.3016
 9337TIP3   OH227955   5.687   6.811   4.452 -0.3334 -0.3474  0.6813
 9337TIP3    H127956   5.684   6.748   4.380 -1.1936 -0.2973  0.6578
 9337TIP3    H227957   5.595   6.825   4.475 -0.3516  2.9063 -1.0859
 9338TIP3   OH227958   6.895   1.968   4.539  0.1838  0.4942 -0.6457
 9338TIP3    H127959   6.967   2.028   4.517  0.2613  0.4191 -0.6001
 9338TIP3    H227960   6.819   2.005   4.495  0.0063  1.2134  0.2526
 9339TIP3   OH227961   4.255   6.708   2.711 -0.1761  0.1612 -0.3237
 9339TIP3    H127962   4.330   6.761   2.737 -1.5443  1.8703  0.2356
 9339TIP3    H227963   4.286   6.617   2.716  1.9980  0.8685 -0.6462
 9340TIP3   OH227964   1.387   0.757   4.893 -0.4238  0.0213  0.7502
 9340TIP3    H127965   1.379   0.840   4.846 -1.9426  0.0984  1.1249
 9340TIP3    H227966   1.367   0.779   4.984 -0.0028 -0.6047  0.9942
 9341TIP3   OH227967   8.064   0.726   4.847  0.1163 -0.2999  0.4539
 9341TIP3    H127968   8.127   0.750   4.915  0.2013 -0.0366  0.2805
 9341TIP3    H227969   8.117   0.705   4.771  0.0348 -0.8369  0.5386
 9342TIP3   OH227970   7.066   0.104   2.279 -0.4633  0.1291  0.0882
 9342TIP3    H127971   7.034   0.068   2.361 -0.1430  1.9390  1.0141
 9342TIP3    H227972   7.103   0.189   2.302  0.2149  0.3789 -1.8188
 9343TIP3   OH227973   6.097   8.005   3.669 -0.4752  0.7959 -0.0071
 9343TIP3    H127974   6.085   7.997   3.574  0.5709  0.6001 -0.1261
 9343TIP3    H227975   6.008   8.004   3.705 -0.9116  1.6597 -1.0455
 9344TIP3   OH227976   5.559   2.271   3.632 -0.0836 -0.1275 -0.2707
 9344TIP3    H127977   5.595   2.342   3.686  0.6362  1.2918 -2.5554
 9344TIP3    H227978   5.635   2.225   3.598 -0.5355 -1.2446  0.1968
 9345TIP3   OH227979   1.447   5.084   6.579  0.3573  0.0001 -0.7364
 9345TIP3    H127980   1.483   5.076   6.491 -0.9958  4.0179 -1.7960
 9345TIP3    H227981   1.357   5.051   6.571  0.7859 -1.2634 -0.4105
 9346TIP3   OH227982   4.125   1.360   2.558  0.0652  0.2796  0.5118
 9346TIP3    H127983   4.068   1.386   2.631  0.9641  1.0509  0.9523
 9346TIP3    H227984   4.144   1.268   2.573 -1.4109 -0.0962  0.1282
 9347TIP3   OH227985   8.353   0.064   2.885  0.2447  0.3839  0.2411
 9347TIP3    H127986   8.349   0.050   2.980 -2.6029  0.9503  0.2365
 9347TIP3    H227987   8.262   0.078   2.859  1.1053  1.2117 -2.4430
 9348TIP3   OH227988   6.653   0.936   4.453 -0.3258  0.0445  0.2441
 9348TIP3    H127989   6.564   0.914   4.483  0.0046 -2.9368 -0.8268
 9348TIP3    H227990   6.662   0.891   4.369  2.2934  0.0731  0.4797
 9349TIP3   OH227991   7.091   1.142   0.993 -0.1155 -0.0289 -0.0712
 9349TIP3    H127992   7.085   1.176   0.904 -0.6813  0.3985  0.1253
 9349TIP3    H227993   7.075   1.048   0.984  1.5533 -0.2847 -0.6309
 9350TIP3   OH227994   7.058   0.349   1.841 -0.2637 -0.2788 -0.1594
 9350TIP3    H127995   6.968   0.328   1.818 -0.0407  0.4948 -1.8204
 9350TIP3    H227996   7.071   0.438   1.809  0.7961 -0.0341  0.9296
 9351TIP3   OH227997   6.122   0.696   1.721  0.2812  0.6384  0.4811
 9351TIP3    H127998   6.199   0.686   1.777  0.8932  2.5180  0.0040
 9351TIP3    H227999   6.106   0.790   1.718 -2.4552  0.2273  1.1180
 9352TIP3   OH228000   5.670   0.041   2.957  0.2756 -0.3849  0.2123
 9352TIP3    H128001   5.610   0.108   2.924  1.7757  1.4171  1.0404
 9352TIP3    H228002   5.685   0.066   3.048  0.8816 -1.8532  0.5258
 9353TIP3   OH228003   4.044   7.183   1.790 -0.2597  0.2777  0.3468
 9353TIP3    H128004   4.108   7.222   1.730  0.0913  0.2844  0.7200
 9353TIP3    H228005   4.045   7.089   1.769  0.2978  0.1923  0.7388
 9354TIP3   OH228006   5.091   7.579   2.502 -0.3619  0.3966 -0.1656
 9354TIP3    H128007   5.097   7.674   2.510 -1.6385  0.4442  0.2019
 9354TIP3    H228008   5.017   7.554   2.557 -0.7368 -0.6904 -1.1488
 9355TIP3   OH228009   7.920   7.828   1.676  0.2768 -0.6597 -0.0560
 9355TIP3    H128010   7.868   7.828   1.756 -0.6000 -1.1817 -0.6162
 9355TIP3    H228011   8.001   7.873   1.699 -0.6632  0.6744  0.6698
 9356TIP3   OH228012   6.092   7.574   2.308 -0.0124 -0.3106  0.2965
 9356TIP3    H128013   6.134   7.611   2.385  1.3125  0.2574 -0.6865
 9356TIP3    H228014   5.998   7.586   2.324  0.2843  0.4839  1.4761
 9357TIP3   OH228015   8.461   2.168   2.679  0.0531 -0.2473 -0.0250
 9357TIP3    H128016   8.469   2.101   2.747 -1.9199 -1.1333 -0.6476
 9357TIP3    H228017   8.531   2.147   2.617  0.7256 -0.5088  0.8013
 9358TIP3   OH228018   7.078   1.165   1.943  0.1949  0.1502 -0.0631
 9358TIP3    H128019   7.158   1.194   1.899  0.8521 -1.2807  0.1500
 9358TIP3    H228020   7.107   1.136   2.029 -0.6503  0.1598  0.2332
 9359TIP3   OH228021   7.280   0.290   1.251 -0.6684  0.4750 -0.1149
 9359TIP3    H128022   7.197   0.253   1.281  0.3131  0.2595  2.5350
 9359TIP3    H228023   7.338   0.214   1.242 -0.5226  0.7057 -1.1502
 9360TIP3   OH228024   5.891   4.946   6.777 -0.3356 -1.0098 -0.3889
 9360TIP3    H128025   5.800   4.918   6.783 -0.8580  0.7944  0.4724
 9360TIP3    H228026   5.896   5.025   6.831  1.6704 -0.9117 -0.6569
 9361TIP3   OH228027   6.368   7.447   0.994  0.2007  0.3553 -0.1391
 9361TIP3    H128028   6.293   7.476   0.942  0.7490  1.8595 -0.0987
 9361TIP3    H228029   6.329   7.399   1.068 -0.6806  0.4971 -0.5116
 9362TIP3   OH228030   7.606   7.376   2.489 -0.0155  0.4249 -0.0030
 9362TIP3    H128031   7.550   7.391   2.565 -1.4975 -3.5567 -0.2020
 9362TIP3    H228032   7.562   7.421   2.417 -2.0089 -1.0815  0.2378
 9363TIP3   OH228033   7.859   1.519   3.410 -0.1638  0.2337  0.2480
 9363TIP3    H128034   7.865   1.446   3.472 -2.2763  1.0895  1.5317
 9363TIP3    H228035   7.798   1.580   3.451 -0.0924  1.7408 -1.7965
 9364TIP3   OH228036   7.384   1.556   1.795  0.2596  0.1888 -0.2357
 9364TIP3    H128037   7.310   1.532   1.851  0.0707 -0.5539 -0.7944
 9364TIP3    H228038   7.460   1.550   1.852  0.1245 -1.0140 -0.1566
 9365TIP3   OH228039   5.537   7.955   4.283 -0.2208 -0.6084 -0.3477
 9365TIP3    H128040   5.562   7.957   4.376 -0.9085  0.5473 -0.1818
 9365TIP3    H228041   5.602   7.898   4.242  1.5269  0.7851  0.4155
 9366TIP3   OH228042   8.415   2.826   4.251 -0.0111 -0.2671  0.1997
 9366TIP3    H128043   8.351   2.773   4.204  0.4783 -0.5841 -0.0985
 9366TIP3    H228044   8.471   2.763   4.296  0.4248  0.0048  0.0345
 9367TIP3   OH228045   4.027   7.757   2.129  0.0244 -0.2261 -0.5260
 9367TIP3    H128046   3.943   7.770   2.173  0.2392  0.5731 -0.3485
 9367TIP3    H228047   4.003   7.727   2.041 -0.4707  0.9880 -0.8050
 9368TIP3   OH228048   0.161   0.940   0.388 -0.0315  0.7093  0.3264
 9368TIP3    H128049   0.124   1.006   0.330  0.4742 -1.4947 -2.6505
 9368TIP3    H228050   0.152   0.858   0.340  1.8314 -1.0129  2.7504
 9369TIP3   OH228051   6.821   6.926   3.215  0.0596 -0.0622  0.6887
 9369TIP3    H128052   6.773   6.944   3.133 -0.4975  1.7969  1.4001
 9369TIP3    H228053   6.767   6.860   3.259 -0.4586  0.0612  0.2616
 9370TIP3   OH228054   6.586   1.419   4.197 -0.4330  0.3374 -0.1239
 9370TIP3    H128055   6.494   1.396   4.179 -0.3636 -0.1033  0.0892
 9370TIP3    H228056   6.625   1.338   4.228  0.5847 -0.0435 -2.3186
 9371TIP3   OH228057   0.611   1.014   2.750 -0.0623 -0.4377  0.7971
 9371TIP3    H128058   0.659   1.010   2.667  0.5317 -1.2761  1.1679
 9371TIP3    H228059   0.628   1.102   2.783 -0.2716 -0.1070  0.0484
 9372TIP3   OH228060   7.629   7.673   4.358  0.0555 -0.4323  0.4127
 9372TIP3    H128061   7.602   7.716   4.277  2.7975  0.0648 -0.2624
 9372TIP3    H228062   7.668   7.743   4.410 -0.6675 -0.9804  1.7047
 9373TIP3   OH228063   1.821   1.074   3.871 -0.5684  0.4030 -0.2961
 9373TIP3    H128064   1.793   1.151   3.921  1.3815  0.2402  1.0820
 9373TIP3    H228065   1.912   1.092   3.849  0.1564 -1.9017  0.7475
 9374TIP3   OH228066   6.947   2.219   3.438  0.4304  0.4282  0.0787
 9374TIP3    H128067   6.984   2.221   3.526  0.0389  0.3289  0.2489
 9374TIP3    H228068   7.021   2.202   3.381  0.6222  0.0730  0.4300
 9375TIP3   OH228069   5.915   7.108   2.506  0.0914  0.1945 -0.9806
 9375TIP3    H128070   5.830   7.151   2.513 -0.6227 -1.3438  0.1389
 9375TIP3    H228071   5.978   7.177   2.526 -0.9974  0.8964  0.0848
 9376TIP3   OH228072   1.023   1.094   4.501  0.7061 -0.0825  0.5538
 9376TIP3    H128073   1.040   1.129   4.413 -0.8959  0.8127  0.5818
 9376TIP3    H228074   1.110   1.074   4.536  1.4847  1.2454 -0.5577
 9377TIP3   OH228075   7.428   2.116   2.112  0.3923  0.4310 -0.2470
 9377TIP3    H128076   7.389   2.112   2.025  1.7618  0.6005 -0.8947
 9377TIP3    H228077   7.508   2.168   2.100 -0.3182  1.9646  1.4751
 9378TIP3   OH228078   5.525   0.587   3.208 -0.6149 -0.1176  0.8646
 9378TIP3    H128079   5.514   0.669   3.255 -0.5086  0.6843 -0.4779
 9378TIP3    H228080   5.598   0.543   3.251 -0.6161  0.5292  1.5289
 9379TIP3   OH228081   2.574   7.477   4.703  0.0843 -0.3382 -0.0364
 9379TIP3    H128082   2.642   7.495   4.767 -0.2932 -0.1868  0.3238
 9379TIP3    H228083   2.544   7.388   4.724 -1.5858  0.5377  1.4268
 9380TIP3   OH228084   7.876   0.100   3.136  0.4009 -0.4195  0.5190
 9380TIP3    H128085   7.948   0.040   3.158 -0.5781 -1.8882 -0.1457
 9380TIP3    H228086   7.852   0.141   3.219  3.2995  1.5786  0.4124
 9381TIP3   OH228087   6.156   7.450   2.057 -0.2399 -0.1277  0.4328
 9381TIP3    H128088   6.168   7.355   2.061  1.5201  0.0526 -0.2931
 9381TIP3    H228089   6.124   7.473   2.145 -0.0211 -1.2993  0.8348
 9382TIP3   OH228090   5.223   7.969   5.031  0.5161 -0.4294  0.3860
 9382TIP3    H128091   5.140   8.011   5.008  0.5513 -0.4745  0.1687
 9382TIP3    H228092   5.286   8.005   4.968  0.7734  0.0082  0.8847
 9383TIP3   OH228093   3.348   7.754   3.461  0.1356 -0.4375 -0.1458
 9383TIP3    H128094   3.387   7.840   3.475  0.6879 -0.3691 -2.0280
 9383TIP3    H228095   3.368   7.706   3.541  0.6657  0.8638  0.5259
 9384TIP3   OH228096   6.207   6.118   3.631 -0.7025  0.1156 -0.2098
 9384TIP3    H128097   6.207   6.194   3.572 -1.1288  0.0190 -0.3341
 9384TIP3    H228098   6.299   6.108   3.656 -0.3762 -0.3731 -1.5447
 9385TIP3   OH228099   3.960   6.668   1.250  0.1915 -0.0344 -0.3554
 9385TIP3    H128100   3.915   6.651   1.167 -0.0241 -1.8824  0.1374
 9385TIP3    H228101   3.929   6.600   1.309  1.8324  0.1093  0.6968
 9386TIP3   OH228102   7.674   0.878   3.357  0.4399  0.0925 -0.4572
 9386TIP3    H128103   7.729   0.930   3.298 -0.6010 -0.1478 -1.6456
 9386TIP3    H228104   7.596   0.932   3.371  1.5552  1.1016  2.4125
 9387TIP3   OH228105   7.243   1.165   3.812  0.6191  0.0157 -0.1697
 9387TIP3    H128106   7.158   1.207   3.804  0.4297 -0.3347 -0.0195
 9387TIP3    H228107   7.223   1.074   3.831  1.0218  0.6337  3.5396
 9388TIP3   OH228108   5.773   7.774   2.649 -0.5765 -0.0108 -0.0842
 9388TIP3    H128109   5.733   7.691   2.675 -1.7100  0.5503  0.0001
 9388TIP3    H228110   5.785   7.821   2.731  0.7240 -0.3779 -0.0621
 9389TIP3   OH228111   7.332   6.176   3.332 -0.0205  0.0765 -0.1824
 9389TIP3    H128112   7.288   6.255   3.303  0.7984  0.4768 -0.3442
 9389TIP3    H228113   7.417   6.206   3.366  0.5565 -0.7790 -0.8326
 9390TIP3   OH228114   4.284   6.815   1.046  0.1527 -0.1884 -0.5059
 9390TIP3    H128115   4.259   6.877   0.979  0.1386  1.3820  0.9325
 9390TIP3    H228116   4.238   6.843   1.125 -0.6156 -2.5786 -0.0355
 9391TIP3   OH228117   5.981   6.737   1.998  0.0223 -0.0084 -0.3308
 9391TIP3    H128118   5.960   6.824   2.033  0.5072 -0.1232  0.2389
 9391TIP3    H228119   6.010   6.687   2.073 -1.0415 -0.9190 -0.5127
 9392TIP3   OH228120   0.796   1.048   3.416  0.1294 -0.3762  0.1084
 9392TIP3    H128121   0.782   0.955   3.430  0.9269 -0.2286  1.9738
 9392TIP3    H228122   0.830   1.081   3.499  0.5221  1.4522 -0.7372
 9393TIP3   OH228123   4.102   6.335   2.656 -0.4247 -0.0733  0.7230
 9393TIP3    H128124   4.036   6.358   2.722  0.6672  1.8974  1.1513
 9393TIP3    H228125   4.063   6.360   2.573 -0.7706 -0.2259  0.8347
 9394TIP3   OH228126   5.311   6.569   3.657  0.5768 -0.3304 -0.3288
 9394TIP3    H128127   5.227   6.571   3.701  1.5383  1.2899  1.5062
 9394TIP3    H228128   5.298   6.623   3.578 -0.1352 -0.1620 -0.1010
 9395TIP3   OH228129   0.977   1.389   2.188 -0.2365  0.1462  0.2109
 9395TIP3    H128130   0.885   1.378   2.214 -0.1961 -1.7280 -0.3743
 9395TIP3    H228131   1.015   1.302   2.199  1.1653  0.6319 -0.7523
 9396TIP3   OH228132   4.946   7.547   3.072 -0.4088 -0.0786 -0.0688
 9396TIP3    H128133   4.885   7.528   3.000  0.4510  1.2082 -1.1447
 9396TIP3    H228134   4.892   7.539   3.151 -2.1169  1.5233 -1.0302
 9397TIP3   OH228135   6.996   5.104   2.887 -0.3932 -0.1027 -0.3364
 9397TIP3    H128136   7.004   5.010   2.901 -1.8133 -0.0718  0.7700
 9397TIP3    H228137   6.905   5.124   2.907  0.2706  1.7682  0.9472
 9398TIP3   OH228138   6.941   0.939   1.796  0.0831 -0.2057  0.2990
 9398TIP3    H128139   6.958   1.028   1.765  0.1298 -0.1367  0.5269
 9398TIP3    H228140   6.948   0.944   1.891  0.3553 -0.5124  0.2949
 9399TIP3   OH228141   7.335   3.634   2.857 -0.2339 -0.1431  0.2117
 9399TIP3    H128142   7.259   3.679   2.895 -0.0735  1.4280 -1.2830
 9399TIP3    H228143   7.298   3.572   2.795 -0.2674  2.2779 -2.2793
 9400TIP3   OH228144   4.628   7.590   1.634  0.2207  0.4287  0.6653
 9400TIP3    H128145   4.558   7.540   1.593  1.7516 -1.4195  0.2239
 9400TIP3    H228146   4.629   7.562   1.725 -2.1308  3.3544  1.6680
 9401TIP3   OH228147   5.733   7.651   1.882 -0.3698 -0.2279 -0.6449
 9401TIP3    H128148   5.818   7.628   1.843  1.2232  3.0062  0.7876
 9401TIP3    H228149   5.740   7.623   1.973 -0.9778 -0.1964 -0.5877
 9402TIP3   OH228150   5.692   7.366   2.957  0.2213 -0.3871 -0.2126
 9402TIP3    H128151   5.734   7.303   3.014 -0.0211  0.1173  0.5270
 9402TIP3    H228152   5.633   7.415   3.014  1.1719  1.2026 -0.5859
 9403TIP3   OH228153   0.869   7.618   1.560  0.6654 -0.4353  0.0798
 9403TIP3    H128154   0.936   7.556   1.531 -1.8834 -2.5842 -1.4683
 9403TIP3    H228155   0.860   7.680   1.488 -0.1170 -1.1202 -0.4281
 9404TIP3   OH228156   5.487   7.423   4.686 -0.2261 -0.0585  0.0827
 9404TIP3    H128157   5.569   7.380   4.661 -1.9402 -2.8404 -0.9950
 9404TIP3    H228158   5.467   7.386   4.772 -0.5824  0.2644  0.1364
 9405TIP3   OH228159   8.211   1.451   3.430  0.1159 -0.5440 -0.2152
 9405TIP3    H128160   8.131   1.410   3.462 -0.5442 -1.3346 -2.7808
 9405TIP3    H228161   8.266   1.378   3.402 -0.5341  0.1624 -3.5831
 9406TIP3   OH228162   7.057   0.457   2.237  0.1959 -0.3176 -0.3050
 9406TIP3    H128163   7.104   0.391   2.287 -0.4543 -0.0952  0.6031
 9406TIP3    H228164   7.026   0.520   2.302 -0.5796  0.0214 -0.9914
 9407TIP3   OH228165   7.073   7.952   3.291  0.0603 -0.1400 -0.7908
 9407TIP3    H128166   7.082   8.046   3.308 -1.2573  0.3079 -2.4769
 9407TIP3    H228167   7.137   7.911   3.350 -0.4770  1.6856  1.1427
 9408TIP3   OH228168   2.070   0.387   3.989 -0.0240  0.1013 -0.3991
 9408TIP3    H128169   2.151   0.435   4.005 -0.4316  0.8267 -0.4882
 9408TIP3    H228170   2.083   0.303   4.033  0.8078  0.1770 -0.4882
 9409TIP3   OH228171   7.559   0.284   0.291 -0.4204 -0.3142  0.1172
 9409TIP3    H128172   7.486   0.229   0.264  1.4240 -3.1994  0.6889
 9409TIP3    H228173   7.558   0.280   0.386 -0.2037  0.5426  0.1555
 9410TIP3   OH228174   4.924   7.193   2.405  0.0028 -0.1920 -0.0005
 9410TIP3    H128175   4.934   7.111   2.356 -0.3546 -1.5438  2.1101
 9410TIP3    H228176   4.833   7.219   2.391 -0.0858 -0.5509 -0.1053
 9411TIP3   OH228177   6.285   7.176   2.757  0.1401 -0.2708 -0.2577
 9411TIP3    H128178   6.368   7.222   2.760  0.1552 -0.4129  2.1701
 9411TIP3    H228179   6.222   7.237   2.795 -0.7149 -0.5103 -1.2519
 9412TIP3   OH228180   5.414   7.238   2.808  0.3683 -0.3378 -0.2591
 9412TIP3    H128181   5.352   7.279   2.867  0.2883 -1.8325  0.7094
 9412TIP3    H228182   5.455   7.311   2.762 -3.1682  0.6331 -2.0389
 9413TIP3   OH228183   1.645   2.237   1.766 -0.9789  0.6908 -0.1820
 9413TIP3    H128184   1.586   2.204   1.699  0.4341  0.0318 -1.1343
 9413TIP3    H228185   1.682   2.316   1.728  0.6994 -0.3093 -0.6866
 9414TIP3   OH228186   6.967   1.239   2.887 -0.4519  0.3811 -0.6332
 9414TIP3    H128187   7.059   1.224   2.863 -0.6312  2.1002 -2.4828
 9414TIP3    H228188   6.943   1.161   2.937  2.2155  0.2095  0.4691
 9415TIP3   OH228189   4.734   7.350   0.583  0.0919 -0.0794 -0.7133
 9415TIP3    H128190   4.773   7.433   0.554  0.1134  0.1487 -0.0292
 9415TIP3    H228191   4.743   7.292   0.507 -1.8961  1.2063 -1.9621
 9416TIP3   OH228192   4.465   7.446   0.645 -0.0337  0.4024  0.2406
 9416TIP3    H128193   4.547   7.397   0.639  0.4431  1.3418 -1.2157
 9416TIP3    H228194   4.433   7.450   0.555 -0.7161  1.6708  0.5254
 9417TIP3   OH228195   3.003   7.421   2.776  0.3499  0.3866 -0.1142
 9417TIP3    H128196   2.913   7.393   2.762  0.7071 -0.8929  0.0617
 9417TIP3    H228197   2.995   7.510   2.811 -0.7331  1.3035 -2.5820
 9418TIP3   OH228198   8.132   0.855   2.821  0.2768  0.1876 -0.1553
 9418TIP3    H128199   8.064   0.852   2.888  1.1266  1.3370  0.7859
 9418TIP3    H228200   8.213   0.837   2.869  0.8831  0.9330 -0.8807
 9419TIP3   OH228201   6.350   0.293   1.479  0.2393 -0.3299 -0.0995
 9419TIP3    H128202   6.402   0.319   1.555  0.2908 -0.9129  0.0677
 9419TIP3    H228203   6.317   0.375   1.443 -0.5507 -0.1132  1.1058
 9420TIP3   OH228204   5.445   6.739   1.371  0.7438 -0.1665  0.5420
 9420TIP3    H128205   5.442   6.680   1.295  0.6230 -0.8330  1.0641
 9420TIP3    H228206   5.429   6.826   1.334  0.4469 -0.5173 -0.1663
 9421TIP3   OH228207   0.719   1.085   4.288 -0.2678  0.5139 -0.1617
 9421TIP3    H128208   0.780   1.130   4.230 -0.6283 -1.4361 -2.1339
 9421TIP3    H228209   0.737   0.992   4.274 -1.3839 -0.0154  1.7590
 9422TIP3   OH228210   5.051   6.989   4.977  0.1195 -0.6301 -0.2221
 9422TIP3    H128211   5.002   6.985   5.059  0.5590  0.5280  0.1086
 9422TIP3    H228212   4.997   7.043   4.919  0.7327  0.2025 -0.0325
 9423TIP3   OH228213   4.630   7.230   2.335  0.4791  0.1328  0.6652
 9423TIP3    H128214   4.637   7.149   2.384  1.3806 -0.1351  0.1061
 9423TIP3    H228215   4.538   7.257   2.345 -0.4255 -2.1874 -1.1380
 9424TIP3   OH228216   6.132   7.007   3.781 -0.4232  0.3713 -0.3133
 9424TIP3    H128217   6.181   6.936   3.741  1.0670  1.4609 -0.4845
 9424TIP3    H228218   6.062   7.027   3.718 -0.0891 -0.0999 -0.8388
 9425TIP3   OH228219   5.853   7.057   1.793  0.5097  0.2076 -0.0540
 9425TIP3    H128220   5.806   7.031   1.872  1.9980  0.1836  0.8304
 9425TIP3    H228221   5.938   7.088   1.824 -0.0318  3.2036 -1.3679
 9426TIP3   OH228222   6.374   0.413   2.756  0.2654 -0.2087 -0.0973
 9426TIP3    H128223   6.322   0.341   2.792 -0.6824  0.9381  0.8931
 9426TIP3    H228224   6.414   0.377   2.677 -0.1482 -1.8309  0.4181
 9427TIP3   OH228225   5.950   0.032   3.669  0.0310  0.7906 -0.0095
 9427TIP3    H128226   5.980  -0.055   3.692  0.0131  0.6555 -0.4919
 9427TIP3    H228227   5.869   0.044   3.720 -1.7661 -0.7574 -2.3842
 9428TIP3   OH228228   4.327   7.816   3.352 -0.2631 -0.3076  0.2950
 9428TIP3    H128229   4.406   7.810   3.298  1.3661 -1.2545  2.7168
 9428TIP3    H228230   4.322   7.909   3.375 -0.3215 -0.0997 -0.5323
 9429TIP3   OH228231   7.974   2.379   2.324  0.1980  0.5255  0.2687
 9429TIP3    H128232   7.970   2.284   2.323  0.5958  0.4999  0.7254
 9429TIP3    H228233   7.935   2.406   2.241 -1.0577  0.0172  0.6789
 9430TIP3   OH228234   4.960   6.772   2.388 -0.4801 -0.2339 -0.0366
 9430TIP3    H128235   4.925   6.762   2.477  1.4706 -0.7194  0.7036
 9430TIP3    H228236   4.979   6.683   2.359 -0.5926 -0.0346 -0.7149
 9431TIP3   OH228237   5.882   6.774   3.441  0.0826 -0.1546 -0.4783
 9431TIP3    H128238   5.865   6.709   3.509  1.5471 -1.8728 -1.6800
 9431TIP3    H228239   5.927   6.725   3.372  1.1248  2.1152 -1.4803
 9432TIP3   OH228240   4.905   8.034   1.492 -0.5634  0.1558 -0.1559
 9432TIP3    H128241   4.879   7.951   1.534 -1.5113 -0.0653 -1.1684
 9432TIP3    H228242   4.908   8.013   1.399  1.1221  0.7630 -0.2479
 9433TIP3   OH228243   8.311   1.813   0.830  0.0728  0.3611  0.3064
 9433TIP3    H128244   8.303   1.795   0.736 -1.1584 -2.1744  0.8563
 9433TIP3    H228245   8.385   1.760   0.859 -0.4538  0.0015  1.0251
 9434TIP3   OH228246   7.825   0.861   3.621  0.1007 -0.2210 -0.2560
 9434TIP3    H128247   7.794   0.877   3.711  0.4259  0.9483 -0.3408
 9434TIP3    H228248   7.748   0.878   3.566  0.0240 -0.4865 -0.2296
 9435TIP3   OH228249   0.013   1.718   2.643 -0.5591 -0.0594  0.4275
 9435TIP3    H128250   0.077   1.689   2.709 -1.4172 -2.2331  0.3283
 9435TIP3    H228251   0.064   1.776   2.586  0.7155  0.1969  1.7687
 9436TIP3   OH228252   7.338   0.436   2.758  0.4484  0.2623 -0.2312
 9436TIP3    H128253   7.407   0.452   2.822  0.4807  0.2046 -0.2512
 9436TIP3    H228254   7.376   0.374   2.696  0.2142 -0.1450  0.0311
 9437TIP3   OH228255   0.091   0.938   1.967  0.1427 -0.5672  0.1881
 9437TIP3    H128256   0.154   0.907   2.032 -0.6060 -0.3709  1.0089
 9437TIP3    H228257   0.126   0.907   1.883  0.2929 -2.1813  0.8341
 9438TIP3   OH228258   7.403   0.192   4.294 -0.5066 -0.0012  0.3708
 9438TIP3    H128259   7.325   0.186   4.239  0.0919  0.0086 -0.4849
 9438TIP3    H228260   7.476   0.173   4.235  0.1465  0.0567  1.1495
 9439TIP3   OH228261   5.467   6.685   6.911  0.4041 -0.0848 -0.1432
 9439TIP3    H128262   5.453   6.778   6.892 -0.0777 -0.1713 -0.2197
 9439TIP3    H228263   5.511   6.651   6.832 -0.8283 -0.2588 -0.7652
 9440TIP3   OH228264   4.448   7.599   4.240  0.1621  0.0732 -0.1558
 9440TIP3    H128265   4.506   7.674   4.248  1.3306 -0.6847 -1.3326
 9440TIP3    H228266   4.507   7.523   4.237 -1.0340 -0.9934  2.1758
 9441TIP3   OH228267   3.854   5.962   3.010  0.2476 -0.7723  0.5371
 9441TIP3    H128268   3.858   5.948   3.104  1.2881  0.1404  0.6413
 9441TIP3    H228269   3.942   5.992   2.986  0.6268 -2.9890 -1.0466
 9442TIP3   OH228270   6.409   1.203   1.843  0.1375  0.0202  0.2501
 9442TIP3    H128271   6.360   1.145   1.902  1.1168 -0.1500  0.9237
 9442TIP3    H228272   6.367   1.289   1.853 -0.3552 -0.2434  0.4236
 9443TIP3   OH228273   0.689   0.920   2.442  0.3014  0.4319 -0.2981
 9443TIP3    H128274   0.625   0.886   2.378 -0.4385 -0.1546  0.7351
 9443TIP3    H228275   0.685   1.015   2.431  1.0766  0.2865 -1.9766
 9444TIP3   OH228276   2.504   1.424   1.883 -0.0181 -0.1206  0.2782
 9444TIP3    H128277   2.461   1.342   1.908 -0.3619 -0.4081 -1.2043
 9444TIP3    H228278   2.585   1.425   1.934 -1.0957 -0.2544  2.0475
 9445TIP3   OH228279   0.990   0.049   4.778  0.0945 -0.2501 -0.1269
 9445TIP3    H128280   1.069   0.071   4.828  0.6613  0.6158 -1.3817
 9445TIP3    H228281   0.932   0.125   4.792 -0.4442 -0.7840  0.6094
 9446TIP3   OH228282   6.277   0.587   4.319 -0.2805 -0.2980  0.4452
 9446TIP3    H128283   6.211   0.602   4.386 -0.2900  0.9021  0.1833
 9446TIP3    H228284   6.261   0.498   4.288  0.0042 -1.0284  2.3310
 9447TIP3   OH228285   0.661   1.184   2.439  0.1362 -0.1471 -0.6271
 9447TIP3    H128286   0.682   1.251   2.505  3.3191  0.8129 -2.5183
 9447TIP3    H228287   0.605   1.230   2.376 -0.1241 -0.1279 -0.3862
 9448TIP3   OH228288   5.890   0.084   3.401  0.2368  0.3427 -0.8272
 9448TIP3    H128289   5.843   0.000   3.400 -1.1121  1.0490  0.5459
 9448TIP3    H228290   5.933   0.086   3.486 -1.1652  1.7823 -0.1234
 9449TIP3   OH228291   6.731   6.975   4.008 -0.3634  0.1072  0.0473
 9449TIP3    H128292   6.785   6.897   3.992  0.4053  0.1310  2.3279
 9449TIP3    H228293   6.733   7.023   3.925 -1.1059 -2.4340 -1.4983
 9450TIP3   OH228294   7.535   0.693   3.544  0.3781 -0.2812  0.3793
 9450TIP3    H128295   7.445   0.661   3.551 -0.4463  1.6770 -0.6212
 9450TIP3    H228296   7.558   0.680   3.452  0.4504  0.8823  0.2248
 9451TIP3   OH228297   3.669   6.949   3.881  0.3605 -0.2078  0.3969
 9451TIP3    H128298   3.601   6.883   3.869  0.7360 -0.5039 -0.1170
 9451TIP3    H228299   3.648   6.990   3.965  0.2850 -1.1646  0.8437
 9452TIP3   OH228300   4.869   7.244   5.509 -0.3983  0.7661  0.0238
 9452TIP3    H128301   4.838   7.237   5.599  1.4428  0.4783  0.6643
 9452TIP3    H228302   4.849   7.334   5.484 -3.8107 -0.0602 -0.4225
 9453TIP3   OH228303   4.582   7.760   2.687  0.6721 -0.4920 -0.1600
 9453TIP3    H128304   4.624   7.710   2.757  1.2338 -3.0893 -2.2494
 9453TIP3    H228305   4.489   7.739   2.696  0.6342 -0.0484  0.4308
 9454TIP3   OH228306   1.081   2.612   3.728 -0.6700  0.1609 -0.3267
 9454TIP3    H128307   1.069   2.701   3.694 -1.7967  0.1943  0.1564
 9454TIP3    H228308   1.061   2.555   3.655 -2.0358  0.2580 -0.0369
 9455TIP3   OH228309   1.462   3.944   6.417  0.3554  0.3164  0.0830
 9455TIP3    H128310   1.461   3.993   6.499  1.1573  0.1938  0.1645
 9455TIP3    H228311   1.427   3.858   6.440  1.6115 -0.0821  0.5257
 9456TIP3   OH228312   7.130   1.076   2.497  0.5173 -0.3493  0.3948
 9456TIP3    H128313   7.139   1.002   2.558  0.5790  0.3296  1.2227
 9456TIP3    H228314   7.193   1.141   2.528  0.8209 -0.1396 -0.6322
 9457TIP3   OH228315   0.505   1.507   2.569 -0.5809  0.3882  0.2066
 9457TIP3    H128316   0.480   1.545   2.653 -0.8202  0.4392  0.1129
 9457TIP3    H228317   0.422   1.499   2.521 -0.5773 -0.5209  0.3370
 9458TIP3   OH228318   5.616   7.714   2.962  0.8005  0.4551  0.2894
 9458TIP3    H128319   5.554   7.649   2.996  0.5781  0.0668 -0.8271
 9458TIP3    H228320   5.677   7.729   3.034  1.2429 -1.4988  0.3499
 9459TIP3   OH228321   3.022   4.953   5.284  0.1637 -0.1295  0.6083
 9459TIP3    H128322   3.029   4.908   5.368 -0.8046  1.0786  1.3601
 9459TIP3    H228323   3.035   5.045   5.305 -1.8047  0.3783 -0.2816
 9460TIP3   OH228324   0.709   1.559   2.812 -0.1796  0.4531 -0.5122
 9460TIP3    H128325   0.760   1.600   2.742 -1.3938  1.1484 -1.0227
 9460TIP3    H228326   0.753   1.584   2.893  3.1593 -2.9991 -1.0961
 9461TIP3   OH228327   0.336   1.401   1.826  0.3281 -0.5419  0.3371
 9461TIP3    H128328   0.305   1.474   1.773  0.5109 -0.5042  0.2808
 9461TIP3    H228329   0.308   1.322   1.779  3.6253 -0.5573 -1.7405
 9462TIP3   OH228330   0.096   1.221   3.050  0.3036 -0.1323 -0.0201
 9462TIP3    H128331   0.082   1.274   3.128  1.2187 -0.6118  0.4702
 9462TIP3    H228332   0.101   1.131   3.082  1.8847 -0.2207 -0.4788
 9463TIP3   OH228333   2.002   2.275   3.317  0.1938  0.0419 -0.0587
 9463TIP3    H128334   1.908   2.256   3.313  0.2090 -0.4790  1.5775
 9463TIP3    H228335   2.045   2.195   3.288  0.1276  0.8093 -2.3549
 9464TIP3   OH228336   8.353   1.511   0.158  0.0280  0.0817 -0.0015
 9464TIP3    H128337   8.312   1.543   0.238 -0.0995  0.1650 -0.0980
 9464TIP3    H228338   8.316   1.423   0.146 -0.0176  0.1021 -0.0129
 9465TIP3   OH228339   1.122   0.159   3.113 -0.0632 -0.3629 -0.1721
 9465TIP3    H128340   1.157   0.248   3.110 -0.0237 -0.3476  0.7575
 9465TIP3    H228341   1.113   0.140   3.206 -1.6455 -0.7080 -0.3776
 9466TIP3   OH228342   8.094   7.223   3.378 -0.0495 -0.3051 -0.1154
 9466TIP3    H128343   8.110   7.313   3.406  0.6136 -0.6995  0.8025
 9466TIP3    H228344   8.019   7.229   3.318 -0.2953  0.7983  0.2956
 9467TIP3   OH228345   8.082   1.022   1.952 -0.2058 -0.2181  0.2464
 9467TIP3    H128346   8.009   0.989   2.005 -0.0954 -1.9955 -0.6453
 9467TIP3    H228347   8.115   1.097   2.000 -1.9273 -0.0591  1.2357
 9468TIP3   OH228348   7.305   1.339   4.342 -1.1446  0.2334 -0.3128
 9468TIP3    H128349   7.225   1.352   4.291 -1.6034 -0.6239  0.1888
 9468TIP3    H228350   7.280   1.358   4.432 -0.8135 -0.1582 -0.1369
 9469TIP3   OH228351   6.023   7.333   3.992  0.7197 -0.1256  0.6420
 9469TIP3    H128352   6.008   7.402   3.927 -0.5253 -2.6708 -1.8890
 9469TIP3    H228353   6.116   7.313   3.985  0.3964 -1.1292 -1.2176
 9470TIP3   OH228354   4.949   7.682   3.628 -0.1343  0.2149  0.3434
 9470TIP3    H128355   5.004   7.671   3.705  1.6687  0.3940 -0.8771
 9470TIP3    H228356   4.868   7.721   3.661 -1.2398 -3.8258  2.7587
 9471TIP3   OH228357   0.150   1.825   5.927  0.3752 -0.2195 -0.0993
 9471TIP3    H128358   0.216   1.785   5.983 -0.7250 -3.3095 -0.9184
 9471TIP3    H228359   0.093   1.873   5.987  0.7592 -1.2736  1.1177
 9472TIP3   OH228360   6.211   1.451   3.510  0.0506  0.4326 -0.2180
 9472TIP3    H128361   6.215   1.497   3.426  0.7585 -1.0102 -0.9912
 9472TIP3    H228362   6.257   1.509   3.571 -1.3915  1.9882 -0.5708
 9473TIP3   OH228363   1.037   0.360   2.869 -0.1288 -0.5308  0.3741
 9473TIP3    H128364   1.067   0.438   2.916 -1.3498 -0.5441  1.1952
 9473TIP3    H228365   1.112   0.334   2.815  0.0738  1.5659 -0.3817
 9474TIP3   OH228366   5.322   7.191   0.543  0.1493 -0.3784  0.2777
 9474TIP3    H128367   5.256   7.125   0.522  0.4333  0.0239 -1.9686
 9474TIP3    H228368   5.314   7.203   0.637 -1.1930 -2.2414  0.4381
 9475TIP3   OH228369   3.633   6.882   2.477  0.1919  0.6417  0.7713
 9475TIP3    H128370   3.719   6.860   2.512 -0.7068 -1.6250  1.6511
 9475TIP3    H228371   3.605   6.960   2.526  0.4961 -0.3629  2.5872
 9476TIP3   OH228372   5.599   0.071   4.423  0.4309  0.4774  1.2422
 9476TIP3    H128373   5.607  -0.003   4.362  1.0428  0.1005  1.7774
 9476TIP3    H228374   5.514   0.110   4.402  0.0864 -0.4066  0.9773
 9477TIP3   OH228375   5.939   1.336   1.679 -0.1901  0.1698  0.2264
 9477TIP3    H128376   5.945   1.362   1.771 -1.6075 -0.4421  0.5074
 9477TIP3    H228377   5.850   1.301   1.670 -0.4970  1.3692 -1.6669
 9478TIP3   OH228378   0.073   0.813   1.367 -0.1474 -0.5216  0.5896
 9478TIP3    H128379   0.100   0.865   1.292  1.6216 -0.5289  1.2133
 9478TIP3    H228380   0.139   0.830   1.434 -1.3306 -1.0456  1.9224
 9479TIP3   OH228381   1.534   0.821   3.295 -0.0333 -0.1860  0.4715
 9479TIP3    H128382   1.486   0.792   3.218 -1.2499 -1.3789  1.6709
 9479TIP3    H228383   1.623   0.836   3.263 -0.3277 -1.4492 -0.9936
 9480TIP3   OH228384   4.016   7.365   2.157 -0.1882 -0.5391 -0.0834
 9480TIP3    H128385   4.057   7.341   2.240  0.5370  0.4036 -0.1635
 9480TIP3    H228386   4.088   7.402   2.105 -1.1425  1.1548 -0.2150
 9481TIP3   OH228387   5.655   5.781   5.122 -0.0904  0.3722  0.3887
 9481TIP3    H128388   5.577   5.826   5.156 -1.4173 -0.5537 -1.3017
 9481TIP3    H228389   5.634   5.688   5.129  1.4941  0.0656  1.2812
 9482TIP3   OH228390   6.633   7.722   3.412  0.4806 -0.5233  0.0697
 9482TIP3    H128391   6.726   7.713   3.392  1.0906  0.4333  2.3191
 9482TIP3    H228392   6.610   7.639   3.454  0.5636 -0.4137  0.3384
 9483TIP3   OH228393   0.309   2.175   0.085  0.4509  0.2668 -0.1471
 9483TIP3    H128394   0.396   2.179   0.045  0.4992 -0.2020 -0.0910
 9483TIP3    H228395   0.317   2.110   0.154  0.1426  0.4639  0.0766
 9484TIP3   OH228396   4.756   5.103   2.906 -0.4963 -0.0442 -0.1836
 9484TIP3    H128397   4.700   5.051   2.848 -1.7097 -0.8880  1.6533
 9484TIP3    H228398   4.801   5.164   2.849 -2.2620 -0.2980 -1.9112
 9485TIP3   OH228399   5.608   6.831   3.654  0.1183  0.7379 -0.6766
 9485TIP3    H128400   5.597   6.741   3.623 -1.2069 -1.1786  4.8465
 9485TIP3    H228401   5.697   6.833   3.690 -0.6788  0.8503  1.3561
 9486TIP3   OH228402   6.197   6.769   1.817  0.5121  0.5320 -0.3454
 9486TIP3    H128403   6.122   6.772   1.876 -0.5020 -0.1281 -1.6059
 9486TIP3    H228404   6.221   6.861   1.805 -0.8922  0.8197 -0.9652
 9487TIP3   OH228405   6.866   6.364   3.539 -0.1933 -0.0697  0.1280
 9487TIP3    H128406   6.902   6.449   3.566 -1.9302  0.3924  1.0573
 9487TIP3    H228407   6.929   6.300   3.573  1.1298  0.8207 -0.5710
 9488TIP3   OH228408   4.148   7.477   2.598  0.3302  0.4999  0.4942
 9488TIP3    H128409   4.163   7.534   2.523 -0.2276  1.3817  1.0344
 9488TIP3    H228410   4.104   7.534   2.662  0.2177 -0.4094  1.2309
 9489TIP3   OH228411   7.412   0.355   3.338 -0.6637  0.1940 -1.0229
 9489TIP3    H128412   7.385   0.288   3.400  0.0755 -0.1909 -1.1235
 9489TIP3    H228413   7.411   0.311   3.253 -0.1332  0.2959 -1.0837
 9490TIP3   OH228414   5.423   5.579   3.742 -0.6180 -0.1918  0.3117
 9490TIP3    H128415   5.468   5.637   3.803 -0.2329 -0.8034  0.6137
 9490TIP3    H228416   5.345   5.549   3.789 -0.3212 -0.6630  0.5035
 9491TIP3   OH228417   1.477   2.409   2.751  0.3287  0.0914  0.0329
 9491TIP3    H128418   1.518   2.474   2.694  0.1512  2.0796  2.0700
 9491TIP3    H228419   1.540   2.396   2.822 -0.3129 -0.7741  0.4555
 9492TIP3   OH228420   7.394   7.220   2.673 -0.4734 -0.0479 -0.3743
 9492TIP3    H128421   7.321   7.170   2.710 -1.7147  1.4680 -0.6745
 9492TIP3    H228422   7.360   7.309   2.667  0.9566  0.4214 -1.7859
 9493TIP3   OH228423   0.392   0.672   0.516  0.5570 -0.7054 -0.1090
 9493TIP3    H128424   0.300   0.646   0.514  0.3543  0.0496 -1.5272
 9493TIP3    H228425   0.440   0.593   0.539 -0.4412 -1.1098  0.6020
 9494TIP3   OH228426   2.865   3.044   4.615  0.4537 -0.2397  0.5717
 9494TIP3    H128427   2.924   3.114   4.644  0.0240  0.2867  0.1895
 9494TIP3    H228428   2.920   2.966   4.611  1.2383  0.3543 -0.2811
 9495TIP3   OH228429   3.278   0.170   1.049 -0.0381 -0.5880  0.4551
 9495TIP3    H128430   3.297   0.203   0.962 -2.3378  1.5483  0.7158
 9495TIP3    H228431   3.281   0.075   1.040  2.2579 -0.3965 -1.3269
 9496TIP3   OH228432   4.737   7.820   2.089 -0.1898  0.3877 -0.6903
 9496TIP3    H128433   4.649   7.857   2.093 -0.1875  0.4184 -0.9200
 9496TIP3    H228434   4.774   7.856   2.008  0.6971  1.8853  0.3397
 9497TIP3   OH228435   1.076   2.769   0.597  0.8341 -0.4789  0.1256
 9497TIP3    H128436   1.092   2.723   0.514  0.4595 -0.4008  0.0100
 9497TIP3    H228437   0.983   2.754   0.615  0.8666 -0.3185  0.4247
 9498TIP3   OH228438   6.860   1.204   2.122  0.6052  0.0740  0.4923
 9498TIP3    H128439   6.928   1.138   2.110  0.4824  0.2602 -1.3408
 9498TIP3    H228440   6.897   1.265   2.186  1.2486 -1.0262  1.1871
 9499TIP3   OH228441   0.438   1.220   4.169 -0.5182  0.0645  0.1256
 9499TIP3    H128442   0.409   1.188   4.084 -1.4921 -0.5681  0.6874
 9499TIP3    H228443   0.480   1.145   4.211  1.0971  0.7048 -0.2800
 9500TIP3   OH228444   1.473   1.251   2.178  0.0296 -0.0103 -0.1730
 9500TIP3    H128445   1.456   1.234   2.270  1.5955 -0.8802 -0.0337
 9500TIP3    H228446   1.547   1.194   2.156 -0.8876 -0.4576 -2.1899
 9501TIP3   OH228447   7.836   0.998   1.247 -0.0038 -0.1123 -0.1855
 9501TIP3    H128448   7.777   1.059   1.203  1.0585  0.0241 -1.4232
 9501TIP3    H228449   7.866   1.046   1.325  1.8003  1.4341 -1.7963
 9502TIP3   OH228450   5.254   7.816   2.149 -0.5182 -0.2892 -0.4218
 9502TIP3    H128451   5.228   7.908   2.153 -1.7630 -0.5711 -1.5572
 9502TIP3    H228452   5.322   7.807   2.216 -2.8468  0.6459  2.1458
 9503TIP3   OH228453   2.188   1.294   3.586 -0.2376 -0.0094  0.1098
 9503TIP3    H128454   2.170   1.388   3.583  1.4782  0.2960 -1.6667
 9503TIP3    H228455   2.277   1.288   3.622  0.9588 -0.7334 -2.8449
 9504TIP3   OH228456   1.577   1.107   2.831  0.0257  0.5272  0.1029
 9504TIP3    H128457   1.526   1.089   2.910 -0.6183  0.3116 -0.3553
 9504TIP3    H228458   1.559   1.199   2.811 -0.5870  0.3115 -0.3452
 9505TIP3   OH228459   6.264   7.930   3.426 -0.6498  0.0827 -0.0481
 9505TIP3    H128460   6.212   7.990   3.372 -0.9608  0.2514  0.4329
 9505TIP3    H228461   6.222   7.845   3.414  0.9716 -0.4362 -2.2763
 9506TIP3   OH228462   7.165   1.445   1.360  0.4311  0.8767  0.2841
 9506TIP3    H128463   7.151   1.429   1.267  0.7305  1.2884  0.1668
 9506TIP3    H228464   7.148   1.539   1.371 -1.5648  0.4658  1.0131
 9507TIP3   OH228465   2.475   0.375   1.531  0.1587  0.5681 -0.6645
 9507TIP3    H128466   2.440   0.321   1.602 -1.6738 -0.1723 -2.0863
 9507TIP3    H228467   2.450   0.465   1.555  1.6597  0.6215  0.8051
 9508TIP3   OH228468   2.118   3.566   4.269 -0.2603  0.1570 -0.0439
 9508TIP3    H128469   2.160   3.651   4.279 -0.3828  0.2754 -0.5068
 9508TIP3    H228470   2.189   3.505   4.250 -0.1878  0.1834  0.1464
 9509TIP3   OH228471   0.184   2.595   3.054  0.5120 -0.0332 -0.2226
 9509TIP3    H128472   0.270   2.596   3.011  0.5530  1.5583 -0.1398
 9509TIP3    H228473   0.201   2.633   3.141  0.0494 -1.3566  0.4568
 9510TIP3   OH228474   5.201   7.001   1.860 -0.3286 -0.3427  0.7932
 9510TIP3    H128475   5.205   7.086   1.816  0.1469  0.8076  3.0244
 9510TIP3    H228476   5.278   6.954   1.827 -1.4513 -0.5530 -1.6626
 9511TIP3   OH228477   0.642   5.586   2.765  0.2234  0.7505 -0.2074
 9511TIP3    H128478   0.588   5.614   2.691 -1.3053  1.6505  1.2146
 9511TIP3    H228479   0.655   5.492   2.751 -0.5588  0.7991 -1.3133
 9512TIP3   OH228480   0.448   2.075   2.170  0.0683 -0.2948 -0.1269
 9512TIP3    H128481   0.493   1.999   2.206  0.2883  0.1660  0.5871
 9512TIP3    H228482   0.367   2.040   2.134 -0.0592 -0.8015  0.6370
 9513TIP3   OH228483   6.628   7.511   1.956  0.0230 -0.2036  0.6252
 9513TIP3    H128484   6.560   7.578   1.951 -0.6234 -0.9987 -1.7852
 9513TIP3    H228485   6.593   7.446   2.016 -0.5610  0.2665  0.8005
 9514TIP3   OH228486   4.653   6.471   2.107 -0.4859  0.0448  0.1026
 9514TIP3    H128487   4.581   6.466   2.043  1.1135 -2.5890 -1.5841
 9514TIP3    H228488   4.634   6.400   2.168  0.2722 -0.1723  0.0806
 9515TIP3   OH228489   0.412   2.204   0.902 -0.0845 -0.3559 -0.1646
 9515TIP3    H128490   0.371   2.221   0.817 -0.1038 -0.6003 -0.2066
 9515TIP3    H228491   0.343   2.217   0.966  0.5859  2.4240  0.0411
 9516TIP3   OH228492   0.608   0.846   2.139  0.0286 -0.4410 -0.6819
 9516TIP3    H128493   0.678   0.800   2.186 -2.0848 -1.5639  1.5001
 9516TIP3    H228494   0.578   0.784   2.073 -0.2954 -0.7598 -0.2381
 9517TIP3   OH228495   8.520   1.033   1.649  0.5270 -0.4905  0.0871
 9517TIP3    H128496   8.441   1.012   1.699 -0.5245  1.4193 -0.7204
 9517TIP3    H228497   8.528   0.961   1.586  1.1379 -2.2376  2.0906
 9518TIP3   OH228498   1.034   1.101   2.199  0.3081  0.0310 -0.5065
 9518TIP3    H128499   0.995   1.022   2.236 -1.6672  1.3186  0.2260
 9518TIP3    H228500   1.090   1.135   2.270  1.1368 -0.6642 -0.8125
 9519TIP3   OH228501   1.485   2.927   2.233 -0.1143 -0.3731  0.3380
 9519TIP3    H128502   1.534   2.951   2.154  1.4014 -1.9841  0.7674
 9519TIP3    H228503   1.456   2.837   2.217 -1.1228 -0.1805  1.0006
 9520TIP3   OH228504   6.536   6.204   3.927  0.7248 -0.5705  0.0939
 9520TIP3    H128505   6.607   6.190   3.989 -0.2897 -0.9503  1.2061
 9520TIP3    H228506   6.509   6.295   3.942  2.0300  0.0890 -1.4673
 9521TIP3   OH228507   7.447   7.909   3.737  0.2162 -0.2147 -0.1428
 9521TIP3    H128508   7.417   7.958   3.814  1.5355  1.3542 -0.6189
 9521TIP3    H228509   7.526   7.954   3.708  0.0697 -1.1420 -2.0875
 9522TIP3   OH228510   2.356   1.256   4.146  0.5730 -0.2998 -0.4772
 9522TIP3    H128511   2.372   1.205   4.067  2.1009 -1.1083  0.3430
 9522TIP3    H228512   2.326   1.341   4.114  1.2576 -0.5964 -1.9247
 9523TIP3   OH228513   1.569   0.891   2.599  0.3572 -0.3637  0.2745
 9523TIP3    H128514   1.565   0.907   2.693  2.3990  1.7050  0.0582
 9523TIP3    H228515   1.551   0.977   2.559 -1.9562 -1.5140 -1.2779
 9524TIP3   OH228516   0.253   0.365   1.178 -0.2077  0.5011 -0.6954
 9524TIP3    H128517   0.328   0.376   1.236  0.1923  2.7683 -1.5476
 9524TIP3    H228518   0.262   0.277   1.142  0.4451 -0.3033  1.3898
 9525TIP3   OH228519   3.709   0.061   4.718  0.2543 -0.1291 -0.4273
 9525TIP3    H128520   3.666   0.147   4.712  1.7081  0.5616 -1.2535
 9525TIP3    H228521   3.791   0.079   4.764 -0.1869 -1.3803  0.8714
 9526TIP3   OH228522   7.248   7.250   3.113  0.3605  0.6294 -0.2163
 9526TIP3    H128523   7.168   7.226   3.159  0.4467  1.2524  0.2657
 9526TIP3    H228524   7.242   7.206   3.028  0.7214 -1.4367  0.8056
 9527TIP3   OH228525   1.247   1.287   3.348 -0.1185 -0.5499 -0.8102
 9527TIP3    H128526   1.244   1.357   3.414 -2.9104 -2.4460  1.2059
 9527TIP3    H228527   1.237   1.332   3.264 -1.5575  1.5022  0.4222
 9528TIP3   OH228528   1.699   0.754   2.056  0.3856  0.0979 -0.3519
 9528TIP3    H128529   1.702   0.661   2.035  1.1430  0.1162 -0.3146
 9528TIP3    H228530   1.677   0.757   2.149  0.2148 -0.0416 -0.3873
 9529TIP3   OH228531   8.033   0.501   2.971 -0.0959 -0.9055  0.1735
 9529TIP3    H128532   8.105   0.492   2.909 -1.8840 -0.8423 -1.9614
 9529TIP3    H228533   7.977   0.568   2.933 -0.4485  0.2620  2.6522
 9530TIP3   OH228534   5.827   7.322   3.462 -0.0756  0.1899 -0.4575
 9530TIP3    H128535   5.746   7.350   3.419 -0.6596 -1.1790 -0.3062
 9530TIP3    H228536   5.799   7.251   3.520  0.9775  0.8578  0.8816
 9531TIP3   OH228537   8.027   5.940   4.270 -0.2107 -0.0416  0.2731
 9531TIP3    H128538   7.949   5.904   4.313 -0.3831  2.2811  2.0046
 9531TIP3    H228539   8.095   5.938   4.338  0.3137  1.0317 -0.2125
 9532TIP3   OH228540   4.576   7.202   0.834  0.3559  0.4540  0.2432
 9532TIP3    H128541   4.651   7.219   0.892  0.3682 -0.9085  0.6558
 9532TIP3    H228542   4.514   7.273   0.854  1.6980  1.8289 -0.4073
 9533TIP3   OH228543   6.300   6.051   3.991  0.5189 -0.2902 -0.3971
 9533TIP3    H128544   6.328   6.129   3.944 -0.3077  0.6311  0.6086
 9533TIP3    H228545   6.379   6.019   4.034  0.6047  0.7579  0.2546
 9534TIP3   OH228546   0.047   0.351   1.925  0.2257 -0.5645 -0.5743
 9534TIP3    H128547  -0.008   0.277   1.900  0.9212 -0.4595 -2.5024
 9534TIP3    H228548   0.085   0.325   2.009 -2.5109 -0.7519  0.6797
 9535TIP3   OH228549   3.661   5.095   4.070  0.1508 -0.0245 -0.0218
 9535TIP3    H128550   3.598   5.067   4.003  0.4421 -1.2219  0.1901
 9535TIP3    H228551   3.711   5.016   4.090 -0.7735 -0.0043  2.5449
 9536TIP3   OH228552   1.739   1.567   2.787  0.2722 -0.5075  0.2808
 9536TIP3    H128553   1.716   1.644   2.839  0.3064 -0.0786 -0.3410
 9536TIP3    H228554   1.835   1.571   2.780  0.1048  0.6100 -1.6238
 9537TIP3   OH228555   0.551   0.804   0.723 -0.3322  0.2187  0.1440
 9537TIP3    H128556   0.518   0.773   0.639 -0.4968 -0.6629  0.5306
 9537TIP3    H228557   0.489   0.769   0.788  0.4596 -0.1033  0.7366
 9538TIP3   OH228558   2.522   0.429   3.438  0.1202  0.8805 -0.5017
 9538TIP3    H128559   2.479   0.411   3.522 -1.4432  0.6287 -1.3367
 9538TIP3    H228560   2.604   0.472   3.462  1.3417 -2.2998  1.2943
 9539TIP3   OH228561   8.314   0.841   2.325 -0.0715 -0.3780 -0.0116
 9539TIP3    H128562   8.376   0.822   2.255  0.7840 -1.8728  1.1112
 9539TIP3    H228563   8.312   0.937   2.330  2.3146 -0.2934  0.0417
 9540TIP3   OH228564   8.312   0.522   2.831 -0.1570  0.1290 -0.2244
 9540TIP3    H128565   8.334   0.589   2.895 -3.3666  0.4113  0.6616
 9540TIP3    H228566   8.367   0.447   2.854  1.1777  1.3820  0.7272
 9541TIP3   OH228567   0.651   0.460   1.118 -0.7234  0.4634 -0.0864
 9541TIP3    H128568   0.628   0.517   1.191 -0.7464 -0.7522  0.8862
 9541TIP3    H228569   0.694   0.517   1.055 -0.2134  1.4385  1.1223
 9542TIP3   OH228570   7.859   0.684   2.820 -0.1045 -0.2181 -0.2830
 9542TIP3    H128571   7.831   0.641   2.739 -0.5886 -0.9444  0.2706
 9542TIP3    H228572   7.786   0.741   2.843  0.6556  1.1628 -1.1794
 9543TIP3   OH228573   7.657   4.572   0.562  0.0183 -0.2837 -0.4537
 9543TIP3    H128574   7.637   4.485   0.597 -1.8010 -0.0392 -0.8742
 9543TIP3    H228575   7.573   4.607   0.534  0.7600  1.5674 -0.4250
 9544TIP3   OH228576   5.388   5.525   1.119  0.0332 -0.0451  0.6085
 9544TIP3    H128577   5.413   5.603   1.070 -0.4402 -1.0137 -1.2278
 9544TIP3    H228578   5.294   5.535   1.134 -0.5896 -1.5258 -2.0490
 9545TIP3   OH228579   4.750   3.999   1.605 -0.3397  0.1436  0.3883
 9545TIP3    H128580   4.714   4.039   1.684  0.8613  1.8553  0.1041
 9545TIP3    H228581   4.840   3.974   1.629  0.0181  0.6301 -0.4030
 9546TIP3   OH228582   6.107   6.852   1.522  0.3433 -0.3832  0.4592
 9546TIP3    H128583   6.067   6.837   1.436  1.0548 -4.7319  0.7822
 9546TIP3    H228584   6.044   6.817   1.584  1.8788 -1.5155  1.3916
 9547TIP3   OH228585   5.848   5.687   0.025 -0.2679  0.3618  0.7428
 9547TIP3    H128586   5.776   5.642  -0.020  0.4328  0.8620 -0.9172
 9547TIP3    H228587   5.902   5.617   0.062  0.0267 -0.1226 -0.5810
 9548TIP3   OH228588   1.927   0.576   6.450  0.0179 -0.0666 -0.3493
 9548TIP3    H128589   1.960   0.487   6.436  1.2205  0.5794 -1.6873
 9548TIP3    H228590   1.992   0.617   6.508 -1.8888 -0.8503  2.4779
 9549TIP3   OH228591   0.717   0.454   6.499 -0.0479 -0.2091  0.8410
 9549TIP3    H128592   0.783   0.449   6.569  1.6025  0.2050 -0.6655
 9549TIP3    H228593   0.676   0.368   6.499 -0.1769 -0.1626  2.4414
 9550TIP3   OH228594   3.901   2.873   5.459  0.1073 -0.4535  0.2013
 9550TIP3    H128595   3.925   2.946   5.517  0.3276 -1.1282  0.9695
 9550TIP3    H228596   3.984   2.834   5.434  0.0385  0.1141 -0.9577
 9551TIP3   OH228597   0.880   1.392   6.820 -0.1559  0.2612 -0.4550
 9551TIP3    H128598   0.958   1.444   6.836 -0.2641  1.0622 -2.3081
 9551TIP3    H228599   0.910   1.301   6.823  1.0369  0.5764 -1.8889
 9552TIP3   OH228600   5.964   4.980   0.497  0.5251 -0.1673 -0.3029
 9552TIP3    H128601   5.934   4.948   0.582  0.8529  1.6559  0.5260
 9552TIP3    H228602   6.055   5.007   0.511  0.2110  1.2791 -0.8933
 9553TIP3   OH228603   0.150   2.149   5.333 -0.6197  0.0461 -0.1843
 9553TIP3    H128604   0.165   2.170   5.425  0.7198 -1.0634 -0.1426
 9553TIP3    H228605   0.118   2.231   5.295 -3.3830 -0.0700  1.7477
 9554TIP3   OH228606   4.753   4.894   0.396  0.1299 -0.7291  0.3968
 9554TIP3    H128607   4.840   4.878   0.358 -0.2273 -0.8301 -0.3988
 9554TIP3    H228608   4.750   4.837   0.473  0.3246 -1.6250 -0.2475
 9555TIP3   OH228609   5.819   4.052   0.246  0.1599 -0.1207 -0.3771
 9555TIP3    H128610   5.762   3.976   0.238  0.1081 -0.1845  0.5293
 9555TIP3    H228611   5.905   4.020   0.218 -0.3707  0.1568 -2.4047
 9556TIP3   OH228612   5.959   5.879   0.602 -0.0529 -0.2778 -0.5765
 9556TIP3    H128613   5.905   5.823   0.657 -0.1657  0.5923  0.2079
 9556TIP3    H228614   5.898   5.944   0.567  0.2638 -0.0321 -0.6735
 9557TIP3   OH228615   2.807   0.666   6.265 -0.1458 -0.5754  0.6851
 9557TIP3    H128616   2.881   0.606   6.250 -0.0058 -0.9888  2.8363
 9557TIP3    H228617   2.840   0.752   6.238  0.0140 -1.2743 -1.4248
 9558TIP3   OH228618   1.972   3.285   6.503 -0.1965  0.0294  0.3768
 9558TIP3    H128619   1.978   3.200   6.460 -0.3852  0.1447  0.1245
 9558TIP3    H228620   2.059   3.300   6.538 -0.2216 -0.3746  0.6233
 9559TIP3   OH228621   7.128   3.669   3.124  0.0462  0.2170  0.0448
 9559TIP3    H128622   7.050   3.616   3.140  0.9835 -1.0151  0.6651
 9559TIP3    H228623   7.099   3.740   3.067 -1.5315 -0.1877  0.3426
 9560TIP3   OH228624   8.491  -0.000   0.492 -0.0251 -0.0858  0.2365
 9560TIP3    H128625   8.438   0.080   0.497 -0.0186 -0.2001  2.3713
 9560TIP3    H228626   8.427  -0.069   0.470  0.2246  0.7200 -3.2880
 9561TIP3   OH228627   1.830   0.720   6.244 -0.1238  0.0344 -0.0582
 9561TIP3    H128628   1.764   0.667   6.200  0.9003  0.1067 -1.6947
 9561TIP3    H228629   1.865   0.664   6.313 -1.5990 -0.1363  0.5788
 9562TIP3   OH228630   6.190   5.765   0.006 -0.0641  0.3961 -0.1059
 9562TIP3    H128631   6.136   5.705  -0.045  2.0149 -1.3473 -0.3217
 9562TIP3    H228632   6.206   5.720   0.089  1.3101  0.7405 -0.1716
 9563TIP3   OH228633   4.512   4.478   0.642 -0.0075 -0.0790 -0.8699
 9563TIP3    H128634   4.473   4.551   0.594 -1.6222 -0.5587 -0.3357
 9563TIP3    H228635   4.572   4.437   0.580 -0.8817  0.2668 -1.9508
 9564TIP3   OH228636   0.402   1.200   5.633  0.4317 -0.3548 -0.1472
 9564TIP3    H128637   0.410   1.192   5.728 -1.3811 -1.1587 -0.0531
 9564TIP3    H228638   0.488   1.175   5.600  1.0930 -0.0325  1.2768
 9565TIP3   OH228639   4.107   4.190   0.718 -0.3138 -0.1334  1.0739
 9565TIP3    H128640   4.083   4.099   0.703 -2.3931  0.5771 -0.1990
 9565TIP3    H228641   4.173   4.209   0.652 -2.0228  0.0826 -0.6265
 9566TIP3   OH228642   1.209   0.542   4.864  0.4154 -0.4283  0.3151
 9566TIP3    H128643   1.246   0.498   4.787  0.7000  0.3922 -0.0182
 9566TIP3    H228644   1.240   0.632   4.857 -0.1919 -0.1698  0.9874
 9567TIP3   OH228645   4.023   5.220   0.206 -0.1239  0.2443 -0.2185
 9567TIP3    H128646   4.089   5.152   0.221 -0.8382  0.1901  3.2460
 9567TIP3    H228647   3.976   5.190   0.128  1.1324 -1.9801 -0.1821
 9568TIP3   OH228648   6.186   5.508   1.208  0.3349  0.3807  0.1506
 9568TIP3    H128649   6.231   5.447   1.267 -0.0527 -0.3874 -0.3435
 9568TIP3    H228650   6.190   5.592   1.253  1.0926  0.0419  0.7276
 9569TIP3   OH228651   5.254   7.215   0.810 -0.1516 -0.1548  0.0489
 9569TIP3    H128652   5.223   7.137   0.856  0.1747 -1.1398 -1.3433
 9569TIP3    H228653   5.178   7.272   0.804 -0.9052 -1.2131 -0.6272
 9570TIP3   OH228654   5.694   5.041   1.310  0.4587  0.2982  0.1334
 9570TIP3    H128655   5.649   4.997   1.237 -1.7399 -2.4213  3.0075
 9570TIP3    H228656   5.743   4.971   1.353  0.3119  1.5060  2.3290
 9571TIP3   OH228657   3.977   3.719   0.860 -0.4752  0.3867  0.2666
 9571TIP3    H128658   4.015   3.732   0.947 -1.2547 -1.3006  0.8905
 9571TIP3    H228659   3.946   3.628   0.861 -1.9241  0.8364 -1.2177
 9572TIP3   OH228660   4.734   4.013   0.894 -0.0188  0.2795  0.8374
 9572TIP3    H128661   4.782   3.950   0.947  0.7345  0.4459  0.3615
 9572TIP3    H228662   4.654   4.032   0.944  1.4581  1.6812  2.7150
 9573TIP3   OH228663   6.262   4.551   0.424 -0.1055 -0.4432  0.1596
 9573TIP3    H128664   6.170   4.539   0.448 -0.8249  3.5474 -0.3350
 9573TIP3    H228665   6.299   4.605   0.494  1.4903 -0.7656 -0.3976
 9574TIP3   OH228666   4.656   5.830   0.104 -0.0109 -0.5629  0.5259
 9574TIP3    H128667   4.605   5.752   0.126  1.1627 -1.0732  1.5709
 9574TIP3    H228668   4.676   5.820   0.011 -1.6351 -0.4410  0.1509
 9575TIP3   OH228669   6.103   5.274   1.635  0.5197  0.0983  0.5527
 9575TIP3    H128670   6.008   5.274   1.620  0.6568  1.9282 -0.4663
 9575TIP3    H228671   6.117   5.206   1.701 -1.2068 -1.8664 -1.0124
 9576TIP3   OH228672   1.106   1.560   6.801 -0.3392 -0.2611 -0.0477
 9576TIP3    H128673   1.187   1.575   6.849 -0.6329  0.2666  0.2907
 9576TIP3    H228674   1.068   1.648   6.789 -0.1280 -0.3524 -1.5019
 9577TIP3   OH228675   4.721   0.825   6.915 -0.2813 -0.2936  0.9538
 9577TIP3    H128676   4.783   0.753   6.903 -0.4574 -0.2182 -0.5035
 9577TIP3    H228677   4.636   0.789   6.890 -0.4274  0.3179  0.5638
 9578TIP3   OH228678   7.740   4.664   1.593 -0.1297  0.1592  0.1560
 9578TIP3    H128679   7.685   4.735   1.625 -2.6983 -0.7181 -2.0334
 9578TIP3    H228680   7.719   4.590   1.650  0.3523  0.3807  0.6215
 9579TIP3   OH228681   2.135   2.258   6.409  0.1345  0.1863  0.1624
 9579TIP3    H128682   2.063   2.257   6.471  0.7256  0.9125  0.8732
 9579TIP3    H228683   2.156   2.165   6.395 -0.8426 -0.0221  0.0347
 9580TIP3   OH228684   7.727   4.249   1.512 -0.7157 -0.2764  0.3378
 9580TIP3    H128685   7.678   4.175   1.477 -0.0650 -0.2122 -0.7467
 9580TIP3    H228686   7.689   4.325   1.469  1.5555 -0.3923 -1.9782
 9581TIP3   OH228687   5.519   5.922   1.233 -0.1475  0.2165  0.3189
 9581TIP3    H128688   5.590   5.861   1.249  1.2717  1.4082 -1.2484
 9581TIP3    H228689   5.476   5.888   1.154 -0.2197  0.4505  0.2570
 9582TIP3   OH228690   4.793   1.600   2.767  0.1178  0.1055  0.2024
 9582TIP3    H128691   4.741   1.538   2.716 -2.9800  1.3259  1.7438
 9582TIP3    H228692   4.762   1.686   2.739  1.8764  0.8971  0.6230
 9583TIP3   OH228693   0.218   5.199   0.360  0.3887  0.2942 -0.0521
 9583TIP3    H128694   0.183   5.118   0.398 -1.1222 -0.2034 -2.3944
 9583TIP3    H228695   0.284   5.170   0.297  0.8161  0.9677  0.0723
 9584TIP3   OH228696   7.282   5.038   0.732  0.1663  0.0149 -0.8295
 9584TIP3    H128697   7.208   4.987   0.698  0.3935 -0.2819 -0.8786
 9584TIP3    H228698   7.311   4.989   0.808  1.6408 -0.9948 -2.0148
 9585TIP3   OH228699   3.548   1.253   6.952 -0.3809  0.7469  0.3234
 9585TIP3    H128700   3.514   1.209   6.874  0.7891  0.7717 -0.2116
 9585TIP3    H228701   3.583   1.336   6.920 -0.6300  1.1186  1.0059
 9586TIP3   OH228702   8.302   4.045   0.998 -0.4046 -0.0242  0.0843
 9586TIP3    H128703   8.290   4.007   1.085  0.6194  0.1876  0.3185
 9586TIP3    H228704   8.385   4.011   0.967 -1.0661 -0.6025 -1.0920
 9587TIP3   OH228705   7.791   3.879   1.613 -0.1044 -0.4332 -0.6082
 9587TIP3    H128706   7.866   3.849   1.665  0.4714  0.8043 -0.7084
 9587TIP3    H228707   7.714   3.846   1.661  0.4669 -0.6126  0.1942
 9588TIP3   OH228708   4.611   1.020   5.154  0.1181  0.3539 -0.1656
 9588TIP3    H128709   4.621   0.930   5.183 -2.9223  0.8707  2.8187
 9588TIP3    H228710   4.533   1.051   5.199  2.0667  5.0169  0.2776
 9589TIP3   OH228711   7.435   4.155   0.706 -0.2681 -0.1292  0.2280
 9589TIP3    H128712   7.342   4.176   0.697 -0.1603  0.0044 -0.6248
 9589TIP3    H228713   7.437   4.084   0.770 -0.9339  0.0702  0.4757
 9590TIP3   OH228714   7.274   4.576   1.966 -0.1106  0.0013  0.5073
 9590TIP3    H128715   7.191   4.576   2.015 -0.8899 -0.6877 -0.7854
 9590TIP3    H228716   7.253   4.532   1.884  1.0626  1.6427 -0.6895
 9591TIP3   OH228717   1.920   3.961   1.928  0.6114  0.5012  0.1391
 9591TIP3    H128718   1.868   3.926   1.855  1.5500  0.3307 -0.4588
 9591TIP3    H228719   1.934   4.053   1.904  1.1928  0.3622 -0.0527
 9592TIP3   OH228720   2.613   7.291   5.830 -0.6585  0.1896  0.7724
 9592TIP3    H128721   2.674   7.238   5.881 -0.2540 -1.6950 -1.6010
 9592TIP3    H228722   2.552   7.326   5.895  1.3079 -0.1036  2.8422
 9593TIP3   OH228723   7.623   6.310   0.948 -0.1346  0.0504  0.3859
 9593TIP3    H128724   7.607   6.397   0.985  2.9826  0.3951  1.0807
 9593TIP3    H228725   7.710   6.287   0.979 -0.0423 -2.4023 -1.5723
 9594TIP3   OH228726   7.244   2.743   0.494 -0.1081  0.2733  0.2450
 9594TIP3    H128727   7.228   2.679   0.425 -0.8579  0.8589 -0.1378
 9594TIP3    H228728   7.319   2.794   0.462 -1.9544  2.1388 -1.3414
 9595TIP3   OH228729   6.911   2.715   0.814 -0.1274  0.2309 -0.1527
 9595TIP3    H128730   7.001   2.706   0.784 -0.7263  3.1234 -3.0609
 9595TIP3    H228731   6.859   2.668   0.749 -0.8828  0.1948  0.4770
 9596TIP3   OH228732   3.877   0.626   5.630 -0.5507  0.8833  0.1147
 9596TIP3    H128733   3.883   0.563   5.702 -0.6070  1.7806  0.9297
 9596TIP3    H228734   3.784   0.650   5.626 -0.3561  1.7677  0.5840
 9597TIP3   OH228735   7.417   4.447   0.847  0.6061  0.0742  0.5056
 9597TIP3    H128736   7.325   4.419   0.849  0.2916  0.5783 -3.7677
 9597TIP3    H228737   7.460   4.384   0.789  2.1590  2.1332 -0.6284
 9598TIP3   OH228738   6.413   5.048   0.744 -0.1912 -0.1676 -0.3039
 9598TIP3    H128739   6.346   5.085   0.801  1.9411  1.7037  1.0767
 9598TIP3    H228740   6.474   5.005   0.803  0.9467 -0.0088 -1.3393
 9599TIP3   OH228741   5.101   1.101   6.722  0.0500  0.2025 -0.0298
 9599TIP3    H128742   5.017   1.061   6.701  0.1631 -1.3588  2.3049
 9599TIP3    H228743   5.080   1.191   6.747 -0.7656  0.1710 -0.5918
 9600TIP3   OH228744   3.048   2.726   5.842 -0.6707 -0.3288 -0.2081
 9600TIP3    H128745   2.985   2.692   5.778 -0.8717  0.0069 -0.1938
 9600TIP3    H228746   3.010   2.704   5.927 -0.9191  0.1342 -0.1967
 9601TIP3   OH228747   2.993   2.742   6.745  0.0206 -0.2501 -0.0171
 9601TIP3    H128748   3.014   2.648   6.744  0.9815 -0.0390  0.6124
 9601TIP3    H228749   2.903   2.745   6.713 -0.0141 -1.3904 -0.0813
 9602TIP3   OH228750   6.855   4.412   0.799  0.1363  0.2148  0.4045
 9602TIP3    H128751   6.903   4.389   0.719  1.5158  0.1180  1.2359
 9602TIP3    H228752   6.805   4.491   0.776 -0.0335 -0.2225 -0.7517
 9603TIP3   OH228753   7.813   6.000   1.605 -0.5629  0.4238 -0.1214
 9603TIP3    H128754   7.794   5.985   1.512 -2.9449  0.0034  0.4167
 9603TIP3    H228755   7.832   5.913   1.641 -1.4633  0.3523  0.1821
 9604TIP3   OH228756   7.160   4.353   0.980  0.2915  0.0282 -0.1092
 9604TIP3    H128757   7.205   4.368   1.063  0.0698  0.8617 -0.1317
 9604TIP3    H228758   7.146   4.259   0.977  1.9102 -0.2390 -0.0366
 9605TIP3   OH228759   7.994   3.469   2.161  0.1229  0.8181 -0.1291
 9605TIP3    H128760   7.943   3.412   2.218 -0.2959  0.1750 -1.1351
 9605TIP3    H228761   8.083   3.435   2.166  0.4254  1.7813  1.4241
 9606TIP3   OH228762   7.028   5.315   2.044 -0.5407  0.1141  0.1420
 9606TIP3    H128763   7.007   5.304   1.951  0.0562  0.9628 -0.0924
 9606TIP3    H228764   7.120   5.339   2.045 -0.7154  0.7700  0.9190
 9607TIP3   OH228765   6.709   4.635   0.729 -0.9950 -0.1375 -0.2278
 9607TIP3    H128766   6.624   4.640   0.773 -1.0842 -0.0171 -0.4128
 9607TIP3    H228767   6.738   4.726   0.721 -1.0518 -0.1457 -0.5573
 9608TIP3   OH228768   8.217   0.337   1.153 -0.0317 -0.0436 -0.3905
 9608TIP3    H128769   8.128   0.341   1.189 -0.8332 -0.0117 -2.2893
 9608TIP3    H228770   8.249   0.427   1.159 -0.5336  0.1579 -0.6263
 9609TIP3   OH228771   3.273   2.809   6.701 -0.1526 -0.5564  0.0319
 9609TIP3    H128772   3.180   2.796   6.683 -1.4864  2.4458  3.8625
 9609TIP3    H228773   3.278   2.818   6.796  3.8609  0.7426 -0.1907
 9610TIP3   OH228774   5.765   6.038   0.482 -0.1044 -0.0219 -0.4915
 9610TIP3    H128775   5.677   6.065   0.457 -0.6738 -0.4172  1.0323
 9610TIP3    H228776   5.797   5.987   0.407 -1.5096 -0.6274 -0.6954
 9611TIP3   OH228777   2.400   7.988   5.905 -0.2129  0.0849  0.0268
 9611TIP3    H128778   2.365   7.938   5.831 -0.0590  0.1089 -0.0622
 9611TIP3    H228779   2.393   7.929   5.980 -0.6965  0.1851  0.0626
 9612TIP3   OH228780   7.121   5.785   2.297 -0.0166 -0.0179  0.3908
 9612TIP3    H128781   7.193   5.757   2.354 -1.1151 -1.5034  1.0813
 9612TIP3    H228782   7.053   5.814   2.358  0.1120  1.7048 -0.2661
 9613TIP3   OH228783   7.129   6.129   2.004  0.0083  0.3753  0.2712
 9613TIP3    H128784   7.201   6.142   2.066 -1.5424 -0.5207  2.3313
 9613TIP3    H228785   7.129   6.035   1.986  1.1281  0.7727 -1.9978
 9614TIP3   OH228786   6.729   2.960   0.201 -0.1732  0.2033 -0.4017
 9614TIP3    H128787   6.646   2.998   0.231  0.0449  0.5033 -0.1845
 9614TIP3    H228788   6.787   3.035   0.189 -0.3722  0.1296 -1.9426
 9615TIP3   OH228789   0.545   3.668   0.183  0.5110 -0.0153  0.2312
 9615TIP3    H128790   0.496   3.668   0.265 -0.5177  1.1641 -0.3581
 9615TIP3    H228791   0.597   3.749   0.187 -0.8027  0.9123 -0.9889
 9616TIP3   OH228792   3.927   1.334   5.226  0.1378  0.0688 -0.4781
 9616TIP3    H128793   3.886   1.347   5.312  0.8016  1.0677 -0.2971
 9616TIP3    H228794   3.997   1.399   5.223  0.6229 -0.4856 -1.4664
 9617TIP3   OH228795   5.677   1.063   6.848 -0.3984  0.6318 -0.1087
 9617TIP3    H128796   5.733   1.053   6.771  0.2020 -0.5837  0.4703
 9617TIP3    H228797   5.681   1.157   6.868  0.6679  0.7136 -0.6484
 9618TIP3   OH228798   5.871   5.470   0.211 -0.0755 -0.0170  0.2885
 9618TIP3    H128799   5.882   5.385   0.168  0.9184  0.7426 -0.9558
 9618TIP3    H228800   5.780   5.495   0.191  0.7377  0.9052 -2.4594
 9619TIP3   OH228801   3.390   0.638   5.726 -0.1950  0.0098 -0.2409
 9619TIP3    H128802   3.479   0.665   5.749 -0.8303  1.6104  0.4177
 9619TIP3    H228803   3.370   0.568   5.787  1.7671 -2.5784 -2.4730
 9620TIP3   OH228804   6.028   4.912   1.048  0.2909 -0.4439  0.4719
 9620TIP3    H128805   6.083   4.838   1.021 -0.2308 -0.1127 -1.5766
 9620TIP3    H228806   6.021   4.903   1.143  2.3222 -1.5660  0.5393
 9621TIP3   OH228807   7.305   4.991   0.431 -0.0887 -0.2542  0.4364
 9621TIP3    H128808   7.368   4.978   0.501 -0.6309  0.2493  1.0178
 9621TIP3    H228809   7.219   4.981   0.472 -0.4258  0.7004 -0.0083
 9622TIP3   OH228810   4.246   0.026   6.507  0.1072 -0.0257 -0.0311
 9622TIP3    H128811   4.313   0.084   6.543  0.5431 -0.7409  0.3227
 9622TIP3    H228812   4.253  -0.054   6.559 -1.0059 -0.1181 -0.0104
 9623TIP3   OH228813   0.803   3.855   1.846 -0.7889 -0.4536  0.2958
 9623TIP3    H128814   0.850   3.774   1.865 -1.7655 -1.0089  0.3519
 9623TIP3    H228815   0.712   3.828   1.835 -0.3753 -0.2248 -5.1724
 9624TIP3   OH228816   7.179   5.641   1.370  0.5364 -0.6996  0.0622
 9624TIP3    H128817   7.151   5.723   1.329 -0.1643 -1.7094 -1.5701
 9624TIP3    H228818   7.178   5.658   1.464 -0.8695  0.7600 -0.2063
 9625TIP3   OH228819   2.784   2.625   6.376 -0.6345 -0.2144  0.0313
 9625TIP3    H128820   2.845   2.558   6.406 -2.2462 -1.6978  0.0832
 9625TIP3    H228821   2.705   2.576   6.353 -1.3208  1.5115 -1.3711
 9626TIP3   OH228822   3.967   0.497   6.642  0.7283  0.3375  0.4034
 9626TIP3    H128823   4.013   0.418   6.670  0.8490  0.3917  0.3544
 9626TIP3    H228824   3.891   0.502   6.701  0.8632  0.3306  0.5762
 9627TIP3   OH228825   6.521   4.313   0.529 -0.4437 -0.4771 -0.1406
 9627TIP3    H128826   6.451   4.306   0.463  0.0003 -2.0372 -0.4697
 9627TIP3    H228827   6.602   4.313   0.479 -0.1847  0.9433  0.2678
 9628TIP3   OH228828   5.105   3.263   2.626  0.0198  0.2519  0.4104
 9628TIP3    H128829   5.019   3.304   2.628 -1.2984 -2.3672 -0.7066
 9628TIP3    H228830   5.141   3.287   2.540 -0.3893 -0.1772  0.1147
 9629TIP3   OH228831   3.030   0.433   6.936 -0.0390  0.0412 -0.3036
 9629TIP3    H128832   3.064   0.419   6.848  1.9146  1.6118  0.1651
 9629TIP3    H228833   2.938   0.456   6.923 -0.0933 -0.9375 -1.8200
 9630TIP3   OH228834   7.528   2.959   1.175  0.0425 -0.5246  0.0571
 9630TIP3    H128835   7.451   2.929   1.127  1.0577 -1.2794 -1.1295
 9630TIP3    H228836   7.590   2.985   1.107  0.1871  1.7419  1.0301
 9631TIP3   OH228837   5.241   1.537   6.929 -0.7317  0.0876 -0.2575
 9631TIP3    H128838   5.240   1.600   7.001  2.0645  0.2741 -0.2970
 9631TIP3    H228839   5.304   1.573   6.867 -0.8028 -1.6123 -1.3533
 9632TIP3   OH228840   5.124   3.624   3.440 -0.2986 -0.0645  0.0297
 9632TIP3    H128841   5.208   3.587   3.469 -0.1925 -1.0104 -1.4313
 9632TIP3    H228842   5.079   3.648   3.521  0.7788 -0.8952  0.8921
 9633TIP3   OH228843   7.184   4.507   0.128 -0.0958 -0.1561  0.0100
 9633TIP3    H128844   7.157   4.437   0.188 -1.2505 -1.1080 -1.5923
 9633TIP3    H228845   7.262   4.474   0.085  1.4109  0.9907  1.7541
 9634TIP3   OH228846   0.803   6.175   5.219 -0.1998 -0.0589 -0.3025
 9634TIP3    H128847   0.891   6.154   5.187 -0.6086 -1.1242 -0.7622
 9634TIP3    H228848   0.775   6.096   5.266 -0.3132  0.8337  1.1743
 9635TIP3   OH228849   6.184   5.148   1.061 -0.5410  0.6277  0.7403
 9635TIP3    H128850   6.272   5.124   1.090 -0.8358  1.2712  2.1997
 9635TIP3    H228851   6.142   5.065   1.039  0.5737  0.3584 -0.3958
 9636TIP3   OH228852   7.894   3.484   0.693 -0.2736 -0.1293  0.3533
 9636TIP3    H128853   7.820   3.527   0.649  0.2795  0.9791  0.4881
 9636TIP3    H228854   7.886   3.511   0.785  0.7151  0.6023  0.2346
 9637TIP3   OH228855   5.568   3.188   0.718 -0.7976  0.0373  0.0535
 9637TIP3    H128856   5.585   3.188   0.812  0.8125 -1.0485 -0.2182
 9637TIP3    H228857   5.512   3.264   0.703 -2.1394 -0.5378  2.0713
 9638TIP3   OH228858   7.181   7.297   0.131 -0.1389 -0.2636  0.3828
 9638TIP3    H128859   7.198   7.226   0.068  0.0545 -0.9486  1.1944
 9638TIP3    H228860   7.226   7.269   0.211 -2.1727 -0.4164  1.4992
 9639TIP3   OH228861   1.869   6.661   6.475  0.4330  0.2559 -0.0532
 9639TIP3    H128862   1.837   6.729   6.416 -0.0858 -0.4494 -0.6031
 9639TIP3    H228863   1.963   6.657   6.458  0.1632 -0.5259 -1.4747
 9640TIP3   OH228864   5.851   2.807   0.444  0.2613 -0.0911  0.5957
 9640TIP3    H128865   5.832   2.869   0.515 -3.3997 -0.6148  0.1431
 9640TIP3    H228866   5.877   2.727   0.489  0.1941  0.2671  1.2853
 9641TIP3   OH228867   0.411   3.245   2.313  0.0401 -0.0889 -0.2629
 9641TIP3    H128868   0.321   3.254   2.282  0.2839 -0.3203 -1.0513
 9641TIP3    H228869   0.445   3.334   2.316  0.0584 -0.0749 -0.8033
 9642TIP3   OH228870   4.363   0.864   3.911 -0.1955 -0.0734  0.0385
 9642TIP3    H128871   4.376   0.957   3.889 -2.1287 -0.2609 -2.0748
 9642TIP3    H228872   4.362   0.862   4.007  1.4219  1.8445  0.1376
 9643TIP3   OH228873   3.600   1.746   6.761 -0.2722  0.0436  0.0686
 9643TIP3    H128874   3.547   1.759   6.839  0.7640  1.1654  0.5964
 9643TIP3    H228875   3.671   1.809   6.769  1.3929 -1.7293 -0.4092
 9644TIP3   OH228876   7.722   2.053   1.615 -0.3912 -0.0718  0.6008
 9644TIP3    H128877   7.773   1.976   1.640 -1.6592 -0.2834  2.6179
 9644TIP3    H228878   7.664   2.022   1.546  1.7383  0.0316 -1.3121
 9645TIP3   OH228879   8.363   1.841   0.455  0.2095  0.5347 -0.2142
 9645TIP3    H128880   8.437   1.787   0.484  0.5593 -0.5487 -2.9460
 9645TIP3    H228881   8.389   1.931   0.474  1.0571 -0.0310  1.3455
 9646TIP3   OH228882   4.972   1.057   6.204  0.0572 -0.4107  0.6043
 9646TIP3    H128883   4.918   1.079   6.128  1.2888  1.0838  0.1175
 9646TIP3    H228884   4.919   0.996   6.254 -1.8316  0.5340 -0.1689
 9647TIP3   OH228885   5.178   6.538   1.628 -0.1268 -0.5080 -0.4844
 9647TIP3    H128886   5.137   6.572   1.708 -1.1103 -2.0731 -0.3064
 9647TIP3    H228887   5.272   6.550   1.643 -0.3259 -0.3355  0.7044
 9648TIP3   OH228888   0.008   4.555   1.525 -0.0004 -0.5190  0.2529
 9648TIP3    H128889  -0.070   4.607   1.505 -0.3115 -1.0995 -0.0496
 9648TIP3    H228890   0.077   4.593   1.470  0.3831  1.1554  1.8367
 9649TIP3   OH228891   5.923   6.140   0.702  0.1379  0.0381 -0.5692
 9649TIP3    H128892   5.831   6.121   0.682  0.5406 -1.0563 -1.3960
 9649TIP3    H228893   5.923   6.232   0.728 -1.4141 -0.3393  0.8257
 9650TIP3   OH228894   6.044   5.797   1.112 -0.4739  1.1124 -0.2160
 9650TIP3    H128895   6.089   5.860   1.057 -1.0335  0.8703 -0.9668
 9650TIP3    H228896   6.043   5.837   1.199  1.8899  0.7463 -0.0049
 9651TIP3   OH228897   4.384   4.889   0.722 -0.0799  0.0173 -0.1699
 9651TIP3    H128898   4.348   4.844   0.799  1.9570 -1.3380  0.0359
 9651TIP3    H228899   4.366   4.981   0.739  1.9322 -0.0608  2.8894
 9652TIP3   OH228900   1.765   1.472   5.840  0.2061 -0.1672  0.4079
 9652TIP3    H128901   1.819   1.543   5.805  0.4102 -0.5710 -0.1174
 9652TIP3    H228902   1.740   1.501   5.927  0.2150  0.5845  0.1601
 9653TIP3   OH228903   0.895   6.345   0.085 -0.3363 -0.1339  0.0619
 9653TIP3    H128904   0.808   6.306   0.096  0.4280 -1.4370  1.5136
 9653TIP3    H228905   0.913   6.388   0.168  0.5412 -0.0862 -0.1517
 9654TIP3   OH228906   1.992   7.735   6.769 -0.0669  0.0058 -0.0280
 9654TIP3    H128907   2.076   7.693   6.751  0.3786  0.8003  0.1766
 9654TIP3    H228908   2.015   7.823   6.798 -1.0220  0.9810 -2.0697
 9655TIP3   OH228909   4.555   4.380   6.958 -0.9148 -0.2841 -0.0233
 9655TIP3    H128910   4.616   4.306   6.960 -1.6738 -0.8845  1.5648
 9655TIP3    H228911   4.572   4.423   6.874 -0.2037 -2.0453 -0.7995
 9656TIP3   OH228912   4.563   0.281   3.405  0.4017  0.1818  0.6717
 9656TIP3    H128913   4.644   0.266   3.455  0.7956  0.4938  0.1256
 9656TIP3    H228914   4.531   0.366   3.436  1.1698  0.8385 -0.3100
 9657TIP3   OH228915   0.204   6.231   0.072 -0.6879 -0.2760  0.1601
 9657TIP3    H128916   0.141   6.165   0.100 -1.3802  0.0624 -0.5664
 9657TIP3    H228917   0.223   6.208  -0.019 -3.3931  2.3593 -1.1697
 9658TIP3   OH228918   2.388   7.072   5.383  0.1898  0.6863 -0.4534
 9658TIP3    H128919   2.318   7.068   5.318 -0.0106  0.7146 -0.2401
 9658TIP3    H228920   2.375   6.994   5.437  1.2874 -0.1564 -1.3953
 9659TIP3   OH228921   4.156   1.179   6.443 -0.2113  0.5788 -0.2564
 9659TIP3    H128922   4.216   1.235   6.394  2.1261 -1.7309 -0.1147
 9659TIP3    H228923   4.165   1.208   6.534  1.3994 -0.3689 -0.1067
 9660TIP3   OH228924   4.746   0.153   6.666  0.3014 -0.1927  0.3038
 9660TIP3    H128925   4.795   0.074   6.691 -0.7581 -0.9219  0.0689
 9660TIP3    H228926   4.763   0.163   6.573  1.6652  0.7383  0.6177
 9661TIP3   OH228927   6.481   4.474   0.272 -0.3082  0.0853  0.5345
 9661TIP3    H128928   6.387   4.468   0.289 -0.5360  0.1884 -0.6403
 9661TIP3    H228929   6.504   4.563   0.298 -0.7508  0.4119 -0.1661
 9662TIP3   OH228930   2.908   4.687   1.036  0.5334 -0.2233 -0.1856
 9662TIP3    H128931   2.890   4.778   1.061 -0.9825 -0.1626 -1.3651
 9662TIP3    H228932   2.996   4.689   1.000  0.6806  0.7098  0.2096
 9663TIP3   OH228933   6.872   5.337   0.351  0.0287  0.0349 -0.6115
 9663TIP3    H128934   6.833   5.395   0.285  0.8627 -0.1614 -1.2827
 9663TIP3    H228935   6.942   5.291   0.304  2.2047  1.6036  0.9775
 9664TIP3   OH228936   1.292   7.926   6.939 -0.2082 -0.2633  0.5463
 9664TIP3    H128937   1.368   7.985   6.938 -0.3740 -0.0483 -0.1675
 9664TIP3    H228938   1.329   7.838   6.931 -0.0773 -0.0878 -1.0224
 9665TIP3   OH228939   2.461   6.466   5.915 -0.2431 -0.3318 -0.0959
 9665TIP3    H128940   2.407   6.538   5.883  0.2291 -0.0550 -0.2732
 9665TIP3    H228941   2.417   6.387   5.883 -0.6922 -0.1211 -0.0028
 9666TIP3   OH228942   0.090   3.514   1.887  0.0327 -0.6619  0.0575
 9666TIP3    H128943   0.076   3.425   1.919 -1.2952 -0.5894 -0.2826
 9666TIP3    H228944   0.139   3.503   1.806 -1.1906 -1.1676 -0.6247
 9667TIP3   OH228945   5.787   6.925   0.313  0.0891  0.6262  0.1335
 9667TIP3    H128946   5.776   6.879   0.230  2.3406  0.6432 -0.1949
 9667TIP3    H228947   5.783   7.018   0.289  0.7915  0.6315  0.0406
 9668TIP3   OH228948   8.264   2.756   1.438  0.0119  0.6630 -0.1817
 9668TIP3    H128949   8.273   2.701   1.516 -2.4127  1.1401  0.4504
 9668TIP3    H228950   8.178   2.796   1.445  0.7794  2.7412 -1.8290
 9669TIP3   OH228951   4.995   4.891   0.708 -0.0614  0.2747  0.1146
 9669TIP3    H128952   4.915   4.944   0.703 -0.0914  0.1875 -0.3036
 9669TIP3    H228953   5.061   4.943   0.662  0.4031  0.8483  1.3798
 9670TIP3   OH228954   5.077   5.885  -0.020  0.0573 -0.0737  0.4445
 9670TIP3    H128955   5.126   5.823   0.034  0.7381  1.2606  1.3827
 9670TIP3    H228956   4.999   5.905   0.031 -0.2099 -0.2263  0.1007
 9671TIP3   OH228957   5.152   5.584   0.596  0.0206  0.1561 -0.0832
 9671TIP3    H128958   5.062   5.618   0.587 -0.1199  0.4191  2.0805
 9671TIP3    H228959   5.142   5.489   0.589 -0.0904  0.3186 -2.3373
 9672TIP3   OH228960   6.947   3.741   0.331 -0.1222 -0.1134 -0.1472
 9672TIP3    H128961   6.988   3.665   0.371  1.3548  1.1174  0.7651
 9672TIP3    H228962   7.020   3.802   0.317 -1.1030  0.6840 -1.8921
 9673TIP3   OH228963   7.223   5.262   0.416  0.3421  0.1565  0.7857
 9673TIP3    H128964   7.302   5.293   0.373 -1.1826  1.3180 -1.2424
 9673TIP3    H228965   7.229   5.166   0.412  1.5164  0.2420  0.4630
 9674TIP3   OH228966   3.220   1.531   6.792 -0.0919  1.0761  0.3040
 9674TIP3    H128967   3.199   1.443   6.823 -0.0710  1.1669  0.5754
 9674TIP3    H228968   3.135   1.570   6.770 -0.2758  1.6634  1.9869
 9675TIP3   OH228969   3.982   1.032   6.712 -0.1155  0.3507  0.0324
 9675TIP3    H128970   3.957   1.119   6.743 -1.9711  1.0271 -3.1681
 9675TIP3    H228971   3.923   0.972   6.758 -0.2560  0.9502  0.6418
 9676TIP3   OH228972   2.380   7.819   6.131  0.0168  0.3043 -0.3431
 9676TIP3    H128973   2.428   7.877   6.189  0.9625 -1.0410  0.2230
 9676TIP3    H228974   2.412   7.731   6.152 -0.7460 -0.3398 -1.8130
 9677TIP3   OH228975   7.173   4.020   2.748 -0.0971 -0.5698 -0.2374
 9677TIP3    H128976   7.259   4.026   2.790 -0.8649 -0.1537  1.2937
 9677TIP3    H228977   7.159   4.108   2.711  0.3865 -0.8139 -1.0317
 9678TIP3   OH228978   7.647   4.950   0.359  0.1983  0.0755 -0.7548
 9678TIP3    H128979   7.728   4.947   0.308  1.1404  1.2840  0.6195
 9678TIP3    H228980   7.638   5.041   0.384 -0.5033 -0.3998  0.8038
 9679TIP3   OH228981   3.782   0.530   6.851  0.1330  0.2298 -0.5690
 9679TIP3    H128982   3.745   0.610   6.886  2.3142  1.2105 -0.4100
 9679TIP3    H228983   3.840   0.498   6.920 -0.2854 -1.1674 -0.8542
 9680TIP3   OH228984   4.388   1.035   5.594 -0.3696  0.6771  0.0504
 9680TIP3    H128985   4.401   1.114   5.647 -0.0785  0.4396  0.3381
 9680TIP3    H228986   4.298   1.008   5.614 -0.3903  0.8042  0.1334
 9681TIP3   OH228987   6.174   6.431   1.420 -0.1881  0.1460  0.4322
 9681TIP3    H128988   6.233   6.359   1.399 -1.4366 -0.3862 -1.4422
 9681TIP3    H228989   6.141   6.411   1.508  2.0327  0.2159  1.2969
 9682TIP3   OH228990   1.131   4.734   2.074  0.2366 -0.9956 -0.0538
 9682TIP3    H128991   1.081   4.812   2.097 -1.3374 -1.5306 -1.5308
 9682TIP3    H228992   1.218   4.748   2.112 -0.4248  0.8755  0.7968
 9683TIP3   OH228993   2.300   3.260   6.661  0.9319 -0.1829  0.2421
 9683TIP3    H128994   2.306   3.184   6.604 -0.0027 -0.8920  1.0729
 9683TIP3    H228995   2.322   3.227   6.748  2.8548  0.9993  0.2201
 9684TIP3   OH228996   2.549   1.142   6.900  0.1216  0.3053 -0.3144
 9684TIP3    H128997   2.590   1.201   6.837 -0.6813  0.8046 -0.3771
 9684TIP3    H228998   2.462   1.179   6.914 -0.2141 -0.6000  0.0115
 9685TIP3   OH228999   7.347   7.198   0.323 -0.0704 -0.4218 -0.0128
 9685TIP3    H129000   7.329   7.258   0.395  1.6127  0.3395 -0.2000
 9685TIP3    H229001   7.433   7.162   0.342 -0.7115 -2.1891 -0.3295
 9686TIP3   OH229002   3.785   5.292   0.376 -0.2674  0.0087  0.3641
 9686TIP3    H129003   3.784   5.275   0.470 -0.3629 -0.4529  0.2783
 9686TIP3    H229004   3.874   5.269   0.348  0.2730  1.7152  0.6327
 9687TIP3   OH229005   8.217   7.070   1.751 -0.1488 -0.0411  0.4903
 9687TIP3    H129006   8.280   7.116   1.695 -1.4728  0.6775 -0.4552
 9687TIP3    H229007   8.177   7.005   1.693  0.3857 -1.1229  1.3268
 9688TIP3   OH229008   6.798   5.941   2.317  0.1492  0.3164  0.1540
 9688TIP3    H129009   6.741   5.875   2.356 -0.2374 -0.9520 -2.4649
 9688TIP3    H229010   6.868   5.954   2.381 -1.4390 -0.3104  2.0749
 9689TIP3   OH229011   1.281   4.283   0.753 -0.0064 -0.1897 -1.0173
 9689TIP3    H129012   1.252   4.329   0.832 -0.2370  0.0852 -1.2595
 9689TIP3    H229013   1.318   4.352   0.697 -0.2925 -0.3071 -1.3547
 9690TIP3   OH229014   4.647   0.997   6.286  0.5223 -0.0779 -0.5109
 9690TIP3    H129015   4.639   1.086   6.251 -1.3122  0.3370  0.8457
 9690TIP3    H229016   4.622   1.006   6.378  1.5443 -1.7910 -0.0533
 9691TIP3   OH229017   0.320   3.858   0.744  0.1001  0.2941  0.4343
 9691TIP3    H129018   0.327   3.876   0.838  2.0526  0.5410  0.2623
 9691TIP3    H229019   0.410   3.841   0.716 -0.5492 -0.4292 -1.2704
 9692TIP3   OH229020   4.980   1.925   6.591  0.1528 -0.1250 -0.2584
 9692TIP3    H129021   4.977   1.987   6.665  1.4272 -0.7729  0.3698
 9692TIP3    H229022   5.058   1.952   6.542 -0.2660 -0.1673 -0.9387
 9693TIP3   OH229023   0.221   4.580   0.930 -0.0791  0.3894  0.4610
 9693TIP3    H129024   0.246   4.522   1.002 -1.0647 -0.0477  0.4616
 9693TIP3    H229025   0.133   4.609   0.952 -0.6485 -0.2775 -0.9009
 9694TIP3   OH229026   2.740   7.849   5.532  0.2365 -0.5760 -0.0517
 9694TIP3    H129027   2.769   7.853   5.624 -1.2216 -0.8947  0.4323
 9694TIP3    H229028   2.724   7.940   5.508 -0.2069 -0.5645  0.2826
 9695TIP3   OH229029   8.437   4.207   0.452 -0.3005  0.4924 -0.3957
 9695TIP3    H129030   8.451   4.301   0.438  0.4137  0.6621  1.2999
 9695TIP3    H229031   8.499   4.184   0.521 -2.7494 -0.5365  1.5273
 9696TIP3   OH229032   4.293   0.143   6.903  0.2880  0.1185  0.2382
 9696TIP3    H129033   4.342   0.126   6.822  1.3375  2.7333  0.2688
 9696TIP3    H229034   4.361   0.154   6.970 -0.4933  0.2442  1.0095
 9697TIP3   OH229035   8.035   6.948   0.708  0.7699  0.0318 -0.5440
 9697TIP3    H129036   7.953   6.916   0.672 -0.0780 -1.4538  2.5610
 9697TIP3    H229037   8.075   6.871   0.749  2.2767  1.3748  0.5699
 9698TIP3   OH229038   7.906   4.972   0.851 -0.5754 -0.2328  0.1875
 9698TIP3    H129039   7.824   4.989   0.805 -0.8503  0.4136  0.9009
 9698TIP3    H229040   7.973   4.973   0.783 -0.9641  0.8291 -0.1798
 9699TIP3   OH229041   0.529   3.719   1.512  0.9289 -0.6275  0.3881
 9699TIP3    H129042   0.581   3.731   1.432 -0.1418 -1.5468 -0.4561
 9699TIP3    H229043   0.594   3.703   1.580  1.7577 -1.8610 -0.6744
 9700TIP3   OH229044   0.290   3.256   0.720  0.2516 -0.0261  0.2696
 9700TIP3    H129045   0.325   3.330   0.771 -0.2459  0.6085 -0.2911
 9700TIP3    H229046   0.247   3.200   0.785  1.2011 -0.1567  0.7890
 9701TIP3   OH229047   4.167   0.738   6.648 -0.3443 -0.5337 -0.5730
 9701TIP3    H129048   4.125   0.675   6.591  1.4009 -1.4422 -0.9036
 9701TIP3    H229049   4.127   0.723   6.734 -3.1627  1.0203 -1.5464
 9702TIP3   OH229050   1.696   4.808   3.754  0.0034 -0.0980 -0.0885
 9702TIP3    H129051   1.739   4.893   3.741  1.9824 -0.8660  1.2156
 9702TIP3    H229052   1.733   4.752   3.686  0.5524 -0.5593  0.5759
 9703TIP3   OH229053   7.414   4.604   0.447  0.3671 -0.6814 -0.4791
 9703TIP3    H129054   7.412   4.650   0.363  1.8827  0.7665  0.2379
 9703TIP3    H229055   7.339   4.638   0.495 -0.3857 -1.3613 -1.1712
 9704TIP3   OH229056   5.837   5.603   1.767 -0.0496 -0.5560 -0.4988
 9704TIP3    H129057   5.916   5.651   1.742 -0.0855  1.0163  2.2155
 9704TIP3    H229058   5.865   5.545   1.838 -1.3414  0.2761  0.7437
 9705TIP3   OH229059   6.168   6.086   2.150  0.0722 -0.4569 -0.0997
 9705TIP3    H129060   6.113   6.126   2.217 -1.7138 -0.7379 -1.3421
 9705TIP3    H229061   6.161   5.992   2.165  0.9448 -0.4656  0.2826
 9706TIP3   OH229062   6.867   4.032   1.358  0.4406 -0.2888  0.0479
 9706TIP3    H129063   6.820   4.114   1.339 -0.8225 -0.3490  2.7106
 9706TIP3    H229064   6.838   3.972   1.289  0.0662  0.9946 -0.9394
 9707TIP3   OH229065   5.693   4.368   0.643  0.3205 -0.2483 -0.0428
 9707TIP3    H129066   5.692   4.307   0.570 -0.0683 -0.4875  0.1580
 9707TIP3    H229067   5.688   4.312   0.721  2.2610 -0.0681  0.2160
 9708TIP3   OH229068   6.938   5.927   0.509 -0.8222 -0.1471  0.0921
 9708TIP3    H129069   6.872   5.895   0.570 -0.2280  0.2016  0.9311
 9708TIP3    H229070   6.917   5.884   0.426 -1.6893 -0.5608  0.5221
 9709TIP3   OH229071   6.621   5.617   0.407 -0.0671  0.2256 -0.7766
 9709TIP3    H129072   6.528   5.641   0.399 -0.1725  0.2330  0.2929
 9709TIP3    H229073   6.633   5.601   0.501  0.4832 -1.9367 -1.1795
 9710TIP3   OH229074   1.000   0.733   1.024  0.3335  0.1211 -0.1816
 9710TIP3    H129075   0.908   0.741   0.999  1.3268  0.8850 -3.9042
 9710TIP3    H229076   1.016   0.810   1.078 -1.7336 -1.2284  2.4910
 9711TIP3   OH229077   3.970   2.877   6.766  0.1207 -0.0246 -0.7042
 9711TIP3    H129078   3.944   2.969   6.768  1.3476  0.3091  1.4237
 9711TIP3    H229079   3.902   2.832   6.817 -0.9914 -0.4571 -2.5351
 9712TIP3   OH229080   6.085   5.413   0.937 -0.4292 -0.2782  0.3190
 9712TIP3    H129081   6.140   5.335   0.936  2.9347  1.9934 -0.7340
 9712TIP3    H229082   6.126   5.471   1.000 -1.2225  1.7661 -1.0085
 9713TIP3   OH229083   3.390   2.382   6.173  0.1062 -0.2804  0.1269
 9713TIP3    H129084   3.397   2.343   6.260  0.0424  1.1066  0.7633
 9713TIP3    H229085   3.347   2.315   6.120  0.2629 -1.1831  1.1280
 9714TIP3   OH229086   7.709   5.104   1.464 -0.1635 -0.3123 -0.5669
 9714TIP3    H129087   7.769   5.129   1.534 -1.3355 -0.6859  0.5922
 9714TIP3    H229088   7.697   5.184   1.413  1.3851 -0.2620 -0.8743
 9715TIP3   OH229089   1.217   0.712   6.556  0.0390  0.0867  0.0851
 9715TIP3    H129090   1.273   0.674   6.488  1.5091  1.1751  0.6717
 9715TIP3    H229091   1.212   0.805   6.533 -1.5478  0.0082  0.0424
 9716TIP3   OH229092   1.600   7.346   6.219 -0.1497 -0.5635 -0.4029
 9716TIP3    H129093   1.561   7.334   6.133 -0.0978  1.2637 -0.7002
 9716TIP3    H229094   1.681   7.394   6.202  0.3713 -1.0864  0.5660
 9717TIP3   OH229095   6.639   2.260   6.477  0.0144  0.0786 -0.1703
 9717TIP3    H129096   6.679   2.258   6.565  0.2601 -0.9185 -0.2971
 9717TIP3    H229097   6.652   2.350   6.447 -1.0459  0.7464  1.2596
 9718TIP3   OH229098   7.457   4.163   1.150 -0.4405 -0.0022 -0.3281
 9718TIP3    H129099   7.469   4.141   1.242 -1.1399  0.0882 -0.2122
 9718TIP3    H229100   7.490   4.253   1.143 -2.6260  0.9020  0.3687
 9719TIP3   OH229101   5.941   3.699   0.066 -0.5020 -0.2238  0.1219
 9719TIP3    H129102   5.879   3.641   0.022 -2.6228  0.2851  2.3402
 9719TIP3    H229103   5.962   3.654   0.148  0.7760  0.4212  0.1721
 9720TIP3   OH229104   8.505   4.961   1.755  0.1346  0.4043  0.0837
 9720TIP3    H129105   8.560   4.930   1.828  0.5561  0.0259 -0.3911
 9720TIP3    H229106   8.420   4.919   1.769 -0.0089  0.9009  0.7564
 9721TIP3   OH229107   4.542   0.447   5.396 -0.3796  0.0934 -0.1645
 9721TIP3    H129108   4.528   0.521   5.455  2.3311  1.5736 -1.3101
 9721TIP3    H229109   4.601   0.389   5.444  0.1227  0.2628 -0.5792
 9722TIP3   OH229110   8.215   4.177  -0.009  0.3876  0.3190  0.5935
 9722TIP3    H129111   8.265   4.127   0.056  0.8281 -1.2183 -0.8843
 9722TIP3    H229112   8.212   4.266   0.026 -0.0723 -0.6371  3.1012
 9723TIP3   OH229113   8.122   1.027   6.843 -0.0175  0.5954  0.0786
 9723TIP3    H129114   8.097   1.118   6.859 -0.1659  0.9020 -1.8377
 9723TIP3    H229115   8.074   1.002   6.765  0.2630 -1.0425  0.4187
 9724TIP3   OH229116   7.390   1.096   4.454 -0.1790  0.3432 -0.1278
 9724TIP3    H129117   7.354   1.018   4.411  0.4239  0.2335 -0.4417
 9724TIP3    H229118   7.327   1.165   4.435 -0.3483  0.0984 -0.4701
 9725TIP3   OH229119   1.300   8.034   5.025 -0.5445  0.2522 -0.2947
 9725TIP3    H129120   1.257   7.952   5.049 -1.0904  1.1770  2.0859
 9725TIP3    H229121   1.391   8.022   5.054 -0.0817 -0.3041 -1.9299
 9726TIP3   OH229122   3.130   7.270   6.341 -0.3526 -0.3448  0.4819
 9726TIP3    H129123   3.173   7.210   6.280 -0.3847 -1.0727  1.1632
 9726TIP3    H229124   3.195   7.338   6.357 -0.0232 -0.6120  0.2988
 9727TIP3   OH229125   1.254   6.605   0.213  0.0587 -0.2546 -0.2746
 9727TIP3    H129126   1.190   6.539   0.240 -0.9319  0.9557  0.4176
 9727TIP3    H229127   1.205   6.663   0.154  0.9838 -0.2698 -1.0785
 9728TIP3   OH229128   5.502   2.228   5.739  0.2954  0.0348 -0.0572
 9728TIP3    H129129   5.594   2.252   5.728 -0.0711  0.8390 -1.4750
 9728TIP3    H229130   5.488   2.159   5.674 -0.6040  1.3319 -1.2751
 9729TIP3   OH229131   1.905   4.885   0.197  0.2522  0.2236 -0.0767
 9729TIP3    H129132   1.946   4.968   0.220 -1.4277  0.4068  2.4828
 9729TIP3    H229133   1.975   4.820   0.211  0.9188  0.9707  0.1287
 9730TIP3   OH229134   0.321   1.484   5.935 -0.7118 -0.0611  0.0314
 9730TIP3    H129135   0.260   1.515   6.001 -2.3057 -0.0993 -1.3954
 9730TIP3    H229136   0.297   1.393   5.919 -0.6676  0.0909 -0.9542
 9731TIP3   OH229137   6.862   0.923   5.015  0.4203 -0.5861 -0.1698
 9731TIP3    H129138   6.784   0.875   5.042 -0.8580  1.5866  0.1322
 9731TIP3    H229139   6.911   0.936   5.096 -1.8994  3.2324  0.7683
 9732TIP3   OH229140   5.239   0.115   5.128  0.4469  0.1739  0.0928
 9732TIP3    H129141   5.213   0.123   5.220  0.5411  3.3828 -0.1060
 9732TIP3    H229142   5.166   0.067   5.087  0.0127 -0.5374  1.6586
 9733TIP3   OH229143   5.396   1.095   6.833 -0.7286  0.2071  1.0672
 9733TIP3    H129144   5.336   1.026   6.860  0.8121 -1.6742 -0.2319
 9733TIP3    H229145   5.479   1.072   6.874 -0.1339  1.1794  0.4228
 9734TIP3   OH229146   5.350   7.454   6.633  0.3147 -0.0752 -0.4690
 9734TIP3    H129147   5.255   7.444   6.621  0.3170  0.4811 -0.9922
 9734TIP3    H229148   5.386   7.440   6.545  0.6718  0.2329 -0.3705
 9735TIP3   OH229149   8.247   4.700   0.145 -0.2635  0.0849  0.3143
 9735TIP3    H129150   8.231   4.607   0.128 -0.4881  0.0051  0.9445
 9735TIP3    H229151   8.264   4.704   0.239  0.5044  0.5809  0.1522
 9736TIP3   OH229152   0.233   4.846   0.376 -0.4430  0.6114 -0.1549
 9736TIP3    H129153   0.278   4.841   0.292 -0.2710  1.4251 -0.1198
 9736TIP3    H229154   0.281   4.786   0.433  0.7712  1.6667 -0.0420
 9737TIP3   OH229155   3.898   5.498   5.714  0.5716  0.3628  0.5318
 9737TIP3    H129156   3.920   5.461   5.629 -0.2265  0.1001  0.4356
 9737TIP3    H229157   3.899   5.592   5.701  1.0019  0.3376  0.3739
 9738TIP3   OH229158   1.825   3.129   2.895 -0.3460  0.5568 -0.0332
 9738TIP3    H129159   1.880   3.052   2.879 -0.0926  0.7529 -0.1091
 9738TIP3    H229160   1.756   3.123   2.830 -0.3472  0.3733 -0.0155
 9739TIP3   OH229161   0.290   3.635   1.369  0.2659 -0.1013  0.3768
 9739TIP3    H129162   0.227   3.683   1.423 -0.9224 -2.0156  0.7407
 9739TIP3    H229163   0.368   3.626   1.424 -0.6405 -1.3183  1.5012
 9740TIP3   OH229164   8.162   2.692   6.770  0.0669 -0.3215  0.5260
 9740TIP3    H129165   8.185   2.599   6.774 -0.5242 -0.5425 -1.0096
 9740TIP3    H229166   8.071   2.693   6.742 -0.0873  0.7217  1.0308
 9741TIP3   OH229167   4.382   1.195   5.982  0.1014 -0.4935  0.3019
 9741TIP3    H129168   4.457   1.190   6.042 -1.6827 -0.3174  2.6035
 9741TIP3    H229169   4.389   1.282   5.943  0.6011 -0.1364  1.1712
 9742TIP3   OH229170   1.465   5.436   1.299  0.6717  0.2886 -0.2535
 9742TIP3    H129171   1.537   5.493   1.272  0.7093  0.0631 -0.6375
 9742TIP3    H229172   1.463   5.368   1.231 -0.5428  0.8428 -0.7849
 9743TIP3   OH229173   5.672   2.629   6.900 -0.0399  0.2713 -0.3591
 9743TIP3    H129174   5.718   2.691   6.956 -0.4917 -0.2019  0.5536
 9743TIP3    H229175   5.603   2.680   6.859 -0.2980  0.4138  0.2492
 9744TIP3   OH229176   7.900   7.009   0.956 -0.4006 -0.2513 -0.0293
 9744TIP3    H129177   7.920   6.948   0.885  1.9903 -0.4220  0.7584
 9744TIP3    H229178   7.929   7.094   0.924 -1.3965  0.0576 -0.1262
 9745TIP3   OH229179   8.341   4.372   0.814  0.0085 -0.0911  0.0187
 9745TIP3    H129180   8.264   4.412   0.772  0.3810 -1.3685 -1.9477
 9745TIP3    H229181   8.382   4.444   0.862 -1.5016  0.9904 -0.2666
 9746TIP3   OH229182   8.141   6.576   0.128 -0.1824  0.1376 -0.5064
 9746TIP3    H129183   8.141   6.485   0.097  0.5860 -0.4990  1.2857
 9746TIP3    H229184   8.065   6.616   0.086 -0.0563 -1.1046 -1.9654
 9747TIP3   OH229185   5.294   7.098   5.220 -0.6633  0.2289 -1.0123
 9747TIP3    H129186   5.321   7.190   5.226 -0.1413  0.0395 -0.3890
 9747TIP3    H229187   5.321   7.071   5.131  1.9814 -0.1757 -0.1448
 9748TIP3   OH229188   5.883   0.794   5.809  0.6164  0.2646 -0.6759
 9748TIP3    H129189   5.792   0.823   5.805 -0.1757 -2.1385 -0.8474
 9748TIP3    H229190   5.902   0.764   5.720  1.3871  0.1473 -0.4725
 9749TIP3   OH229191   8.314   4.620   0.654  0.8068  0.3423 -0.0642
 9749TIP3    H129192   8.263   4.683   0.704  1.2888  0.7799 -0.1157
 9749TIP3    H229193   8.397   4.665   0.636  2.0703 -1.1584  1.8821
 9750TIP3   OH229194   5.735   0.827   6.619  0.2052 -0.3929 -0.3497
 9750TIP3    H129195   5.784   0.898   6.659 -0.4321 -1.1344  1.8006
 9750TIP3    H229196   5.801   0.758   6.603  0.7475  0.4886 -2.0835
 9751TIP3   OH229197   0.703   4.541   0.964 -0.2900  0.2748 -0.3605
 9751TIP3    H129198   0.706   4.450   0.992  0.8798  0.4063 -0.0111
 9751TIP3    H229199   0.704   4.536   0.868 -1.5557 -0.1065 -0.3531
 9752TIP3   OH229200   4.759   2.554   6.258  0.3420  0.3248 -0.1869
 9752TIP3    H129201   4.689   2.587   6.202 -0.4406 -0.9855 -0.0011
 9752TIP3    H229202   4.732   2.576   6.347  0.3572  0.1867 -0.1470
 9753TIP3   OH229203   7.935   5.905   0.036  0.7452 -0.0234 -0.3351
 9753TIP3    H129204   7.983   5.988   0.032  1.0184 -0.0223  1.9638
 9753TIP3    H229205   7.987   5.850   0.094  0.2740 -1.6070 -1.4075
 9754TIP3   OH229206   8.482   6.906   3.629  0.2229  0.6136  0.0814
 9754TIP3    H129207   8.558   6.848   3.627  0.1289  0.4884  0.0439
 9754TIP3    H229208   8.419   6.861   3.685  0.9073  1.6534  1.7041
 9755TIP3   OH229209   6.479   0.701   6.683 -0.3376 -0.1564  0.2000
 9755TIP3    H129210   6.558   0.648   6.677  0.4175  1.0319 -0.5696
 9755TIP3    H229211   6.478   0.735   6.772 -0.3816 -0.7788  0.4356
 9756TIP3   OH229212   4.043   3.167   6.365 -0.6676  0.4515 -0.4002
 9756TIP3    H129213   3.950   3.166   6.386 -0.8334 -1.8509 -1.1000
 9756TIP3    H229214   4.071   3.076   6.377  1.3062  0.9571 -0.9944
 9757TIP3   OH229215   0.256   4.212   0.528  0.8390 -0.3397 -0.4967
 9757TIP3    H129216   0.231   4.273   0.598 -0.1542 -1.7454  0.4024
 9757TIP3    H229217   0.336   4.249   0.492 -0.3872  2.1397 -0.7772
 9758TIP3   OH229218   7.023   0.622   5.075  0.7156 -0.0721  0.5873
 9758TIP3    H129219   7.018   0.532   5.108  0.5498 -0.2369  0.1092
 9758TIP3    H229220   6.946   0.632   5.019  0.3026  0.6174  1.2560
 9759TIP3   OH229221   8.014   2.959   0.611 -0.0864 -0.5461  0.3766
 9759TIP3    H129222   8.063   2.877   0.621  0.2251 -0.6254 -1.5587
 9759TIP3    H229223   7.927   2.932   0.583 -0.0845 -0.2373  0.0632
 9760TIP3   OH229224   2.591   2.437   6.388 -0.0700 -0.0905 -0.5047
 9760TIP3    H129225   2.635   2.360   6.351  0.3126  0.1330 -0.5207
 9760TIP3    H229226   2.502   2.408   6.405  0.7895 -1.3935  2.0822
 9761TIP3   OH229227   7.314   2.852   6.387  0.0892  0.1965  0.1065
 9761TIP3    H129228   7.348   2.935   6.353  1.2787 -0.4958 -0.4170
 9761TIP3    H229229   7.364   2.785   6.340  0.3130 -0.7999  1.7520
 9762TIP3   OH229230   6.790   7.435   0.555 -0.6932 -0.1458 -0.6627
 9762TIP3    H129231   6.787   7.454   0.462 -0.1644  0.9093 -0.4780
 9762TIP3    H229232   6.856   7.495   0.590 -0.2989 -1.1058  0.2590
 9763TIP3   OH229233   7.104   5.368   0.145 -0.6168 -0.3164  0.2902
 9763TIP3    H129234   7.160   5.351   0.221 -1.9915 -0.9501  1.1876
 9763TIP3    H229235   7.074   5.458   0.156 -1.0863 -0.5213  0.6716
 9764TIP3   OH229236   7.891   5.548   0.368  0.2141  0.3458 -0.3788
 9764TIP3    H129237   7.844   5.465   0.362  0.8468 -0.0449 -0.0560
 9764TIP3    H229238   7.828   5.610   0.405 -1.0340  0.6338 -2.8352
 9765TIP3   OH229239   4.855   1.149   5.981 -0.2589  0.0539 -0.1658
 9765TIP3    H129240   4.936   1.184   5.946  0.5410 -2.5990 -1.1255
 9765TIP3    H229241   4.806   1.120   5.904  0.0123 -2.7231  0.6561
 9766TIP3   OH229242   7.217   0.832   6.236  0.1453 -0.0716  0.1143
 9766TIP3    H129243   7.200   0.892   6.309 -0.7017  1.2416 -1.1484
 9766TIP3    H229244   7.298   0.864   6.197 -0.1809  0.1202 -0.4140
 9767TIP3   OH229245   0.678   6.187   0.808 -0.3671 -0.5691  0.1564
 9767TIP3    H129246   0.616   6.166   0.878  1.5083 -2.6217  1.2581
 9767TIP3    H229247   0.729   6.261   0.842 -0.2767 -0.7756  0.4745
 9768TIP3   OH229248   0.696   4.037   1.413 -0.2869  0.2245 -0.4122
 9768TIP3    H129249   0.747   3.991   1.479 -0.9021  0.5707  0.3020
 9768TIP3    H229250   0.676   4.123   1.452 -0.2929  0.5912 -1.2027
 9769TIP3   OH229251   8.391   3.135   2.209  0.1659 -0.2928  0.3282
 9769TIP3    H129252   8.397   3.055   2.262  2.3270 -0.8531 -0.7223
 9769TIP3    H229253   8.337   3.109   2.134  1.1443 -0.8789 -0.1829
 9770TIP3   OH229254   1.333   4.927   1.522 -0.0358 -0.0329 -0.3862
 9770TIP3    H129255   1.297   4.890   1.604 -2.7453  2.3423 -0.4279
 9770TIP3    H229256   1.411   4.974   1.550  0.3270 -1.1159  0.4927
 9771TIP3   OH229257   8.076   6.399   0.474 -0.0413 -0.2156  0.3989
 9771TIP3    H129258   8.094   6.368   0.386  0.6825 -0.7398  0.7301
 9771TIP3    H229259   7.990   6.362   0.497 -0.0157 -0.4544  0.0967
 9772TIP3   OH229260   5.864   0.136   5.621 -0.0103 -0.5997 -0.1681
 9772TIP3    H129261   5.789   0.086   5.653  0.7025 -0.7698  1.2780
 9772TIP3    H229262   5.890   0.190   5.696 -0.4629  1.5815 -1.5450
 9773TIP3   OH229263   0.259   3.781   0.141  0.3114  0.2130  0.1820
 9773TIP3    H129264   0.226   3.862   0.102 -0.9040  0.8389  2.4280
 9773TIP3    H229265   0.212   3.711   0.095  0.2291  0.8503 -0.7132
 9774TIP3   OH229266   6.255   0.938   5.642  0.0148 -0.1402  0.4454
 9774TIP3    H129267   6.233   0.850   5.671 -1.8374  0.4705  1.0016
 9774TIP3    H229268   6.336   0.928   5.593  0.4354 -1.9777  1.4669
 9775TIP3   OH229269   7.595   4.740   0.845  0.2011 -0.3303  0.1774
 9775TIP3    H129270   7.645   4.808   0.798 -1.4797  1.2951  0.6694
 9775TIP3    H229271   7.595   4.665   0.786  0.2454  0.8414 -1.3511
 9776TIP3   OH229272   6.562   4.725   0.377  0.0638 -0.1941  0.1164
 9776TIP3    H129273   6.468   4.736   0.388  0.1042  0.7406 -0.4963
 9776TIP3    H229274   6.589   4.797   0.320  1.0481 -0.8137 -0.2169
 9777TIP3   OH229275   6.290   1.936   6.538 -0.2698  0.6874  0.5237
 9777TIP3    H129276   6.307   2.019   6.493  0.6150  1.5830  2.4312
 9777TIP3    H229277   6.376   1.907   6.568 -0.3916 -1.6461 -1.3053
 9778TIP3   OH229278   7.026   1.719   5.797  0.2005  0.1150  0.1262
 9778TIP3    H129279   6.974   1.798   5.815 -0.3212 -0.2747  0.3250
 9778TIP3    H229280   7.061   1.734   5.709 -1.3877 -0.2254 -0.5957
 9779TIP3   OH229281   5.906   1.026   6.715 -0.1614 -0.3342 -0.8016
 9779TIP3    H129282   5.950   1.111   6.722 -0.0923 -0.2002 -2.5413
 9779TIP3    H229283   5.977   0.962   6.724 -0.1308 -0.1921 -0.0466
 9780TIP3   OH229284   6.749   5.850   0.703 -0.2870 -0.3125 -0.2915
 9780TIP3    H129285   6.677   5.910   0.726 -0.6035 -1.0305  0.6262
 9780TIP3    H229286   6.706   5.765   0.694  0.2088 -0.4518 -1.3104
 9781TIP3   OH229287   0.948   5.727   0.721  0.0795  0.0236  0.4107
 9781TIP3    H129288   0.887   5.656   0.704  0.5913 -0.0810 -1.0600
 9781TIP3    H229289   0.893   5.805   0.724 -0.3692 -0.3156  1.1067
 9782TIP3   OH229290   7.716   5.368   0.246  0.3175 -0.3212 -0.2092
 9782TIP3    H129291   7.699   5.450   0.200  0.3164 -0.7688 -1.0176
 9782TIP3    H229292   7.788   5.328   0.198  1.2393 -0.1527  1.0103
 9783TIP3   OH229293   5.470   1.194   6.042 -0.1013  0.4895  0.2010
 9783TIP3    H129294   5.489   1.241   5.960  0.3507  0.2746  0.1810
 9783TIP3    H229295   5.552   1.149   6.063 -0.7357 -0.8340 -0.1297
 9784TIP3   OH229296   3.023   7.922   6.090  0.2078 -0.2745 -0.4385
 9784TIP3    H129297   3.106   7.951   6.128 -0.0007 -0.0897 -0.1220
 9784TIP3    H229298   3.048   7.858   6.024  0.5189 -1.2769  0.6405
 9785TIP3   OH229299   5.248   1.247   5.475 -0.7722 -0.5298 -0.6743
 9785TIP3    H129300   5.242   1.274   5.567  0.5969 -0.1132 -0.6934
 9785TIP3    H229301   5.205   1.162   5.473 -1.3376 -0.2792  0.2378
 9786TIP3   OH229302   8.048   3.016   6.428  0.5975  0.2097 -0.2890
 9786TIP3    H129303   8.124   3.045   6.377 -0.1421  0.7887 -1.0586
 9786TIP3    H229304   7.976   3.011   6.365 -0.1788  0.3607  0.5762
 9787TIP3   OH229305   3.950   5.916   6.535 -0.2896 -0.4059  0.0880
 9787TIP3    H129306   3.976   5.833   6.496  1.7091 -0.6897  1.9154
 9787TIP3    H229307   3.983   5.912   6.625 -0.1655  2.3567  0.2227
 9788TIP3   OH229308   8.359   4.612   1.220  0.4307  0.0253 -0.2629
 9788TIP3    H129309   8.351   4.707   1.232  3.7195  0.3835 -0.2696
 9788TIP3    H229310   8.308   4.574   1.291  0.9690  1.8631  1.1539
 9789TIP3   OH229311   7.167   6.112   0.439 -0.1218 -0.5865 -0.0767
 9789TIP3    H129312   7.127   6.198   0.423 -0.0680 -0.2467  1.5050
 9789TIP3    H229313   7.260   6.131   0.450 -0.0468 -0.9051 -0.1622
 9790TIP3   OH229314   7.000   2.967   0.115  0.7345 -0.4528  0.0885
 9790TIP3    H129315   6.990   2.983   0.021  0.6374 -0.9120  0.0217
 9790TIP3    H229316   6.978   3.051   0.156  1.2334 -0.1238 -0.3232
 9791TIP3   OH229317   4.548   1.001   6.525 -0.2188 -0.3313 -0.4583
 9791TIP3    H129318   4.487   1.067   6.557 -1.2375 -1.1127 -0.7562
 9791TIP3    H229319   4.501   0.918   6.534  1.7550 -1.2735  1.7852
 9792TIP3   OH229320   2.465   4.404   1.310 -0.2519 -0.0760  0.3816
 9792TIP3    H129321   2.556   4.388   1.288 -0.0983 -0.8964  1.5209
 9792TIP3    H229322   2.443   4.335   1.374 -1.9883 -0.5838 -0.7191
 9793TIP3   OH229323   8.294   3.265   0.802  0.3429  0.4374 -0.6451
 9793TIP3    H129324   8.206   3.236   0.780  0.1306 -1.5847  2.4990
 9793TIP3    H229325   8.284   3.317   0.881  1.8910  0.7110 -0.5987
 9794TIP3   OH229326   8.186   1.189   6.499 -0.2477  0.3281 -0.1265
 9794TIP3    H129327   8.192   1.278   6.464  1.8058  0.2757  0.0396
 9794TIP3    H229328   8.137   1.141   6.432  1.4381  0.8252 -1.7554
 9795TIP3   OH229329   7.778   6.014   0.692 -0.2264  0.7100  0.3754
 9795TIP3    H129330   7.839   5.950   0.657  0.3390  1.5002 -0.1073
 9795TIP3    H229331   7.713   5.962   0.739  0.7556 -0.1415  0.8041
 9796TIP3   OH229332   7.973   7.813   0.177 -0.4463  0.3466  0.0252
 9796TIP3    H129333   7.992   7.813   0.083 -0.0690 -0.6867  0.0993
 9796TIP3    H229334   7.966   7.721   0.201  0.5192  0.5632  1.2263
 9797TIP3   OH229335   5.943   0.621   4.135 -0.0857  0.7672 -0.7557
 9797TIP3    H129336   5.991   0.691   4.179  1.7633  0.6377 -2.4904
 9797TIP3    H229337   5.851   0.638   4.156  0.6287  1.3931  2.1085
 9798TIP3   OH229338   4.715   0.489   6.561  0.2438 -0.4189 -0.8439
 9798TIP3    H129339   4.735   0.578   6.589 -0.4055 -0.4218 -0.3656
 9798TIP3    H229340   4.748   0.484   6.471 -1.5057  0.9215 -1.5746
 9799TIP3   OH229341   4.863   0.248   4.842 -0.5266 -0.3587 -0.3206
 9799TIP3    H129342   4.930   0.181   4.830  0.2110  0.3807 -0.3410
 9799TIP3    H229343   4.860   0.263   4.936 -0.0862  0.2013 -0.3974
 9800TIP3   OH229344   3.243   7.034   5.518  0.6115 -0.5597  0.5047
 9800TIP3    H129345   3.217   6.983   5.595 -0.9136 -0.0859  0.3198
 9800TIP3    H229346   3.297   6.974   5.467  1.7390 -0.8541  1.9663
 9801TIP3   OH229347   3.803   0.191   6.446 -0.3384  0.1985 -0.4459
 9801TIP3    H129348   3.855   0.144   6.381  1.0048  1.2839 -0.1819
 9801TIP3    H229349   3.748   0.124   6.487  0.6555 -0.9148 -0.9241
 9802TIP3   OH229350   7.687   1.171   6.326  0.2470 -0.4323  0.2506
 9802TIP3    H129351   7.595   1.191   6.342  0.1450 -0.3564 -0.4062
 9802TIP3    H229352   7.730   1.256   6.326 -0.1089 -0.1983 -2.0622
 9803TIP3   OH229353   7.679   6.566   0.419  0.1300  0.1777 -0.2323
 9803TIP3    H129354   7.717   6.544   0.504 -1.9515 -0.8954  0.4788
 9803TIP3    H229355   7.751   6.557   0.357  1.8138  1.5020  1.4870
 9804TIP3   OH229356   6.819   3.367   1.230 -0.2670  0.1307 -0.1850
 9804TIP3    H129357   6.850   3.452   1.261  0.8959 -0.9207  1.5947
 9804TIP3    H229358   6.843   3.367   1.137 -0.1345  1.6687 -0.1773
 9805TIP3   OH229359   5.125   0.601   5.527 -0.5074  0.0573  0.7632
 9805TIP3    H129360   5.048   0.550   5.504 -0.7185  0.8206 -0.2711
 9805TIP3    H229361   5.091   0.690   5.541  0.6670  1.2878 -3.4828
 9806TIP3   OH229362   6.575   0.143   5.883 -0.3611  0.6472 -0.0486
 9806TIP3    H129363   6.507   0.154   5.950 -0.1374  1.3688  0.0692
 9806TIP3    H229364   6.596   0.050   5.885 -0.3855  0.6541  0.8628
 9807TIP3   OH229365   8.219   2.362   5.529 -0.3822 -0.5127 -0.2478
 9807TIP3    H129366   8.168   2.295   5.574 -0.6291 -0.5496 -0.5868
 9807TIP3    H229367   8.234   2.327   5.442 -0.5197 -0.1265 -0.4288
 9808TIP3   OH229368   6.230   0.259   4.895 -0.1725 -0.5484 -0.2716
 9808TIP3    H129369   6.284   0.200   4.947 -0.8121 -1.2911 -0.4365
 9808TIP3    H229370   6.234   0.224   4.806  0.9463  0.7388 -0.7514
 9809TIP3   OH229371   7.434   4.980   0.968 -0.4882 -1.1787  0.0089
 9809TIP3    H129372   7.504   4.918   0.947 -0.6961 -1.7512  0.9402
 9809TIP3    H229373   7.471   5.034   1.038 -0.8232 -1.2187  0.2172
 9810TIP3   OH229374   3.702   0.445   4.844  0.1159  0.2897 -0.2590
 9810TIP3    H129375   3.784   0.453   4.795 -0.6578 -0.0298 -1.6046
 9810TIP3    H229376   3.730   0.446   4.936  1.6506 -0.0903 -0.7043
 9811TIP3   OH229377   6.856   1.622   6.079  0.6770  0.4003  0.2101
 9811TIP3    H129378   6.810   1.706   6.067  1.4340  0.5085 -2.2749
 9811TIP3    H229379   6.876   1.593   5.990  2.7742 -1.1369  1.1419
 9812TIP3   OH229380   2.214   7.970   5.358 -0.5052  0.1077  0.6401
 9812TIP3    H129381   2.222   7.890   5.410  0.1238 -0.5857 -0.4978
 9812TIP3    H229382   2.299   8.014   5.369  0.0939 -0.6547 -0.7636
 9813TIP3   OH229383   0.503   4.133   0.906  0.1401  0.0118  0.0099
 9813TIP3    H129384   0.535   4.056   0.859 -3.3717 -0.8920 -1.0394
 9813TIP3    H229385   0.510   4.204   0.843  1.3106  0.0855  0.2258
 9814TIP3   OH229386   4.224   0.176   4.269  0.2557  0.5609  0.3473
 9814TIP3    H129387   4.149   0.117   4.260  1.0206 -0.3449 -0.2936
 9814TIP3    H229388   4.286   0.128   4.323  0.8092  0.8521 -0.0187
 9815TIP3   OH229389   6.852   1.435   6.811  0.6471 -0.3721 -0.1016
 9815TIP3    H129390   6.885   1.457   6.724 -1.4575 -0.3711 -0.9273
 9815TIP3    H229391   6.837   1.340   6.808 -0.7887 -0.1484 -0.2313
 9816TIP3   OH229392   5.524   1.253   6.632 -0.3748  0.3770 -0.2734
 9816TIP3    H129393   5.582   1.196   6.581 -0.1146  0.1894  0.2292
 9816TIP3    H229394   5.484   1.195   6.697 -0.3976  0.6946 -0.0020
 9817TIP3   OH229395   0.058   3.944   0.922  0.0821  0.0386 -0.3709
 9817TIP3    H129396   0.051   3.861   0.874  1.2684  0.4021 -1.1949
 9817TIP3    H229397   0.150   3.950   0.946 -0.5513 -0.2493  2.2013
 9818TIP3   OH229398   8.187   4.322   0.358  0.5317 -0.1428 -0.0433
 9818TIP3    H129399   8.255   4.321   0.426  1.0489 -1.0106 -0.5611
 9818TIP3    H229400   8.157   4.232   0.352 -0.3388  0.1474 -0.1551
 9819TIP3   OH229401   4.215   1.993   5.869 -0.0937  0.0351 -0.2224
 9819TIP3    H129402   4.199   1.899   5.877  1.7272 -0.3416 -0.8942
 9819TIP3    H229403   4.234   2.022   5.959  1.3019 -0.6139 -0.2984
 9820TIP3   OH229404   1.782   3.317   1.420 -0.2441  0.1539 -0.2487
 9820TIP3    H129405   1.698   3.362   1.425  0.0129  0.4218  2.2214
 9820TIP3    H229406   1.838   3.362   1.483  2.2411  0.9082 -2.8603
 9821TIP3   OH229407   4.824   2.066   4.567 -0.3683 -0.2368 -0.3738
 9821TIP3    H129408   4.829   2.020   4.483 -1.8968 -0.3639 -0.4043
 9821TIP3    H229409   4.834   1.997   4.633 -2.3280 -0.5891 -0.4238
 9822TIP3   OH229410   6.143   5.823   2.685  0.1964  0.1720  0.4027
 9822TIP3    H129411   6.094   5.885   2.739  0.5936  1.8117 -1.0621
 9822TIP3    H229412   6.220   5.872   2.656  1.6412 -1.7157  0.9677
 9823TIP3   OH229413   8.328   7.243   1.569  0.7349 -0.3587  0.5252
 9823TIP3    H129414   8.391   7.192   1.516  3.0870  2.0478  0.8914
 9823TIP3    H229415   8.271   7.284   1.505  2.6762  1.3902 -0.1403
 9824TIP3   OH229416   4.289   0.957   4.674  0.0910  0.4506  0.1899
 9824TIP3    H129417   4.302   1.052   4.678 -1.6142  0.6937 -0.0464
 9824TIP3    H229418   4.354   0.922   4.736  1.4622  1.6873 -0.5141
 9825TIP3   OH229419   7.866   5.637   0.960  0.2290  0.2808  0.0134
 9825TIP3    H129420   7.807   5.562   0.972 -1.1375  1.1441 -1.2082
 9825TIP3    H229421   7.884   5.667   1.049  0.2577 -1.0852  0.4861
 9826TIP3   OH229422   5.154   2.556   6.732  0.1263 -0.5454 -0.0028
 9826TIP3    H129423   5.154   2.593   6.644  0.0613 -1.0342 -0.2067
 9826TIP3    H229424   5.199   2.473   6.723 -2.3890 -1.9457 -0.1404
 9827TIP3   OH229425   6.601   5.364   1.402  0.1514 -0.1893  0.5202
 9827TIP3    H129426   6.532   5.299   1.396 -1.0171  1.2001 -1.9300
 9827TIP3    H229427   6.662   5.341   1.332  0.7154  0.2209  0.8732
 9828TIP3   OH229428   1.770   7.911   6.564 -0.4454  0.2671  0.4015
 9828TIP3    H129429   1.807   7.826   6.541 -1.6087 -1.0310  3.0773
 9828TIP3    H229430   1.677   7.894   6.577 -0.6301  1.8711  1.3120
 9829TIP3   OH229431   4.547   3.089   6.919  0.0508  0.1384 -0.3312
 9829TIP3    H129432   4.611   3.040   6.865  1.1607  1.8008 -0.5550
 9829TIP3    H229433   4.593   3.168   6.945 -1.7282  1.0615  0.0780
 9830TIP3   OH229434   4.063   7.942   5.237 -0.0422 -0.3852  0.1741
 9830TIP3    H129435   4.009   7.867   5.214  0.1066 -0.1935 -0.8054
 9830TIP3    H229436   4.108   7.916   5.317  0.8362 -1.7632 -0.7536
 9831TIP3   OH229437   1.295   4.485   0.957 -0.1635  0.3950  0.7560
 9831TIP3    H129438   1.338   4.440   1.030 -1.3508 -1.2248  0.4800
 9831TIP3    H229439   1.364   4.538   0.918  1.0712 -0.5664  1.5943
 9832TIP3   OH229440   5.998   7.439   0.614 -0.1331  0.0184 -0.0118
 9832TIP3    H129441   6.056   7.503   0.572  0.0185 -0.2002 -0.1335
 9832TIP3    H229442   6.045   7.356   0.609 -1.5617 -0.6783 -2.4290
 9833TIP3   OH229443   4.829   1.055   6.686 -0.1690 -0.3232  0.4674
 9833TIP3    H129444   4.755   1.024   6.634 -0.4121  0.8474  0.0824
 9833TIP3    H229445   4.793   1.069   6.773  0.0483 -1.5338  0.7561
 9834TIP3   OH229446   1.304   3.337   0.756  0.9124 -0.1898 -0.1543
 9834TIP3    H129447   1.396   3.360   0.770  1.2018 -1.7287  0.5909
 9834TIP3    H229448   1.288   3.263   0.815 -0.7718 -0.0327 -0.3709
 9835TIP3   OH229449   5.555   0.618   4.186  0.4910 -0.5139  0.1156
 9835TIP3    H129450   5.525   0.540   4.140  0.8636  0.0424 -1.0780
 9835TIP3    H229451   5.494   0.628   4.259 -0.7807 -0.7565 -0.8998
 9836TIP3   OH229452   6.428   0.752   6.416  0.1656  0.1368 -0.4259
 9836TIP3    H129453   6.379   0.834   6.414  2.1476  1.3873  0.2328
 9836TIP3    H229454   6.432   0.728   6.509 -0.9932 -1.0952 -0.6758
 9837TIP3   OH229455   7.466   2.019   5.859 -0.6333  0.2077 -0.2174
 9837TIP3    H129456   7.524   1.943   5.859 -1.6521 -0.5849  1.2090
 9837TIP3    H229457   7.502   2.075   5.929  0.4856  1.3570 -1.6670
 9838TIP3   OH229458   5.021   1.084   5.417  0.1514  0.3749 -0.3406
 9838TIP3    H129459   4.989   1.152   5.478  1.2417 -0.7063  1.4892
 9838TIP3    H229460   4.950   1.020   5.414  0.0356  0.5000 -0.3352
 9839TIP3   OH229461   5.505   0.317   6.354  0.3889 -0.6775 -0.7212
 9839TIP3    H129462   5.465   0.301   6.440 -2.3500 -0.1333 -1.8278
 9839TIP3    H229463   5.599   0.323   6.372 -0.2684  1.4301  2.5535
 9840TIP3   OH229464   0.906   4.643   1.896 -0.0672 -0.1333 -0.0485
 9840TIP3    H129465   0.868   4.730   1.884 -2.5130 -1.1263  0.1874
 9840TIP3    H229466   0.966   4.653   1.970 -0.5185  1.2848  0.1425
 9841TIP3   OH229467   1.247   5.019   2.422 -0.0715 -0.2554  0.1366
 9841TIP3    H129468   1.321   5.056   2.374 -0.3520 -1.4631 -1.2359
 9841TIP3    H229469   1.235   5.079   2.496  0.2818  1.7068 -1.3474
 9842TIP3   OH229470   0.266   3.611   2.463 -0.1683  0.2337  0.4909
 9842TIP3    H129471   0.309   3.529   2.484 -0.8693 -0.6866 -1.5421
 9842TIP3    H229472   0.174   3.587   2.451 -0.3997  1.3427  0.0281
 9843TIP3   OH229473   8.422   3.564   3.761  0.3244  0.5748 -0.5909
 9843TIP3    H129474   8.427   3.534   3.670 -0.1399 -0.0351 -0.4196
 9843TIP3    H229475   8.349   3.626   3.761  1.0407  1.4198 -0.8674
 9844TIP3   OH229476   5.471   0.059   5.005 -0.0811 -0.8397 -0.1572
 9844TIP3    H129477   5.515  -0.016   5.045 -0.4412 -0.4933  0.8832
 9844TIP3    H229478   5.397   0.077   5.062 -1.9685 -1.7949 -2.2274
 9845TIP3   OH229479   5.824   7.125   0.994  0.0772  0.2950  0.2492
 9845TIP3    H129480   5.879   7.047   0.999 -1.5415 -0.9077 -0.2883
 9845TIP3    H229481   5.863   7.186   1.056  1.3761 -0.9306  0.6600
 9846TIP3   OH229482   0.097   6.039   1.596  0.4806 -0.1817  0.2088
 9846TIP3    H129483   0.160   6.009   1.662 -1.9514 -1.8951  1.8194
 9846TIP3    H229484   0.081   5.962   1.542 -0.5283  0.1407  0.0483
 9847TIP3   OH229485   8.459   1.302   6.942 -0.1875  0.0319  0.0648
 9847TIP3    H129486   8.531   1.265   6.890 -0.3919 -1.5576  0.8721
 9847TIP3    H229487   8.397   1.229   6.952 -0.7094  0.6645  1.4953
 9848TIP3   OH229488   6.784   1.264   5.261 -0.1964  0.3847  0.5215
 9848TIP3    H129489   6.723   1.293   5.328 -0.2250  0.8144  0.3118
 9848TIP3    H229490   6.737   1.194   5.215 -0.0053 -0.2079  1.2275
 9849TIP3   OH229491   0.152   6.655   1.109  0.1971 -0.3671 -0.4142
 9849TIP3    H129492   0.079   6.594   1.123  0.9688 -1.1471  0.2679
 9849TIP3    H229493   0.131   6.700   1.028 -0.0502 -2.0240 -1.2810
 9850TIP3   OH229494   4.633   4.687   6.479 -0.2747 -0.5027 -0.0351
 9850TIP3    H129495   4.638   4.688   6.575  0.4944  1.0831 -0.0926
 9850TIP3    H229496   4.540   4.669   6.461 -0.7347  0.7173  1.0136
 9851TIP3   OH229497   1.668   5.747   1.437  0.1991  0.0438 -0.2220
 9851TIP3    H129498   1.592   5.804   1.425  0.1215  0.2985  1.3049
 9851TIP3    H229499   1.685   5.750   1.532  1.1272 -1.2775 -0.3362
 9852TIP3   OH229500   5.588   0.097   6.619 -0.8791  0.0580 -0.5202
 9852TIP3    H129501   5.565   0.004   6.614 -1.0665  0.1493 -1.3492
 9852TIP3    H229502   5.508   0.143   6.594 -0.6385  0.4371 -0.5924
 9853TIP3   OH229503   0.474   6.383   0.765  0.5978  0.0853 -0.4932
 9853TIP3    H129504   0.559   6.340   0.756  1.2174  0.6091  2.2355
 9853TIP3    H229505   0.487   6.470   0.728  1.4212  0.3509  0.3963
 9854TIP3   OH229506   7.215   1.176   6.768 -0.2908 -0.5850  0.5095
 9854TIP3    H129507   7.200   1.237   6.840  0.7958  1.0848 -0.6752
 9854TIP3    H229508   7.308   1.156   6.773 -0.0396  0.1971 -0.9528
 9855TIP3   OH229509   6.924   1.333   6.090  0.1138  0.6115 -0.0288
 9855TIP3    H129510   6.978   1.404   6.128  1.0849  0.4489 -1.0873
 9855TIP3    H229511   6.900   1.365   6.003  0.7696 -0.4583 -0.6157
 9856TIP3   OH229512   0.197   4.909   0.723 -0.5058  0.2426 -0.4424
 9856TIP3    H129513   0.233   4.838   0.669  0.5784  0.5722 -0.1467
 9856TIP3    H229514   0.238   4.897   0.809 -0.9306  0.7498 -0.1666
 9857TIP3   OH229515   7.017   3.534   6.720  0.1386  0.2348  0.3364
 9857TIP3    H129516   7.084   3.557   6.656 -0.7575  1.9409 -0.0246
 9857TIP3    H229517   7.016   3.607   6.781 -1.6331  0.4148  0.1206
 9858TIP3   OH229518   7.712   0.140   6.742 -0.3258 -0.1752 -0.3880
 9858TIP3    H129519   7.738   0.190   6.820 -0.0650 -0.5541 -0.2342
 9858TIP3    H229520   7.648   0.197   6.698  0.9509  0.8874 -0.9093
 9859TIP3   OH229521   0.584   0.990   5.738  0.3341  0.1898  0.5730
 9859TIP3    H129522   0.621   1.068   5.779 -0.7112  1.1894 -0.3396
 9859TIP3    H229523   0.502   0.974   5.785  0.9114 -0.7993  1.2438
 9860TIP3   OH229524   1.651   4.781   0.692  0.2671  0.2798 -0.1431
 9860TIP3    H129525   1.681   4.871   0.681 -0.5724  0.3734 -1.8573
 9860TIP3    H229526   1.731   4.728   0.693  0.6187  0.6280 -3.5637
 9861TIP3   OH229527   0.731   2.785   5.414  0.2577 -0.3084  0.1503
 9861TIP3    H129528   0.695   2.858   5.362 -1.5336 -2.6951 -2.0623
 9861TIP3    H229529   0.679   2.785   5.494 -1.1728 -0.4827 -0.7709
 9862TIP3   OH229530   0.378   4.368   1.103 -0.5888  0.0184  0.3415
 9862TIP3    H129531   0.426   4.291   1.135  1.4101  0.6637 -0.9885
 9862TIP3    H229532   0.341   4.339   1.020  0.2420  0.4932 -0.2045
 9863TIP3   OH229533   3.429   7.416   6.091  0.3525 -0.5540  0.2203
 9863TIP3    H129534   3.520   7.434   6.065  0.2319  0.2368  0.3606
 9863TIP3    H229535   3.429   7.322   6.112  1.1973 -0.5057  0.4598
 9864TIP3   OH229536   5.911   1.583   5.119 -0.4341 -0.2288 -0.7114
 9864TIP3    H129537   5.827   1.620   5.089 -0.4072 -1.1993 -2.0559
 9864TIP3    H229538   5.965   1.584   5.040  0.5098 -0.4795 -0.0594
 9865TIP3   OH229539   6.160   3.545   6.255 -0.5218  0.0384  0.0070
 9865TIP3    H129540   6.118   3.574   6.336  0.0195  0.1667  0.2460
 9865TIP3    H229541   6.224   3.480   6.284  0.5107  0.9574 -0.1928
 9866TIP3   OH229542   7.566   6.168   0.712 -0.1402  0.6459  0.2287
 9866TIP3    H129543   7.648   6.119   0.704 -0.8990 -0.1868 -3.0749
 9866TIP3    H229544   7.580   6.227   0.787  3.1947  0.0485  0.1315
 9867TIP3   OH229545   7.763   6.598   0.114  0.7306  0.2890  0.1497
 9867TIP3    H129546   7.843   6.650   0.121  0.2425  1.1011 -0.2061
 9867TIP3    H229547   7.702   6.654   0.066 -0.0665 -0.3019  0.4532
 9868TIP3   OH229548   8.296   7.563   3.119 -0.1459 -0.1197 -0.1579
 9868TIP3    H129549   8.205   7.589   3.104 -0.6789 -0.6965  1.9147
 9868TIP3    H229550   8.330   7.541   3.032 -1.9031  0.3501 -0.9755
 9869TIP3   OH229551   7.687   6.076   0.362  0.2459 -0.2128 -0.3823
 9869TIP3    H129552   7.702   6.000   0.418  3.5556 -0.5845 -1.6663
 9869TIP3    H229553   7.725   6.052   0.278 -0.8616  1.9506 -1.5536
 9870TIP3   OH229554   6.697   4.330   1.290  0.4500 -0.0217  0.0291
 9870TIP3    H129555   6.754   4.407   1.283 -0.5599  1.0291  2.5661
 9870TIP3    H229556   6.649   4.327   1.208  0.3176  2.2510 -0.0102
 9871TIP3   OH229557   5.405   1.184   4.333  0.3673 -0.6195 -0.6250
 9871TIP3    H129558   5.404   1.206   4.426 -0.0388 -2.9074 -0.0603
 9871TIP3    H229559   5.322   1.217   4.299  0.8596  0.9183 -0.3510
 9872TIP3   OH229560   6.777   2.358   5.872  0.1576 -0.5654 -0.3361
 9872TIP3    H129561   6.764   2.432   5.932 -0.9350  0.6083 -1.9707
 9872TIP3    H229562   6.821   2.292   5.925  1.6886  1.4751  1.0126
 9873TIP3   OH229563   8.227   3.674   6.700 -0.6868  0.0393  0.1302
 9873TIP3    H129564   8.235   3.654   6.607 -0.5758 -2.7184  0.6928
 9873TIP3    H229565   8.283   3.751   6.713 -1.2385  0.8695 -2.1908
 9874TIP3   OH229566   7.755   4.321   0.412 -0.2186 -0.4601 -0.7056
 9874TIP3    H129567   7.744   4.339   0.505  1.5751 -0.4554 -0.4674
 9874TIP3    H229568   7.824   4.255   0.409 -0.9656 -1.2073 -1.9898
 9875TIP3   OH229569   0.044   5.922   0.436 -1.0686 -0.5939 -0.4172
 9875TIP3    H129570  -0.020   5.889   0.498 -0.4967 -0.8303  0.0582
 9875TIP3    H229571   0.124   5.872   0.455 -1.4575 -2.1742 -2.7661
 9876TIP3   OH229572   5.822   3.989   0.599 -0.1184  0.6460  0.6114
 9876TIP3    H129573   5.727   4.002   0.593 -0.3463 -0.6538  1.4079
 9876TIP3    H229574   5.838   3.906   0.553  0.5273  0.4193  1.2417
 9877TIP3   OH229575   5.430   2.214   6.157  0.6892 -0.3236  0.5183
 9877TIP3    H129576   5.368   2.168   6.100  1.8031  0.4712 -1.3839
 9877TIP3    H229577   5.375   2.271   6.210 -0.3253 -0.6158 -0.1855
 9878TIP3   OH229578   6.421   1.841   5.228  0.1835 -0.4587  0.2615
 9878TIP3    H129579   6.342   1.805   5.187  1.6378 -4.1483  0.4788
 9878TIP3    H229580   6.487   1.838   5.159  1.3653 -2.0707  1.4124
 9879TIP3   OH229581   7.360   6.330   1.296  0.3417 -0.2893 -0.3599
 9879TIP3    H129582   7.423   6.365   1.359 -0.6296  0.8708 -0.0297
 9879TIP3    H229583   7.275   6.335   1.340 -0.0639 -1.4270 -0.9733
 9880TIP3   OH229584   7.158   2.948   5.088  0.6827 -0.4392 -0.0453
 9880TIP3    H129585   7.148   2.853   5.078 -0.4382 -0.1712 -1.6917
 9880TIP3    H229586   7.248   2.966   5.061  0.1843 -0.7677 -2.0357
 9881TIP3   OH229587   5.818   2.008   5.249  0.5310  0.8539 -0.0591
 9881TIP3    H129588   5.895   2.006   5.193  0.2944 -1.3817 -0.3725
 9881TIP3    H229589   5.852   2.018   5.338  1.2565 -0.8597 -0.1260
 9882TIP3   OH229590   8.102   2.119   4.847 -0.4982 -0.2835 -0.6024
 9882TIP3    H129591   8.100   2.087   4.937 -1.1247 -0.7659 -0.7850
 9882TIP3    H229592   8.114   2.213   4.855  0.4123 -0.4388 -0.0358
 9883TIP3   OH229593   7.884   0.572   6.383 -0.1058  0.1629  0.2523
 9883TIP3    H129594   7.970   0.598   6.414 -0.8880  1.4236  1.4447
 9883TIP3    H229595   7.829   0.650   6.397 -2.4214 -1.9668  3.5134
 9884TIP3   OH229596   0.402   2.718   4.415 -0.2313 -0.3739  0.3012
 9884TIP3    H129597   0.345   2.652   4.454 -0.0180 -0.2760  0.7876
 9884TIP3    H229598   0.381   2.717   4.322 -2.5989  1.1893  0.7734
 9885TIP3   OH229599   5.657   1.916   4.381 -0.0689 -0.0642 -0.2727
 9885TIP3    H129600   5.630   1.851   4.316  0.7951 -2.3771  1.5938
 9885TIP3    H229601   5.575   1.950   4.416 -0.5383  0.7215 -2.0791
 9886TIP3   OH229602   5.802   0.412   5.185  0.2540 -0.5384  0.3214
 9886TIP3    H129603   5.854   0.343   5.143  0.0028 -0.3396 -0.3321
 9886TIP3    H229604   5.864   0.458   5.242  1.5691  1.5445 -2.6195
 9887TIP3   OH229605   0.157   2.317   5.581 -0.5726 -0.3761 -0.0456
 9887TIP3    H129606   0.183   2.358   5.664 -2.8342  2.7597 -0.7687
 9887TIP3    H229607   0.084   2.260   5.604  0.1289 -1.0885  0.4210
 9888TIP3   OH229608   0.871   2.820   5.935 -0.4380  0.4410 -0.1617
 9888TIP3    H129609   0.886   2.814   6.029  0.3714 -1.4147 -0.3869
 9888TIP3    H229610   0.897   2.735   5.901 -4.9563 -0.5662 -1.4870
 9889TIP3   OH229611   1.062   5.466   1.213 -0.6058 -0.3152  0.6637
 9889TIP3    H129612   1.051   5.486   1.120  0.1779 -0.3248  0.5610
 9889TIP3    H229613   1.109   5.382   1.214  1.9395  1.0535  1.0258
 9890TIP3   OH229614   0.136   0.168   5.901 -1.2341 -0.6644  0.6268
 9890TIP3    H129615   0.078   0.102   5.864  0.3394 -0.9322 -1.4263
 9890TIP3    H229616   0.202   0.119   5.949 -0.7146 -0.5038  0.0651
 9891TIP3   OH229617   6.342   1.877   4.668 -0.1181 -0.2307  0.1335
 9891TIP3    H129618   6.279   1.811   4.640 -0.7821 -1.3995  4.0470
 9891TIP3    H229619   6.427   1.835   4.659 -0.1182  0.1667 -1.9886
 9892TIP3   OH229620   0.482   0.968   4.650 -0.2385  0.4312 -0.5508
 9892TIP3    H129621   0.578   0.960   4.648 -0.3920 -1.4215 -2.8964
 9892TIP3    H229622   0.458   0.991   4.561 -2.0486 -0.0237 -0.1965
 9893TIP3   OH229623   1.448   3.079   6.359  0.0987  0.1793 -0.5345
 9893TIP3    H129624   1.517   3.136   6.393  0.7014  0.1207 -1.6256
 9893TIP3    H229625   1.485   2.990   6.366  0.0537  0.1290 -0.9292
 9894TIP3   OH229626   0.071   0.606   5.439 -0.2132 -0.0586 -0.0331
 9894TIP3    H129627   0.149   0.620   5.492 -0.5625  0.4107  0.3691
 9894TIP3    H229628   0.084   0.521   5.398 -0.2544 -0.7595  1.3764
 9895TIP3   OH229629   8.209   3.720   6.411 -0.2094 -0.1338 -0.9023
 9895TIP3    H129630   8.130   3.748   6.365 -1.6105 -1.1621  0.8100
 9895TIP3    H229631   8.273   3.702   6.342 -1.3209  1.1339 -2.2794
 9896TIP3   OH229632   2.121   5.404   1.154 -0.2956  0.2185  0.3704
 9896TIP3    H129633   2.129   5.309   1.167 -1.3808  0.1130  0.3566
 9896TIP3    H229634   2.167   5.421   1.072  2.2172  0.1199  1.7398
 9897TIP3   OH229635   7.967   1.535   5.399  0.5705  0.3485  0.1820
 9897TIP3    H129636   7.986   1.492   5.483 -0.6647 -0.0204  0.2974
 9897TIP3    H229637   7.954   1.462   5.338 -1.7272  0.5279  0.4202
 9898TIP3   OH229638   1.408   4.147   0.065  0.1642 -0.5868 -0.0772
 9898TIP3    H129639   1.333   4.200   0.091  2.0331  0.5484  3.2087
 9898TIP3    H229640   1.440   4.188  -0.015  0.9249  2.6393  1.8242
 9899TIP3   OH229641   6.764   1.011   4.702 -0.5414 -0.2816 -0.5487
 9899TIP3    H129642   6.704   1.080   4.731  0.9696  0.3683  1.1544
 9899TIP3    H229643   6.739   0.994   4.611 -2.2812  1.0625 -0.3479
 9900TIP3   OH229644   3.829   6.679   0.026  0.3056 -0.6076  0.2655
 9900TIP3    H129645   3.843   6.647   0.115 -0.3057  0.6823  0.8404
 9900TIP3    H229646   3.742   6.720   0.029  1.8461  2.8265  0.1024
 9901TIP3   OH229647   6.430   6.203   6.642  0.4217  0.2132 -0.3321
 9901TIP3    H129648   6.406   6.292   6.617 -2.2512 -0.1880  0.6371
 9901TIP3    H229649   6.440   6.157   6.558 -0.8368  0.7836 -0.8138
 9902TIP3   OH229650   8.091   3.816   5.032  0.3975  0.1068  0.3542
 9902TIP3    H129651   8.003   3.779   5.029 -0.5396  2.1517  1.4852
 9902TIP3    H229652   8.141   3.754   5.085 -0.3759 -1.0122 -0.2086
 9903TIP3   OH229653   1.453   4.479   0.598  0.1914  0.3922 -0.4071
 9903TIP3    H129654   1.452   4.561   0.648  1.2471  0.0688  0.1559
 9903TIP3    H229655   1.546   4.462   0.583 -0.0358 -0.6442 -0.6295
 9904TIP3   OH229656   6.610   1.042   5.193 -0.1246 -0.4144 -0.4115
 9904TIP3    H129657   6.554   0.981   5.147  0.5396 -1.6641  0.4101
 9904TIP3    H229658   6.656   0.989   5.258 -0.0855  1.0830  0.8135
 9905TIP3   OH229659   6.971   1.583   3.773 -0.1566  0.5555  0.0675
 9905TIP3    H129660   6.967   1.678   3.768  0.1307  0.5592 -0.1287
 9905TIP3    H229661   6.879   1.554   3.771 -0.2033  0.7694 -1.1604
 9906TIP3   OH229662   2.048   6.672   1.090 -0.1098  0.5013 -0.3847
 9906TIP3    H129663   2.018   6.601   1.034 -1.9244  0.8143  0.1564
 9906TIP3    H229664   2.097   6.730   1.031 -0.8932  0.1613 -1.3788
 9907TIP3   OH229665   0.587   1.392   6.236 -0.5261 -0.4309  0.1432
 9907TIP3    H129666   0.508   1.338   6.236  0.1140 -1.3797  1.0274
 9907TIP3    H229667   0.576   1.450   6.161 -2.0615 -0.5581  0.2536
 9908TIP3   OH229668   0.964   0.589   6.612  0.0721 -0.3868 -0.1455
 9908TIP3    H129669   0.978   0.551   6.699 -0.6186 -0.1860  0.0592
 9908TIP3    H229670   1.040   0.646   6.598  0.2460 -0.5118  0.2780
 9909TIP3   OH229671   8.478   2.989   5.605  0.4616 -0.1908 -0.1159
 9909TIP3    H129672   8.537   3.060   5.633 -1.8251  0.8654  2.3140
 9909TIP3    H229673   8.442   3.019   5.522  0.5151  0.9452  0.2531
 9910TIP3   OH229674   1.212   6.391   0.490 -0.6685  0.3729 -0.4982
 9910TIP3    H129675   1.219   6.447   0.567 -0.6578 -1.6434  0.9886
 9910TIP3    H229676   1.138   6.428   0.441 -1.7767  0.6741  1.3426
 9911TIP3   OH229677   7.127   1.034   5.936  0.5678  0.1015 -0.4748
 9911TIP3    H129678   7.107   0.949   5.896  0.4657  0.3803 -1.0154
 9911TIP3    H229679   7.147   1.091   5.862  0.6938  0.5371 -0.1054
 9912TIP3   OH229680   7.676   2.533   6.385 -0.2787  0.3945 -0.0117
 9912TIP3    H129681   7.730   2.475   6.439 -1.0254 -0.1103  0.2004
 9912TIP3    H229682   7.738   2.596   6.348  0.5805 -0.7369 -0.5138
 9913TIP3   OH229683   8.177   0.341   6.309 -0.3801  0.4774  0.8492
 9913TIP3    H129684   8.148   0.260   6.350 -0.1582  0.0689  0.2012
 9913TIP3    H229685   8.272   0.331   6.300 -0.1296  1.4618  2.1999
 9914TIP3   OH229686   8.220   1.985   5.614  0.2123  0.7882  0.6245
 9914TIP3    H129687   8.143   1.928   5.615 -0.7638  1.9910 -1.2915
 9914TIP3    H229688   8.196   2.060   5.668  0.3999  0.7093  0.8163
 9915TIP3   OH229689   2.044   3.848   1.597  0.0052 -0.1595 -0.2716
 9915TIP3    H129690   2.123   3.838   1.650 -0.8916  0.5290  1.2207
 9915TIP3    H229691   2.072   3.899   1.521  0.5503  1.8907  1.2864
 9916TIP3   OH229692   8.091   2.428   4.325  0.1710  0.0731  0.2939
 9916TIP3    H129693   8.077   2.516   4.290 -0.5611 -0.6967 -1.3596
 9916TIP3    H229694   8.019   2.415   4.386 -0.2024  0.2932 -0.0962
 9917TIP3   OH229695   6.290   7.805   6.683 -0.4954 -0.1005 -0.1937
 9917TIP3    H129696   6.212   7.788   6.735 -0.8066  0.2978 -0.5163
 9917TIP3    H229697   6.271   7.766   6.598  0.4447 -1.6710  0.3151
 9918TIP3   OH229698   8.118   0.785   5.181  0.0274 -0.0633  0.1950
 9918TIP3    H129699   8.154   0.739   5.257 -0.7394  0.0567  0.6383
 9918TIP3    H229700   8.059   0.850   5.218 -0.5866 -0.2090 -0.5185
 9919TIP3   OH229701   7.969   2.730   5.034 -0.1485  1.2370  0.1972
 9919TIP3    H129702   7.998   2.809   4.989 -0.4849  0.8897 -0.6545
 9919TIP3    H229703   7.902   2.693   4.976  0.6621 -0.1593  0.1282
 9920TIP3   OH229704   0.072   5.552   0.607 -0.4072 -0.0429  0.1254
 9920TIP3    H129705   0.037   5.470   0.641  0.9604 -1.0224 -0.7405
 9920TIP3    H229706   0.156   5.562   0.652  0.2853 -0.0972 -1.1005
 9921TIP3   OH229707   1.544   7.617   0.763  0.6139  0.1538  0.6977
 9921TIP3    H129708   1.562   7.583   0.850  3.3891 -0.4519 -0.0331
 9921TIP3    H229709   1.557   7.712   0.771 -2.4106  0.5171  1.6569
 9922TIP3   OH229710   1.845   2.683   6.386 -0.3999  0.8414 -0.1028
 9922TIP3    H129711   1.836   2.597   6.347 -0.8618  0.5609  0.6142
 9922TIP3    H229712   1.773   2.689   6.448  1.1486  0.7102  1.7533
 9923TIP3   OH229713   8.009   2.557   6.085  0.7560  0.0506  0.1863
 9923TIP3    H129714   8.043   2.619   6.021  0.9125  0.8286  1.0271
 9923TIP3    H229715   7.920   2.588   6.104 -0.2254 -1.5973 -1.5052
 9924TIP3   OH229716   7.687   4.034   5.625  0.8566  0.5439 -0.2724
 9924TIP3    H129717   7.602   4.051   5.586  0.9155  1.6746  0.0821
 9924TIP3    H229718   7.714   3.950   5.588 -0.8331 -0.2852  0.3257
 9925TIP3   OH229719   6.759   2.809   4.643 -0.2389 -0.2407  0.4826
 9925TIP3    H129720   6.851   2.796   4.618 -0.1142 -1.7329  1.6482
 9925TIP3    H229721   6.748   2.904   4.644  1.5470 -0.0125  1.1906
 9926TIP3   OH229722   7.160   3.309   5.718  0.3670 -0.2381  0.2827
 9926TIP3    H129723   7.193   3.395   5.741 -1.5093  0.8987 -1.1652
 9926TIP3    H229724   7.135   3.316   5.626  0.5564 -2.4550  0.0113
 9927TIP3   OH229725   5.569   3.367   4.336  0.3743  0.5820 -0.5251
 9927TIP3    H129726   5.576   3.390   4.244  2.2445  1.5249 -0.1671
 9927TIP3    H229727   5.630   3.426   4.381  1.6477 -1.8015  0.9763
 9928TIP3   OH229728   1.447   5.228   0.701 -0.2150  0.2982  0.1247
 9928TIP3    H129729   1.499   5.303   0.730 -0.8714  1.6313 -2.0207
 9928TIP3    H229730   1.358   5.248   0.729 -0.5642  0.8176 -1.3262
 9929TIP3   OH229731   7.877   0.970   3.146  0.3050 -0.0538  0.6486
 9929TIP3    H129732   7.842   1.053   3.114  1.2172  0.2660  0.4620
 9929TIP3    H229733   7.970   0.971   3.121  0.6559 -0.5137  1.8687
 9930TIP3   OH229734   1.478   3.769   0.788  0.2792 -0.0470 -0.1658
 9930TIP3    H129735   1.519   3.708   0.849  1.4201  1.0558  0.1930
 9930TIP3    H229736   1.551   3.808   0.740 -0.3098  2.0475  0.5780
 9931TIP3   OH229737   7.572   1.071   4.972 -0.2012  0.4464 -0.2042
 9931TIP3    H129738   7.635   1.004   4.996  1.6909  2.8927  1.9238
 9931TIP3    H229739   7.487   1.036   4.999  0.7473 -1.0900  0.8081
 9932TIP3   OH229740   6.956   0.380   0.836 -0.0338 -0.1183 -0.5163
 9932TIP3    H129741   7.001   0.311   0.885 -0.7026  1.2269  2.0580
 9932TIP3    H229742   6.871   0.342   0.815  0.3010 -0.7518 -0.7448
 9933TIP3   OH229743   7.638   1.215   4.529 -0.0432 -0.3436  0.3336
 9933TIP3    H129744   7.546   1.196   4.511 -0.4271  0.1397  1.7223
 9933TIP3    H229745   7.643   1.224   4.624  1.5437 -0.8692  0.3144
 9934TIP3   OH229746   2.417   4.834   1.791 -0.1455 -0.8866  0.1460
 9934TIP3    H129747   2.462   4.830   1.707  0.2438  2.6424  0.1140
 9934TIP3    H229748   2.324   4.825   1.768  0.0697 -1.6224 -0.4628
 9935TIP3   OH229749   6.189   0.497   5.893  0.4405 -0.2234  0.0654
 9935TIP3    H129750   6.247   0.520   5.966 -0.2361  0.9563  0.2345
 9935TIP3    H229751   6.101   0.509   5.928  0.0974 -0.9924 -0.5237
 9936TIP3   OH229752   0.279   0.200   5.590 -0.0210 -0.2834 -0.5043
 9936TIP3    H129753   0.248   0.167   5.506  3.0609  0.8121 -2.1640
 9936TIP3    H229754   0.237   0.144   5.655 -3.7405 -0.1404 -2.6395
 9937TIP3   OH229755   7.628   0.159   6.044  0.0093  0.2379  0.0191
 9937TIP3    H129756   7.585   0.221   6.103  0.1106  1.3054 -1.0094
 9937TIP3    H229757   7.719   0.190   6.039  0.7540 -1.5802  1.6158
 9938TIP3   OH229758   4.147   7.326   5.803  0.3341 -0.2267 -0.2974
 9938TIP3    H129759   4.208   7.348   5.733  0.4912 -1.0289 -0.4140
 9938TIP3    H229760   4.199   7.333   5.884 -0.0796  1.6085 -0.1586
 9939TIP3   OH229761   0.545   0.334   5.057  0.5379  0.1364  0.5193
 9939TIP3    H129762   0.608   0.323   5.129  2.6027 -1.8509 -1.4708
 9939TIP3    H229763   0.553   0.426   5.032  3.2351 -0.2057 -0.1077
 9940TIP3   OH229764   1.005   5.698   2.261  0.0886  0.4419  0.3436
 9940TIP3    H129765   1.018   5.772   2.203 -0.5776  0.5692  0.3455
 9940TIP3    H229766   1.086   5.691   2.311  0.5214  0.5617 -0.3368
 9941TIP3   OH229767   5.384   1.774   5.505  0.1784 -0.3205  0.0582
 9941TIP3    H129768   5.328   1.824   5.563 -0.4396 -0.1350 -0.6846
 9941TIP3    H229769   5.330   1.759   5.427  0.6303 -1.4658 -0.0399
 9942TIP3   OH229770   0.508   0.987   6.699  0.2284 -0.1246 -0.2611
 9942TIP3    H129771   0.588   0.954   6.659 -0.5621 -0.2389 -1.7841
 9942TIP3    H229772   0.531   1.075   6.729  1.2296 -0.5752  0.2994
 9943TIP3   OH229773   1.451   5.049   1.892  0.0805 -0.2546  0.0664
 9943TIP3    H129774   1.391   4.984   1.855  0.4816 -0.2587 -0.5979
 9943TIP3    H229775   1.514   5.065   1.821 -0.6690  1.6837 -0.1743
 9944TIP3   OH229776   0.371   1.234   6.273  0.1007  0.0484  0.1614
 9944TIP3    H129777   0.424   1.166   6.313 -0.2433 -0.9068 -0.9809
 9944TIP3    H229778   0.287   1.231   6.319  0.7844  1.1210  1.5221
 9945TIP3   OH229779   1.335   1.217   5.714 -0.3645 -0.2367  0.2924
 9945TIP3    H129780   1.265   1.276   5.685 -0.3720  0.5173  1.7659
 9945TIP3    H229781   1.416   1.258   5.683 -0.4330  0.1058  0.5595
 9946TIP3   OH229782   5.415   7.726   6.267 -0.2063 -0.3130 -0.2362
 9946TIP3    H129783   5.387   7.768   6.348  0.2513  0.2949 -0.3839
 9946TIP3    H229784   5.390   7.789   6.198 -1.4227 -1.2313 -0.6468
 9947TIP3   OH229785   6.508   1.141   6.531 -0.3555  0.0684  0.2266
 9947TIP3    H129786   6.568   1.076   6.567 -0.7314 -0.5212 -0.2129
 9947TIP3    H229787   6.542   1.162   6.445 -0.9118 -0.4435 -0.1206
 9948TIP3   OH229788   3.346   1.418   0.332  0.0406 -0.0537  0.0385
 9948TIP3    H129789   3.388   1.472   0.399 -0.2943  1.1295 -0.6939
 9948TIP3    H229790   3.387   1.332   0.342  2.2973  0.9239 -0.3268
 9949TIP3   OH229791   7.017   0.053   5.510 -0.5929  0.0093 -0.2939
 9949TIP3    H129792   7.017   0.140   5.471 -2.5917  0.9658  1.7366
 9949TIP3    H229793   7.110   0.036   5.529 -0.0537  1.1771 -1.7572
 9950TIP3   OH229794   8.330   2.911   5.810 -0.4588  0.2615  0.1850
 9950TIP3    H129795   8.374   2.918   5.725  0.0078  1.9949  0.5423
 9950TIP3    H229796   8.391   2.952   5.872  0.3586 -3.2526  1.8222
 9951TIP3   OH229797   6.075   2.386   6.288  0.2374  0.2257 -0.2302
 9951TIP3    H129798   6.050   2.330   6.361 -0.5654  0.8088 -0.0481
 9951TIP3    H229799   6.130   2.454   6.327 -0.0211  0.4191 -0.2027
 9952TIP3   OH229800   7.434   1.210   6.372 -0.1364  0.0417 -0.2764
 9952TIP3    H129801   7.342   1.213   6.346  0.3386 -2.6057 -2.5810
 9952TIP3    H229802   7.436   1.148   6.445 -0.2321  0.2594 -0.0916
 9953TIP3   OH229803   0.537   2.344   5.286  0.1241 -0.2183 -0.2836
 9953TIP3    H129804   0.545   2.279   5.215 -0.4094  1.2468 -1.7112
 9953TIP3    H229805   0.527   2.291   5.365 -1.2741 -1.8956 -1.5335
 9954TIP3   OH229806   6.056   1.852   6.619  0.4370 -0.4173  0.0397
 9954TIP3    H129807   6.008   1.894   6.547  0.2133 -0.8219 -0.0494
 9954TIP3    H229808   6.147   1.881   6.607 -0.1476  2.0852  1.4746
 9955TIP3   OH229809   0.616   3.074   6.650 -0.2786  0.7089  0.2468
 9955TIP3    H129810   0.605   2.986   6.614  1.6782  0.4014  0.3452
 9955TIP3    H229811   0.625   3.131   6.573  0.6318  0.5004  0.1864
 9956TIP3   OH229812   0.284   2.296   6.072  0.1276  0.0633  0.2033
 9956TIP3    H129813   0.339   2.362   6.114  0.8778 -0.1233 -0.4913
 9956TIP3    H229814   0.197   2.336   6.069  0.0894  0.1238  1.8352
 9957TIP3   OH229815   8.038   2.731   4.608  0.2603  0.0977 -0.4795
 9957TIP3    H129816   8.052   2.636   4.606 -0.2209  0.0209 -0.2628
 9957TIP3    H229817   8.117   2.765   4.651 -0.2864 -0.3531  0.9020
 9958TIP3   OH229818   8.074   1.630   4.594 -0.1875 -0.3634 -0.2123
 9958TIP3    H129819   7.996   1.591   4.553  0.9773 -0.2085 -2.6404
 9958TIP3    H229820   8.051   1.723   4.604 -0.1077 -0.1954 -1.4859
 9959TIP3   OH229821   1.411   6.664   0.750  0.3854 -0.1705  0.3419
 9959TIP3    H129822   1.349   6.731   0.780 -1.0351 -0.6439 -1.4889
 9959TIP3    H229823   1.469   6.710   0.690 -3.0543 -1.3299 -4.0795
 9960TIP3   OH229824   0.784   5.951   1.033  0.1802  0.2661  0.1357
 9960TIP3    H129825   0.821   6.038   1.019 -0.8648  0.5960 -0.6921
 9960TIP3    H229826   0.692   5.960   1.008  0.1567 -1.1736 -0.3577
 9961TIP3   OH229827   8.460   3.301   4.168  0.3337  0.4100 -0.1398
 9961TIP3    H129828   8.471   3.217   4.124 -0.2997 -0.3375  1.1074
 9961TIP3    H229829   8.434   3.361   4.098  0.2906 -0.5424 -0.9511
 9962TIP3   OH229830   1.105   5.204   0.186 -0.5111 -0.0100  0.0254
 9962TIP3    H129831   1.060   5.128   0.224  2.4674 -1.6992  0.3304
 9962TIP3    H229832   1.060   5.279   0.223 -1.6573 -1.6262  2.0518
 9963TIP3   OH229833   5.570   2.587   5.741 -0.0239 -0.2566  1.3078
 9963TIP3    H129834   5.594   2.519   5.678 -2.0527 -0.3431  0.5866
 9963TIP3    H229835   5.588   2.548   5.827 -2.4956 -2.3035  0.9669
 9964TIP3   OH229836   3.175   7.160   0.365 -0.6632  0.1937  0.5293
 9964TIP3    H129837   3.127   7.077   0.363 -1.7313  0.8246 -1.5903
 9964TIP3    H229838   3.131   7.212   0.433 -1.4702 -0.1314  0.2598
 9965TIP3   OH229839   8.428   4.517   5.323  0.1960  0.3504 -0.2189
 9965TIP3    H129840   8.403   4.448   5.384 -0.2434  1.2609  0.6515
 9965TIP3    H229841   8.352   4.574   5.319  0.3254  0.4432 -1.4164
 9966TIP3   OH229842   7.033   3.124   5.876 -0.2769  0.6981 -0.1985
 9966TIP3    H129843   6.960   3.186   5.883 -1.6950 -0.9273 -0.1412
 9966TIP3    H229844   7.090   3.162   5.809 -1.0418  2.1248 -0.0729
 9967TIP3   OH229845   8.206   3.341   6.102  0.3390 -0.1551 -0.2776
 9967TIP3    H129846   8.287   3.323   6.150  0.4694  0.1319 -0.3873
 9967TIP3    H229847   8.184   3.431   6.125 -0.2185 -0.3995  0.1406
 9968TIP3   OH229848   7.536   3.042   5.700  0.4232  0.1946 -0.9094
 9968TIP3    H129849   7.486   2.991   5.636  0.1194 -0.8458  0.1321
 9968TIP3    H229850   7.586   3.104   5.648  1.0126 -1.3584 -2.2380
 9969TIP3   OH229851   4.209   6.666   6.245  0.0514  0.0575  0.1063
 9969TIP3    H129852   4.135   6.726   6.237  0.6359  0.6970 -0.7512
 9969TIP3    H229853   4.177   6.583   6.210 -0.7178 -0.0812  1.1497
 9970TIP3   OH229854   4.345   7.972   5.932 -0.2730 -1.0261  0.0863
 9970TIP3    H129855   4.316   8.043   5.989 -0.3944  0.1295 -1.3712
 9970TIP3    H229856   4.414   8.012   5.878 -0.1514 -2.0923 -0.5641
 9971TIP3   OH229857   1.804   6.526   0.357  0.3971 -1.0450  0.3858
 9971TIP3    H129858   1.817   6.545   0.264  1.2946  0.8002  0.8583
 9971TIP3    H229859   1.825   6.609   0.402 -1.1594 -1.5438  2.1405
 9972TIP3   OH229860   0.408   1.749   5.815  0.0571 -0.6811 -0.1572
 9972TIP3    H129861   0.345   1.681   5.838 -1.1569  0.3500 -0.3791
 9972TIP3    H229862   0.384   1.776   5.727  0.8937 -0.3771 -0.2938
 9973TIP3   OH229863   7.352   1.868   5.333  0.3108  0.6044  0.1524
 9973TIP3    H129864   7.350   1.882   5.427  0.2796 -0.2230  0.2759
 9973TIP3    H229865   7.406   1.940   5.299 -0.0557  1.1616  0.7459
 9974TIP3   OH229866   0.241   1.432   4.405 -0.0849  0.5426 -0.0505
 9974TIP3    H129867   0.267   1.341   4.420  0.8867  0.7611 -0.4002
 9974TIP3    H229868   0.145   1.429   4.405 -0.0895 -0.2162  1.5430
 9975TIP3   OH229869   7.716   1.384   5.118  0.1875 -0.2245 -0.3015
 9975TIP3    H129870   7.659   1.379   5.194 -1.8247 -1.4878 -1.8475
 9975TIP3    H229871   7.798   1.344   5.146  0.3377  1.5697  1.9270
 9976TIP3   OH229872   8.058   0.925   5.425  0.8627 -0.0933 -0.1130
 9976TIP3    H129873   8.102   1.009   5.418  0.4370  0.0802 -0.8178
 9976TIP3    H229874   8.053   0.908   5.519 -0.2762  1.3082  0.0880
 9977TIP3   OH229875   8.076   1.537   4.974 -0.3849 -0.1429  0.0046
 9977TIP3    H129876   8.025   1.467   4.933 -0.2080 -0.5275  0.4336
 9977TIP3    H229877   8.154   1.545   4.920 -0.4757 -0.1766 -0.1311
 9978TIP3   OH229878   8.224   3.614   5.359  0.3391  0.0643 -0.0800
 9978TIP3    H129879   8.186   3.701   5.370 -0.3026 -0.0988 -0.9757
 9978TIP3    H229880   8.278   3.601   5.438  0.0599  1.0683  0.2821
 9979TIP3   OH229881   6.705   0.600   6.568 -0.4745  0.0804 -0.2147
 9979TIP3    H129882   6.719   0.540   6.495 -0.8898  0.3538 -0.5238
 9979TIP3    H229883   6.775   0.666   6.559  0.6409 -0.9387  0.7510
 9980TIP3   OH229884   1.418   5.930   2.024 -0.9980  0.7845  0.5086
 9980TIP3    H129885   1.369   5.993   1.972 -0.4605  1.3657  0.6925
 9980TIP3    H229886   1.351   5.883   2.074 -1.4393  0.8713  0.0018
 9981TIP3   OH229887   7.985   0.372   6.557 -0.3794  0.2899 -0.1648
 9981TIP3    H129888   7.986   0.438   6.488  0.9555  3.0802  2.3542
 9981TIP3    H229889   8.076   0.366   6.586 -0.8023 -1.2439  0.9443
 9982TIP3   OH229890   5.435   0.043   4.732 -0.1647 -0.4306 -0.7391
 9982TIP3    H129891   5.455   0.050   4.826 -3.5632 -2.5215  0.2224
 9982TIP3    H229892   5.391   0.125   4.710 -0.3861 -0.4072 -0.2201
 9983TIP3   OH229893   6.528   7.023   6.332 -0.5303 -0.3683 -0.6853
 9983TIP3    H129894   6.531   6.943   6.279 -1.9581 -0.7436 -0.2287
 9983TIP3    H229895   6.554   6.994   6.420  2.1284  0.3092 -1.2117
 9984TIP3   OH229896   2.612   4.364   5.868  0.2627 -0.2885  0.0747
 9984TIP3    H129897   2.685   4.342   5.925 -0.6769  1.1489  1.8781
 9984TIP3    H229898   2.536   4.325   5.911 -0.2287 -0.6498 -1.0980
 9985TIP3   OH229899   2.870   6.294   0.866 -0.1342 -0.7657 -0.5980
 9985TIP3    H129900   2.884   6.314   0.773  0.6297  0.9164 -0.1313
 9985TIP3    H229901   2.822   6.370   0.899  0.3828 -0.9568  0.5903
 9986TIP3   OH229902   0.904   0.498   6.860  0.3486  0.6419 -0.0368
 9986TIP3    H129903   0.893   0.507   6.955  0.2452  1.8806 -0.1562
 9986TIP3    H229904   0.819   0.470   6.828 -0.1955  2.1992  0.0070
 9987TIP3   OH229905   2.037   6.050   1.321 -0.5644  0.0868  0.1164
 9987TIP3    H129906   2.067   6.043   1.230 -0.8186 -0.1059  0.0467
 9987TIP3    H229907   1.954   6.097   1.316 -0.7027 -0.1447  0.2235
 9988TIP3   OH229908   8.146   1.351   6.722  0.1564  0.1189 -0.0196
 9988TIP3    H129909   8.238   1.367   6.701  0.3727 -1.5656 -0.3927
 9988TIP3    H229910   8.123   1.272   6.674 -1.8815  1.2474 -0.9997
 9989TIP3   OH229911   5.123   7.975   6.348 -0.7909  0.8442  0.1352
 9989TIP3    H129912   5.209   7.993   6.388 -0.7955  1.0060  0.0721
 9989TIP3    H229913   5.117   7.880   6.347 -0.0738  0.8015 -0.9993
 9990TIP3   OH229914   4.275   6.145   0.097  0.2708 -0.2241  0.2518
 9990TIP3    H129915   4.362   6.145   0.056 -0.0148 -0.7549 -0.3567
 9990TIP3    H229916   4.263   6.235   0.126  0.3047  0.2707 -1.2073
 9991TIP3   OH229917   7.213   1.242   5.770 -0.0136  0.4084  0.7816
 9991TIP3    H129918   7.216   1.318   5.828 -0.9076  1.2175 -0.1965
 9991TIP3    H229919   7.199   1.280   5.683  0.8440 -0.8105  0.1015
 9992TIP3   OH229920   6.281   7.552   6.322  0.3525 -0.3330 -0.0156
 9992TIP3    H129921   6.355   7.497   6.347  0.4404 -0.1186  0.2037
 9992TIP3    H229922   6.204   7.503   6.350  0.4583  0.0191  0.9225
 9993TIP3   OH229923   6.646   2.712   3.836  0.0902 -0.7763 -0.9112
 9993TIP3    H129924   6.705   2.786   3.849 -0.2994 -0.5246 -0.5364
 9993TIP3    H229925   6.566   2.752   3.800 -0.3551 -0.9298 -0.0959
 9994TIP3   OH229926   2.496   1.453   6.165 -0.3683 -0.6931 -0.3327
 9994TIP3    H129927   2.422   1.424   6.217 -1.4188  1.6144 -0.4678
 9994TIP3    H229928   2.458   1.478   6.081  0.6750 -0.2302 -0.6811
 9995TIP3   OH229929   0.296   0.540   6.010 -0.0734  0.4684 -0.2495
 9995TIP3    H129930   0.378   0.519   5.964 -0.2322  0.0599 -0.3435
 9995TIP3    H229931   0.228   0.532   5.943 -0.3284 -0.3172  0.0963
 9996TIP3   OH229932   7.419   0.857   5.222  0.6319 -0.5071  0.1202
 9996TIP3    H129933   7.332   0.871   5.185  1.3079  2.3886 -0.4622
 9996TIP3    H229934   7.404   0.804   5.300 -1.8206  1.3914  0.9731
 9997TIP3   OH229935   2.627   7.374   6.880  0.1943 -0.1443  0.4217
 9997TIP3    H129936   2.579   7.292   6.866  0.5122 -0.1543 -0.6900
 9997TIP3    H229937   2.707   7.348   6.924 -0.4603 -0.2271  1.5733
 9998TIP3   OH229938   7.455   2.739   4.760 -0.3995 -0.2540 -0.1815
 9998TIP3    H129939   7.513   2.680   4.809  0.0012  0.1695 -0.1444
 9998TIP3    H229940   7.446   2.696   4.674  1.6546  0.6999 -0.9240
 9999TIP3   OH229941   6.356   0.389   3.767 -0.5814 -0.2705  0.4528
 9999TIP3    H129942   6.376   0.391   3.860  0.7374  0.3508  0.1654
 9999TIP3    H229943   6.408   0.316   3.732  0.3593  0.6466 -0.1002
10000TIP3   OH229944   0.663   2.512   5.886  0.5996 -0.1152 -0.0384
10000TIP3    H129945   0.653   2.432   5.937  3.2565 -1.1186 -0.9987
10000TIP3    H229946   0.706   2.573   5.946  2.8897 -0.9978 -0.7224
10001TIP3   OH229947   4.264   7.415   4.893  0.0336 -0.2842 -0.3011
10001TIP3    H129948   4.318   7.493   4.883  0.4786 -0.6913 -1.1090
10001TIP3    H229949   4.219   7.428   4.976  0.9882  0.2872  0.1341
10002TIP3   OH229950   1.130   2.710   5.859 -0.7662 -0.1785  0.3035
10002TIP3    H129951   1.186   2.633   5.869  0.2355  0.3225 -1.1290
10002TIP3    H229952   1.159   2.769   5.928 -0.3783 -0.4386  0.3692
10003TIP3   OH229953   1.693   0.325   4.500 -0.0174  0.1179  0.0137
10003TIP3    H129954   1.628   0.369   4.555 -0.5487  0.4868 -0.9081
10003TIP3    H229955   1.718   0.390   4.435  0.4956 -0.3668 -0.2815
10004TIP3   OH229956   1.415   3.454   5.718 -0.4143  0.4178  0.2431
10004TIP3    H129957   1.485   3.468   5.782  0.1940  0.6714 -0.4696
10004TIP3    H229958   1.434   3.368   5.680  2.5206  2.6196 -3.6298
10005TIP3   OH229959   2.169   3.010   5.681  0.4391 -0.1372  0.0326
10005TIP3    H129960   2.230   2.939   5.662  1.0358  0.1302  0.9171
10005TIP3    H229961   2.224   3.088   5.691 -0.1340  0.2936 -0.1414
10006TIP3   OH229962   0.290   1.937   4.212 -0.2505  0.0061 -0.5882
10006TIP3    H129963   0.289   2.018   4.160 -0.6666  0.3830  0.0080
10006TIP3    H229964   0.206   1.896   4.194 -0.7381  0.5500  0.4327
10007TIP3   OH229965   1.992   1.275   6.568 -0.4458  0.3949 -0.5524
10007TIP3    H129966   2.050   1.235   6.504  0.0156 -0.2851  0.2780
10007TIP3    H229967   2.023   1.242   6.653 -0.1203  2.4286  0.1484
10008TIP3   OH229968   1.846   1.151   6.087  0.0320  0.1384  0.0392
10008TIP3    H129969   1.926   1.200   6.072 -0.4686  0.8363 -0.3476
10008TIP3    H229970   1.866   1.062   6.056  0.9595  0.0641  0.8281
10009TIP3   OH229971   2.552   2.253   4.751  0.6272 -0.0684 -0.7661
10009TIP3    H129972   2.522   2.162   4.755 -2.4255  0.8406 -1.6448
10009TIP3    H229973   2.634   2.249   4.701  0.0047 -2.2076 -1.6736
10010TIP3   OH229974   5.699   7.467   6.223  0.7772  0.4540 -0.1134
10010TIP3    H129975   5.759   7.421   6.164  0.4647 -0.1436  0.0214
10010TIP3    H229976   5.695   7.556   6.190  3.0226  0.9530  0.8487
10011TIP3   OH229977   6.834   0.261   5.914  0.3165  0.1490 -0.4547
10011TIP3    H129978   6.752   0.221   5.886 -0.0502  0.2775  0.3970
10011TIP3    H229979   6.898   0.236   5.848 -0.8435  1.6663 -2.1912
10012TIP3   OH229980   8.490   0.949   6.793  0.2179  0.0911  0.2590
10012TIP3    H129981   8.529   0.869   6.758  2.0488  0.5868  1.0743
10012TIP3    H229982   8.423   0.973   6.730  1.6624 -0.4764 -1.5420
10013TIP3   OH229983   5.308   7.874   4.673  0.8614  0.1451  0.1328
10013TIP3    H129984   5.350   7.921   4.745  1.1120 -0.0229  0.0950
10013TIP3    H229985   5.361   7.896   4.596  1.5271 -0.9495  0.2774
10014TIP3   OH229986   7.541   0.952   3.686  0.3263  0.1134 -0.1460
10014TIP3    H129987   7.547   0.892   3.612 -0.4802  0.7412 -0.7359
10014TIP3    H229988   7.501   0.899   3.756 -1.1213  0.1568 -0.9047
10015TIP3   OH229989   1.475   5.534   0.167  0.0169  0.0517  0.6249
10015TIP3    H129990   1.523   5.567   0.091 -3.2456  1.6894 -0.8362
10015TIP3    H229991   1.542   5.520   0.234  2.7259  0.3756 -1.9333
10016TIP3   OH229992   0.402   5.409   6.176  0.2308 -0.4019 -0.0426
10016TIP3    H129993   0.373   5.414   6.085 -0.5661  0.2257  0.2372
10016TIP3    H229994   0.338   5.353   6.220 -0.0512  0.2456  0.3806
10017TIP3   OH229995   7.607   1.664   5.222 -0.3014  0.1643 -0.2823
10017TIP3    H129996   7.554   1.670   5.301  0.0653 -0.2715 -0.0036
10017TIP3    H229997   7.652   1.580   5.229  0.2249  0.4104 -0.6442
10018TIP3   OH229998   7.883   2.882   6.036 -0.3110 -0.2578 -0.0752
10018TIP3    H129999   7.964   2.924   6.006 -1.3918  1.7273 -0.3003
10018TIP3    H230000   7.826   2.882   5.959 -1.9231  1.9099  1.0655
10019TIP3   OH230001   5.311   7.806   6.506  0.1400 -0.4555  0.0488
10019TIP3    H130002   5.373   7.762   6.564  0.7104  2.4821  1.7455
10019TIP3    H230003   5.249   7.849   6.564  0.0503  1.6227 -1.5026
10020TIP3   OH230004   0.922   5.219   3.378  0.1971  0.3638 -0.4751
10020TIP3    H130005   0.895   5.307   3.405 -2.4715 -0.6268  0.2670
10020TIP3    H230006   0.926   5.170   3.460 -0.8094 -0.8206 -1.1111
10021TIP3   OH230007   3.378   6.125   0.523 -0.3499 -0.3905 -0.0834
10021TIP3    H130008   3.466   6.147   0.494 -0.0579  0.0063  1.0558
10021TIP3    H230009   3.381   6.138   0.618 -1.9841  0.8735 -0.1755
10022TIP3   OH230010   8.363   4.432   6.427 -0.0467 -0.1139  0.1145
10022TIP3    H130011   8.276   4.428   6.465 -0.2764 -0.8266 -0.4876
10022TIP3    H230012   8.385   4.525   6.427 -1.3171  0.1913 -0.9195
10023TIP3   OH230013   1.033   4.848   5.501  0.1599 -0.3513  0.3641
10023TIP3    H130014   1.070   4.911   5.439 -0.9180  0.7900  0.8612
10023TIP3    H230015   0.962   4.806   5.452 -0.0032 -0.1991  0.4663
10024TIP3   OH230016   8.342   3.391   4.587  0.2846  0.8625  0.2381
10024TIP3    H130017   8.398   3.452   4.538  0.4336 -0.8303 -1.7697
10024TIP3    H230018   8.363   3.306   4.549 -1.0669 -0.2306  1.9475
10025TIP3   OH230019   1.255   2.782   6.377 -0.3498  0.1333 -0.3196
10025TIP3    H130020   1.230   2.824   6.294  0.4567  1.4428  0.0743
10025TIP3    H230021   1.351   2.788   6.379 -0.2477 -1.5311 -0.1300
10026TIP3   OH230022   0.368   4.771   0.077 -0.0405  0.4275 -0.3334
10026TIP3    H130023   0.282   4.767   0.034 -0.0889  1.1614 -0.3147
10026TIP3    H230024   0.423   4.821   0.016  0.1638  0.6163  0.0054
10027TIP3   OH230025   0.911   5.169   0.666 -0.4606 -0.2034 -0.4552
10027TIP3    H130026   0.939   5.256   0.637 -0.9754 -0.2814 -1.1845
10027TIP3    H230027   0.993   5.119   0.672 -0.2532  0.0824 -0.8583
10028TIP3   OH230028   2.176   6.068   0.531  0.4949 -0.3031  0.0536
10028TIP3    H130029   2.269   6.083   0.549  0.5635  0.4963 -0.9153
10028TIP3    H230030   2.154   5.990   0.582  1.8262 -0.8036 -0.1170
10029TIP3   OH230031   0.206   1.964   5.706  0.2270  0.3018 -0.0281
10029TIP3    H130032   0.180   1.908   5.779 -0.5075  0.6905  0.0102
10029TIP3    H230033   0.286   2.007   5.736 -0.3648  0.8681  0.7622
10030TIP3   OH230034   7.879   4.126   2.424 -0.2052  0.1525  0.0685
10030TIP3    H130035   7.896   4.161   2.336 -1.2595 -1.7764 -0.9264
10030TIP3    H230036   7.965   4.103   2.458  0.1069 -0.1850 -0.9380
10031TIP3   OH230037   6.765   4.023   4.944  0.5054 -0.5755  0.5137
10031TIP3    H130038   6.824   3.949   4.957  0.7210 -0.6013 -0.5610
10031TIP3    H230039   6.678   3.984   4.946  0.6145 -0.8534  0.0329
10032TIP3   OH230040   8.325   1.514   5.602 -0.0032 -0.1054 -0.0308
10032TIP3    H130041   8.352   1.480   5.517  0.0472  1.0320 -0.4859
10032TIP3    H230042   8.342   1.608   5.596 -1.5459  0.2379  0.6244
10033TIP3   OH230043   2.781   5.343   0.661  0.0153 -0.4421  0.0338
10033TIP3    H130044   2.845   5.337   0.590 -0.1611  0.1180 -0.1722
10033TIP3    H230045   2.771   5.436   0.677  0.7422 -0.5910  1.4210
10034TIP3   OH230046   4.234   2.846   1.765 -0.6591  0.2330 -0.3700
10034TIP3    H130047   4.292   2.922   1.776  0.6548 -0.5837 -1.4240
10034TIP3    H230048   4.242   2.823   1.672 -3.2930  0.5520 -0.7203
10035TIP3   OH230049   8.350   3.349   3.354 -0.3158 -0.4082 -0.0759
10035TIP3    H130050   8.323   3.353   3.263 -0.3344 -1.9952 -0.1475
10035TIP3    H230051   8.329   3.260   3.382  0.7076 -0.2817  1.1568
10036TIP3   OH230052   6.018   7.498   5.399 -0.3404 -0.1854 -0.6543
10036TIP3    H130053   6.087   7.470   5.338 -0.4666  0.6957 -1.2089
10036TIP3    H230054   5.945   7.439   5.381 -0.0745 -0.4979 -0.7328
10037TIP3   OH230055   0.929   1.259   5.951 -0.0332  0.3195 -0.0458
10037TIP3    H130056   0.881   1.221   6.025 -1.8093 -1.3404 -1.9946
10037TIP3    H230057   1.008   1.206   5.943 -0.6037 -0.4926 -0.3104
10038TIP3   OH230058   0.176   1.842   6.505 -0.4638  0.0155 -0.3883
10038TIP3    H130059   0.254   1.802   6.543 -0.1327  0.5020 -0.5498
10038TIP3    H230060   0.127   1.768   6.468  1.0348 -0.0669 -2.3048
10039TIP3   OH230061   7.438   2.606   6.304 -0.2737 -0.6721 -0.0986
10039TIP3    H130062   7.391   2.523   6.297 -0.2070 -0.7063 -0.1387
10039TIP3    H230063   7.523   2.582   6.342 -0.5989 -0.5042  0.7476
10040TIP3   OH230064   0.437   1.651   2.800  0.4250  0.1856 -0.1995
10040TIP3    H130065   0.499   1.664   2.872 -1.2408  2.4984  0.8855
10040TIP3    H230066   0.352   1.638   2.843 -0.2190 -0.7216 -1.6957
10041TIP3   OH230067   7.640   1.110   5.507 -0.0004  0.1642 -0.2902
10041TIP3    H130068   7.674   1.021   5.496 -1.8117 -0.5687 -0.1817
10041TIP3    H230069   7.653   1.151   5.421  0.4819 -0.3348 -0.4588
10042TIP3   OH230070   4.096   6.490   0.424  0.3256 -0.9162  0.4117
10042TIP3    H130071   4.096   6.415   0.366  0.6406  0.0908 -0.9265
10042TIP3    H230072   4.145   6.461   0.501 -1.7688 -2.8903  1.0572
10043TIP3   OH230073   1.743   3.761   5.151  0.8100  0.6025  0.2564
10043TIP3    H130074   1.686   3.752   5.075  2.4554  1.0685 -1.0598
10043TIP3    H230075   1.702   3.829   5.204  0.0290  0.7744 -0.5566
10044TIP3   OH230076   1.105   1.980   5.944  0.0221 -0.3982  0.1546
10044TIP3    H130077   1.065   1.949   5.862 -2.3058  0.3006  0.9657
10044TIP3    H230078   1.063   1.927   6.012  3.5260 -2.5072  0.7960
10045TIP3   OH230079   8.247   0.077   2.462  0.7761  0.0882 -0.2143
10045TIP3    H130080   8.201   0.084   2.545 -0.7761 -1.4267 -0.8963
10045TIP3    H230081   8.235   0.162   2.420 -0.1836  0.1983  0.2606
10046TIP3   OH230082   2.315   3.605   5.325  0.3638 -0.5185 -0.1599
10046TIP3    H130083   2.270   3.528   5.360  0.2978 -0.5280 -0.2663
10046TIP3    H230084   2.265   3.629   5.247 -0.7025  0.7326  0.8669
10047TIP3   OH230085   7.118   2.630   6.346 -0.1376 -0.3988 -0.6377
10047TIP3    H130086   7.170   2.707   6.372  1.5811 -1.5465 -0.6114
10047TIP3    H230087   7.028   2.663   6.342  0.0558  0.8425  2.7708
10048TIP3   OH230088   0.155   2.804   5.491  0.2730 -0.1778  0.5726
10048TIP3    H130089   0.094   2.758   5.433  0.3251 -1.3499  1.4120
10048TIP3    H230090   0.099   2.858   5.547 -0.0592 -1.5654  1.6157
10049TIP3   OH230091   3.202   4.585   0.469 -0.6306 -0.2865 -0.5197
10049TIP3    H130092   3.249   4.502   0.463 -1.0005 -0.5270 -0.0721
10049TIP3    H230093   3.143   4.585   0.393  1.1944  0.7151 -1.9927
10050TIP3   OH230094   0.859   4.588   5.749 -0.2283 -0.2569  0.2249
10050TIP3    H130095   0.765   4.600   5.759 -0.1004  0.1232  1.0218
10050TIP3    H230096   0.870   4.496   5.723 -0.8283 -0.2423 -0.0798
10051TIP3   OH230097   6.430   2.634   6.553  0.2227 -0.4601  0.3261
10051TIP3    H130098   6.407   2.576   6.625  0.6068  0.5246  1.2609
10051TIP3    H230099   6.405   2.721   6.584  0.6145 -0.0011 -0.6350
10052TIP3   OH230100   7.017   7.968   5.115  0.2813 -0.1023  0.3772
10052TIP3    H130101   7.105   7.965   5.079  1.0986 -0.5333  2.3355
10052TIP3    H230102   6.974   7.889   5.082  0.1255  0.8353 -1.7491
10053TIP3   OH230103   8.341   2.760   6.154  0.1690 -0.8782  0.7579
10053TIP3    H130104   8.299   2.718   6.080  0.1190 -1.7810  1.2860
10053TIP3    H230105   8.433   2.734   6.148  0.0976 -1.2532  1.2083
10054TIP3   OH230106   8.284   0.569   4.117 -0.2474  0.3979 -0.3183
10054TIP3    H130107   8.370   0.531   4.098 -0.7369 -0.7103 -0.3238
10054TIP3    H230108   8.280   0.572   4.212 -1.3320 -2.1779 -0.2554
10055TIP3   OH230109   8.071   2.057   5.118  0.3459 -0.1036 -0.5597
10055TIP3    H130110   8.058   2.010   5.201  1.8945  1.1145  0.3990
10055TIP3    H230111   8.004   2.125   5.119  0.7874  0.3280  0.0103
10056TIP3   OH230112   8.360   3.496   4.955  0.5677 -0.0184  0.0248
10056TIP3    H130113   8.411   3.540   4.887 -0.0745  0.3313 -0.2413
10056TIP3    H230114   8.417   3.495   5.032  0.3425  1.8751  0.2297
10057TIP3   OH230115   1.468   2.117   4.844  1.0992  0.7037 -0.0092
10057TIP3    H130116   1.516   2.057   4.787 -2.2280 -1.0536 -1.0697
10057TIP3    H230117   1.382   2.126   4.803 -0.6155  1.2325  3.5124
10058TIP3   OH230118   4.121   6.985   0.892 -0.1612  0.1247 -0.5927
10058TIP3    H130119   4.039   7.029   0.914 -0.4386 -0.1158 -1.1342
10058TIP3    H230120   4.153   7.031   0.814  0.1794  0.1641 -0.4314
10059TIP3   OH230121   1.573   3.776   6.890 -0.0637  0.0190  0.2990
10059TIP3    H130122   1.483   3.746   6.895 -1.2908  2.9497 -2.5599
10059TIP3    H230123   1.611   3.725   6.818  0.3154 -0.5402  0.8849
10060TIP3   OH230124   1.115   0.942   5.697  0.4244  0.2275  0.0263
10060TIP3    H130125   1.190   0.969   5.644 -0.4676  2.0077 -0.3874
10060TIP3    H230126   1.124   0.992   5.779 -1.2266  1.8365 -0.7324
10061TIP3   OH230127   6.075   7.943   6.286 -0.2599  0.3311  0.4851
10061TIP3    H130128   5.995   7.985   6.317 -0.1798  0.8161  0.0469
10061TIP3    H230129   6.075   7.857   6.326 -1.0621  0.2890  0.3873
10062TIP3   OH230130   1.252   2.482   6.677  0.4938 -0.3543  0.2430
10062TIP3    H130131   1.303   2.442   6.748 -1.1173 -1.6104  0.7297
10062TIP3    H230132   1.230   2.569   6.709  0.9990 -0.3863  0.6794
10063TIP3   OH230133   8.115   0.064   0.196 -0.0572 -0.3641 -0.0256
10063TIP3    H130134   8.094  -0.001   0.129  0.5111 -0.2320 -0.3313
10063TIP3    H230135   8.037   0.120   0.199 -0.7306 -1.3084  0.5512
10064TIP3   OH230136   6.159   7.220   0.603  0.1427  0.0600  0.1411
10064TIP3    H130137   6.221   7.217   0.530  1.9319  1.2579  1.5487
10064TIP3    H230138   6.148   7.129   0.629 -1.6833 -0.5421 -2.5299
10065TIP3   OH230139   4.228   5.433   0.159 -0.0372  0.4876 -0.8115
10065TIP3    H130140   4.201   5.523   0.140 -2.2757  0.2495  1.0828
10065TIP3    H230141   4.148   5.382   0.157  0.8812 -1.0666  0.4117
10066TIP3   OH230142   3.494   1.247   5.776  0.5498  0.4209 -0.0403
10066TIP3    H130143   3.474   1.249   5.870 -2.1675  0.7493 -0.5976
10066TIP3    H230144   3.569   1.306   5.767 -0.6012  2.2270  1.6263
10067TIP3   OH230145   8.455   3.361   6.229  0.0438  0.3809  0.0600
10067TIP3    H130146   8.547   3.386   6.223 -0.1876  0.8808 -1.6738
10067TIP3    H230147   8.457   3.273   6.266  1.3189 -0.2605 -1.4664
10068TIP3   OH230148   5.689   6.605   0.671  0.1058 -0.5230  0.2932
10068TIP3    H130149   5.703   6.673   0.737 -0.2821  0.4616 -0.6053
10068TIP3    H230150   5.658   6.654   0.594 -0.4990 -1.7602 -0.2598
10069TIP3   OH230151   3.188   3.502   5.192 -0.1684  0.2900 -0.2111
10069TIP3    H130152   3.142   3.424   5.161 -1.9852  1.0404  0.5297
10069TIP3    H230153   3.206   3.552   5.112 -1.9094  0.6413 -0.4098
10070TIP3   OH230154   2.939   1.905   5.874  0.2692 -0.0576  0.0231
10070TIP3    H130155   2.883   1.911   5.797 -0.1982  1.4511  0.4674
10070TIP3    H230156   3.006   1.841   5.850 -0.2206 -0.0464 -1.4092
10071TIP3   OH230157   4.136   6.231   0.352 -0.2546  0.1454  0.1307
10071TIP3    H130158   4.227   6.234   0.383 -0.0220 -0.5500 -0.4753
10071TIP3    H230159   4.105   6.144   0.378 -0.4231  0.0021 -0.5644
10072TIP3   OH230160   6.105   0.987   0.788 -0.4451  0.3902 -0.3308
10072TIP3    H130161   6.174   1.047   0.757  0.9283 -0.0226  1.8305
10072TIP3    H230162   6.138   0.900   0.765 -0.9230  0.2760 -0.5787
10073TIP3   OH230163   3.965   6.973   0.193  0.0368  0.4785  0.0882
10073TIP3    H130164   3.905   7.047   0.197 -1.1926 -0.4915 -0.0027
10073TIP3    H230165   3.921   6.904   0.242  0.2990 -0.7835 -1.4162
10074TIP3   OH230166   1.844   6.920   0.153 -0.5090  0.2837 -0.1535
10074TIP3    H130167   1.886   7.006   0.155 -1.7496  0.9118 -0.8355
10074TIP3    H230168   1.916   6.859   0.135 -0.0962  1.5110 -2.8888
10075TIP3   OH230169   4.938   6.346   0.141  0.3627 -0.5164 -0.3079
10075TIP3    H130170   4.984   6.419   0.099  0.7613 -0.1952  0.6787
10075TIP3    H230171   4.967   6.348   0.232  0.3963 -1.9360 -0.2757
10076TIP3   OH230172   3.827   2.302   6.386  0.0027  0.1300  0.2016
10076TIP3    H130173   3.796   2.302   6.477 -2.2386  0.3763 -0.5335
10076TIP3    H230174   3.775   2.235   6.343  3.4025 -2.3704 -0.2039
10077TIP3   OH230175   2.638   3.965   6.545  0.3798  0.4241 -0.2149
10077TIP3    H130176   2.685   4.023   6.485 -0.3914 -0.3922 -1.6243
10077TIP3    H230177   2.699   3.895   6.564  0.3531  0.2692 -0.6870
10078TIP3   OH230178   3.290   0.997   6.781  0.3197 -0.2783  0.0176
10078TIP3    H130179   3.286   0.914   6.734 -1.0551  0.6144 -1.5053
10078TIP3    H230180   3.366   1.042   6.745 -1.0543  0.6395 -1.8126
10079TIP3   OH230181   8.138   2.093   1.536 -0.3288  0.9579 -0.9563
10079TIP3    H130182   8.130   2.035   1.461 -0.9320 -1.5451  0.9710
10079TIP3    H230183   8.223   2.136   1.525  0.2977 -0.5716 -2.2232
10080TIP3   OH230184   0.580   2.141   4.721 -0.3913 -0.7070 -0.5875
10080TIP3    H130185   0.554   2.204   4.789  0.4789 -0.6975 -0.2639
10080TIP3    H230186   0.551   2.181   4.639 -1.4836 -0.7320 -0.2325
10081TIP3   OH230187   4.167   6.011   0.783  0.4835  0.2620 -0.2033
10081TIP3    H130188   4.112   6.087   0.804 -0.1410 -0.1713 -0.2873
10081TIP3    H230189   4.256   6.047   0.781  0.0769  1.2562 -1.4703
10082TIP3   OH230190   2.180   3.121   6.251  0.4537  0.5709  0.5111
10082TIP3    H130191   2.215   3.111   6.162 -2.2627  0.0710 -0.5673
10082TIP3    H230192   2.182   3.215   6.267 -0.1264  0.7647 -0.5424
10083TIP3   OH230193   3.444   5.911   0.100  0.0220  0.4995 -0.5685
10083TIP3    H130194   3.371   5.898   0.161  0.1195  0.6186 -0.4237
10083TIP3    H230195   3.470   6.003   0.114  1.8071 -0.2293  1.1947
10084TIP3   OH230196   5.505   6.104   0.396  0.3671 -0.2556 -0.0288
10084TIP3    H130197   5.420   6.148   0.391  1.6767  2.1999 -1.1114
10084TIP3    H230198   5.525   6.080   0.306  0.5358 -1.4304  0.3111
10085TIP3   OH230199   4.962   6.323   0.422 -0.1522 -0.1190  0.3295
10085TIP3    H130200   4.886   6.356   0.472 -2.8729 -2.1489 -2.2970
10085TIP3    H230201   4.972   6.233   0.451 -1.0367 -0.9608 -1.8898
10086TIP3   OH230202   7.126   7.517   0.256  0.3608 -0.5747 -0.5585
10086TIP3    H130203   7.157   7.448   0.198 -0.7511 -0.6931 -1.0105
10086TIP3    H230204   7.048   7.481   0.298  0.2358  0.1031 -0.1900
10087TIP3   OH230205   0.255   3.898   5.502  0.1728  0.0277  0.1470
10087TIP3    H130206   0.281   3.842   5.429  0.6281  0.2910  0.1074
10087TIP3    H230207   0.311   3.870   5.574 -1.8014 -1.7617  1.0332
10088TIP3   OH230208   3.369   1.693   5.604  0.2697 -0.2920 -0.2310
10088TIP3    H130209   3.332   1.742   5.530 -1.0016  0.3116  0.7993
10088TIP3    H230210   3.464   1.707   5.596  0.0979  0.3413 -1.3364
10089TIP3   OH230211   4.744   7.135   0.385  0.3120  0.7975  0.2269
10089TIP3    H130212   4.653   7.107   0.393  1.2367 -3.0975 -1.5842
10089TIP3    H230213   4.785   7.109   0.468  0.4510 -0.3973 -0.2056
10090TIP3   OH230214   2.976   7.778   0.062 -0.1899 -0.5292 -0.3173
10090TIP3    H130215   3.018   7.857   0.097 -0.7870 -0.5115  0.3667
10090TIP3    H230216   2.970   7.719   0.137 -2.8868  0.0918  0.0035
10091TIP3   OH230217   5.576   6.182   1.272  0.2752  0.1245 -0.4909
10091TIP3    H130218   5.577   6.088   1.256  0.4246  0.2355 -1.1564
10091TIP3    H230219   5.664   6.203   1.304 -0.4378 -0.3243  1.8567
10092TIP3   OH230220   6.854   0.759   0.854 -0.5000 -0.5328  0.5028
10092TIP3    H130221   6.888   0.706   0.781 -2.0471  0.5962 -1.0959
10092TIP3    H230222   6.931   0.779   0.907  0.3267 -3.1406  0.3238
10093TIP3   OH230223   6.751   0.833   0.100 -0.1233 -0.2134  0.1384
10093TIP3    H130224   6.792   0.917   0.121 -0.8765 -0.1931  1.6032
10093TIP3    H230225   6.822   0.778   0.068  0.5089  0.7516 -0.1188
10094TIP3   OH230226   0.482   1.867   6.155 -0.3954  0.5578  0.2972
10094TIP3    H130227   0.419   1.938   6.158 -0.8637  0.2179 -0.9666
10094TIP3    H230228   0.534   1.876   6.235 -0.5744  2.1894  0.2324
10095TIP3   OH230229   2.543   6.352   4.255  0.4649 -0.4079 -0.1835
10095TIP3    H130230   2.559   6.404   4.334  1.2207 -1.4644  0.3675
10095TIP3    H230231   2.602   6.388   4.189  0.4328 -0.0712 -0.0286
10096TIP3   OH230232   1.653   2.023   6.069 -0.0429 -0.1087 -0.3275
10096TIP3    H130233   1.654   2.027   5.973 -0.6774 -0.9331 -0.3721
10096TIP3    H230234   1.619   1.936   6.089 -0.4873  0.2883  0.6548
10097TIP3   OH230235   3.778   0.719   5.001 -0.0719  0.1459 -0.6841
10097TIP3    H130236   3.850   0.766   4.959 -0.2051 -0.9085 -2.1465
10097TIP3    H230237   3.820   0.642   5.040  0.1735  1.5358  1.8461
10098TIP3   OH230238   5.503   4.744   0.204 -0.0084  0.2778 -0.2095
10098TIP3    H130239   5.507   4.826   0.155 -0.6169 -0.3530 -1.3142
10098TIP3    H230240   5.578   4.749   0.264 -0.0488  1.6418 -0.2637
10099TIP3   OH230241   3.614   4.624   0.152 -0.6573 -0.1465  0.3470
10099TIP3    H130242   3.635   4.711   0.118  0.1849 -0.4562  0.0760
10099TIP3    H230243   3.520   4.628   0.170 -0.1471  1.6875  2.8429
10100TIP3   OH230244   5.162   4.804   0.196  0.1884  0.2728  0.0562
10100TIP3    H130245   5.124   4.724   0.231 -0.4755  0.4567 -0.2389
10100TIP3    H230246   5.254   4.801   0.224  0.7434 -1.6935 -1.8673
10101TIP3   OH230247   1.434   2.339   6.826  0.1212 -0.0941  0.5328
10101TIP3    H130248   1.440   2.394   6.904  2.5753 -0.2564  0.5122
10101TIP3    H230249   1.429   2.250   6.860  0.9998 -0.1512  0.5462
10102TIP3   OH230250   7.773   0.433   5.075 -0.4218  0.5253 -0.0992
10102TIP3    H130251   7.708   0.407   5.141 -0.6414 -0.8365 -0.8360
10102TIP3    H230252   7.857   0.421   5.119 -0.5807  0.1223  0.0977
10103TIP3   OH230253   2.902   6.847   0.482  0.7677 -0.5269 -0.2881
10103TIP3    H130254   2.975   6.824   0.425  2.2041  0.9926  0.9040
10103TIP3    H230255   2.872   6.932   0.450 -0.8602 -1.3755 -1.1085
10104TIP3   OH230256   3.344   6.448   0.573 -0.4199 -0.1857 -0.6910
10104TIP3    H130257   3.353   6.384   0.644 -0.4236 -1.8471 -2.1463
10104TIP3    H230258   3.281   6.512   0.607 -0.5262 -1.0189  0.7616
10105TIP3   OH230259   6.284   6.743   5.168 -0.2707 -0.5298 -0.1411
10105TIP3    H130260   6.208   6.767   5.221 -0.7307 -2.0765 -0.0705
10105TIP3    H230261   6.285   6.648   5.171  1.4176 -0.5274 -0.5139
10106TIP3   OH230262   4.212   3.921   0.495  0.1997  0.6476 -0.0230
10106TIP3    H130263   4.178   3.995   0.444 -0.0074  0.6460  0.1152
10106TIP3    H230264   4.286   3.889   0.443 -1.3991 -0.7850 -1.4855
10107TIP3   OH230265   5.403   4.561   0.400 -0.3333  0.0101  0.6962
10107TIP3    H130266   5.436   4.569   0.489  1.0628  0.6669  0.1366
10107TIP3    H230267   5.421   4.646   0.360 -0.9144 -0.2946 -0.2261
10108TIP3   OH230268   3.933   7.049   0.535 -0.0626 -0.6440 -0.3896
10108TIP3    H130269   3.876   7.043   0.611  2.2449 -0.4728  1.4244
10108TIP3    H230270   3.879   7.090   0.467 -2.0285 -0.4019  1.2741
10109TIP3   OH230271   5.113   5.577   0.946 -0.6617  0.1563 -0.0250
10109TIP3    H130272   5.138   5.494   0.905  1.8472 -0.7461  3.1043
10109TIP3    H230273   5.176   5.641   0.912 -1.0957  0.2825 -0.6017
10110TIP3   OH230274   3.958   2.602   0.555  0.5178 -0.2750  0.4544
10110TIP3    H130275   3.957   2.550   0.636 -0.2085 -1.8793 -0.5543
10110TIP3    H230276   3.866   2.605   0.528  0.6718  0.8448  0.0666
10111TIP3   OH230277   7.788   0.957   6.769 -0.2485  0.5801  0.1827
10111TIP3    H130278   7.706   0.986   6.809  0.0087  1.1163  0.3306
10111TIP3    H230279   7.834   1.039   6.749  0.3022  0.2759  0.2123
10112TIP3   OH230280   4.760   3.036   1.302  0.3269 -0.0055  0.2713
10112TIP3    H130281   4.678   2.998   1.271  0.2857 -0.0943  0.4874
10112TIP3    H230282   4.745   3.131   1.302  0.5468  0.0315 -0.5972
10113TIP3   OH230283   1.661   2.057   6.522 -0.3147 -0.0396 -0.0302
10113TIP3    H130284   1.704   2.075   6.439 -1.1750 -0.1312 -0.5039
10113TIP3    H230285   1.682   2.133   6.577  0.3321 -0.0268 -0.2999
10114TIP3   OH230286   1.710   4.872   5.133  0.1738  0.1926 -0.2650
10114TIP3    H130287   1.683   4.801   5.075 -0.2931  1.2946 -1.4373
10114TIP3    H230288   1.692   4.840   5.221 -1.4888 -0.5277 -0.8549
10115TIP3   OH230289   3.087   5.211   0.667  0.0648  0.3059  0.3932
10115TIP3    H130290   3.037   5.232   0.588  0.5684  1.3203  0.3307
10115TIP3    H230291   3.141   5.289   0.682 -0.8305  0.5800  2.3738
10116TIP3   OH230292   7.571   2.212   6.888 -0.2337 -0.9720  0.2494
10116TIP3    H130293   7.656   2.216   6.933 -0.3088  3.4211  0.2490
10116TIP3    H230294   7.510   2.250   6.950 -2.0018 -2.7804 -0.3310
10117TIP3   OH230295   0.810   1.513   6.390  0.0374  0.0871  0.2502
10117TIP3    H130296   0.883   1.453   6.372 -1.2765 -2.2897  2.3804
10117TIP3    H230297   0.750   1.500   6.316  1.3633  1.4217 -1.0800
10118TIP3   OH230298   3.691   1.940   5.193  0.2401 -0.2140 -0.3129
10118TIP3    H130299   3.702   1.852   5.158  1.2926  0.3030 -1.3330
10118TIP3    H230300   3.780   1.968   5.217  0.1896  1.2813 -1.7759
10119TIP3   OH230301   5.463   6.878   1.729 -0.0790 -0.0414 -0.3019
10119TIP3    H130302   5.461   6.804   1.668  1.9502 -0.9212  0.6603
10119TIP3    H230303   5.501   6.842   1.809 -1.1193  1.5221  0.9263
10120TIP3   OH230304   0.680   4.305   3.857  0.3582 -0.0167 -0.6016
10120TIP3    H130305   0.591   4.298   3.822 -0.3960  0.7056  1.1378
10120TIP3    H230306   0.736   4.280   3.783 -1.2923 -1.0098 -1.5548
10121TIP3   OH230307   4.996   7.421   0.350  0.3018  0.1630  0.0549
10121TIP3    H130308   5.042   7.491   0.396  1.1580  0.9470 -1.9347
10121TIP3    H230309   4.913   7.461   0.322 -0.0397 -0.1885  0.5586
10122TIP3   OH230310   2.776   0.605   6.921  0.3014 -0.3714  0.4626
10122TIP3    H130311   2.756   0.652   7.002 -0.7838  0.6541 -0.3815
10122TIP3    H230312   2.713   0.639   6.858  1.2968 -0.9891 -0.8794
10123TIP3   OH230313  -0.027   2.376   6.760  0.0554 -0.4014  0.3096
10123TIP3    H130314  -0.010   2.461   6.718 -1.3069  0.2438  1.0404
10123TIP3    H230315   0.054   2.357   6.808 -0.1178  1.1346  1.2370
10124TIP3   OH230316   4.344   5.349   0.507  0.6336  0.1105 -0.4307
10124TIP3    H130317   4.377   5.260   0.500  0.0724 -0.1172 -0.1753
10124TIP3    H230318   4.401   5.401   0.450  0.8982 -0.4231 -0.6476
10125TIP3   OH230319   6.739   3.225   6.547  0.1639 -0.3173  0.2231
10125TIP3    H130320   6.798   3.200   6.476  0.6679 -0.0430  0.5452
10125TIP3    H230321   6.778   3.188   6.626 -0.1222 -0.1806  0.4314
10126TIP3   OH230322   2.722   3.432   5.378  0.2813  0.0181 -0.5423
10126TIP3    H130323   2.686   3.396   5.297  0.2020 -0.3618 -0.3391
10126TIP3    H230324   2.809   3.393   5.386  0.7037  0.8652 -0.9845
10127TIP3   OH230325   2.071   5.680   1.729  0.1124  0.1604 -0.3359
10127TIP3    H130326   2.039   5.691   1.639 -2.8461 -0.5923  0.5731
10127TIP3    H230327   2.048   5.761   1.773  0.4017  0.0225  0.0739
10128TIP3   OH230328   6.498   1.208   1.363 -0.0645 -0.0992  0.7546
10128TIP3    H130329   6.430   1.239   1.304  0.1753 -2.0368 -0.5674
10128TIP3    H230330   6.548   1.286   1.385 -1.1377  0.9060 -0.3210
10129TIP3   OH230331   6.875   1.297   0.291 -0.5431  0.0467 -0.0972
10129TIP3    H130332   6.834   1.227   0.342  0.0118 -1.2034 -1.3564
10129TIP3    H230333   6.817   1.309   0.216 -1.5178  2.0921  0.9173
10130TIP3   OH230334   2.572   2.482   6.893 -0.0350  0.0036 -0.6418
10130TIP3    H130335   2.548   2.390   6.880 -2.0237  0.5928 -1.4274
10130TIP3    H230336   2.616   2.507   6.811  3.6834 -1.1504  0.8998
10131TIP3   OH230337   5.736   6.807   0.065  0.5825  0.5507  0.1283
10131TIP3    H130338   5.644   6.817   0.038  0.3881 -0.4275  0.3869
10131TIP3    H230339   5.784   6.796  -0.017  0.3135 -0.0242  0.0416
10132TIP3   OH230340   1.521   2.804   6.352 -0.7632 -0.1998  0.2750
10132TIP3    H130341   1.587   2.820   6.285 -1.2760  0.8555  0.0105
10132TIP3    H230342   1.560   2.737   6.408 -0.5735 -1.5097 -1.3885
10133TIP3   OH230343   3.653   4.377   1.053  0.2132 -0.0884  0.4447
10133TIP3    H130344   3.589   4.313   1.022 -0.8431  0.8428  0.6734
10133TIP3    H230345   3.720   4.324   1.097  0.4705 -1.2044 -1.2341
10134TIP3   OH230346   2.749   4.759   0.274 -0.0391 -0.2073  0.4032
10134TIP3    H130347   2.700   4.745   0.355 -0.2611 -0.7880  0.1711
10134TIP3    H230348   2.702   4.708   0.208  0.1333  0.2731 -0.0962
10135TIP3   OH230349   1.172   1.142   5.915 -0.1694 -0.2883 -0.9559
10135TIP3    H130350   1.250   1.167   5.867 -1.0249  3.7203 -0.3999
10135TIP3    H230351   1.203   1.125   6.004  0.0786  1.2318 -0.7499
10136TIP3   OH230352   4.055   7.372   0.715  0.5540 -0.2052  0.5284
10136TIP3    H130353   3.963   7.378   0.740  0.6495  0.5260  0.7279
10136TIP3    H230354   4.069   7.446   0.656  1.3513  0.5196  1.6126
10137TIP3   OH230355   3.853   6.343   0.471  0.3072  0.3383 -0.4754
10137TIP3    H130356   3.843   6.319   0.378  2.8096  0.4755 -0.8165
10137TIP3    H230357   3.929   6.401   0.472 -1.0718  2.1692  1.3904
10138TIP3   OH230358   0.631   1.799   6.759 -0.3774 -0.6846 -0.6985
10138TIP3    H130359   0.623   1.773   6.851  0.1399 -0.6691 -0.6443
10138TIP3    H230360   0.692   1.734   6.722  2.6429  1.6708 -0.0520
10139TIP3   OH230361   1.189   2.092   6.512  0.5221 -0.3568 -0.3249
10139TIP3    H130362   1.125   2.080   6.582  0.0259 -1.6836 -0.9904
10139TIP3    H230363   1.178   2.015   6.456  3.1935 -0.9809 -0.0783
10140TIP3   OH230364   2.192   0.181   6.727  0.1834 -0.2212  0.3792
10140TIP3    H130365   2.212   0.100   6.681 -1.9551  0.4235 -1.8426
10140TIP3    H230366   2.097   0.189   6.721  0.4303  2.9856 -0.4528
10141TIP3   OH230367   3.083   3.486   5.612 -0.0165  0.4064  0.2228
10141TIP3    H130368   3.147   3.488   5.540 -0.6453  0.7710 -0.3322
10141TIP3    H230369   3.064   3.578   5.630  0.2970  0.3232  1.0118
10142TIP3   OH230370   2.000   7.177   0.067 -0.2226  0.6111 -0.4902
10142TIP3    H130371   2.094   7.168   0.052  0.2659  1.4134  1.8443
10142TIP3    H230372   1.975   7.254   0.015 -0.0182 -0.7610 -2.6863
10143TIP3   OH230373   3.349   4.376   0.335 -0.3413 -0.6554 -0.2332
10143TIP3    H130374   3.431   4.363   0.383 -0.8892  0.9510  1.1636
10143TIP3    H230375   3.318   4.287   0.317  0.3943 -1.2807  1.4811
10144TIP3   OH230376   1.348   3.245   5.510 -0.3360 -0.3063 -0.3861
10144TIP3    H130377   1.420   3.183   5.505 -0.5659 -0.6990  1.0183
10144TIP3    H230378   1.269   3.190   5.520 -0.7140  0.1482 -0.8481
10145TIP3   OH230379   3.803   7.256   0.242 -0.2939  0.5115  0.4365
10145TIP3    H130380   3.726   7.293   0.198 -1.1914 -0.3959  1.2525
10145TIP3    H230381   3.773   7.173   0.278  1.3237 -0.3108 -0.0697
10146TIP3   OH230382   2.100   3.974   5.218 -0.2020  0.6731 -0.5379
10146TIP3    H130383   2.074   3.890   5.182  2.3618  0.3136 -1.6401
10146TIP3    H230384   2.127   4.026   5.142  2.2717  0.9779  0.4806
10147TIP3   OH230385   0.833   2.634   5.000 -0.3499  0.3229  0.5317
10147TIP3    H130386   0.787   2.596   5.076 -1.4895 -0.0353 -0.3173
10147TIP3    H230387   0.876   2.712   5.034 -2.0981  0.9985  1.2344
10148TIP3   OH230388   0.589   2.777   5.667  0.2410  0.4535  0.1742
10148TIP3    H130389   0.660   2.733   5.715  0.7926 -0.1805 -1.2024
10148TIP3    H230390   0.512   2.724   5.685  0.2989  0.5991  0.8958
10149TIP3   OH230391   1.801   3.248   5.320 -0.1097 -0.0219  0.4331
10149TIP3    H130392   1.819   3.273   5.230 -0.1729  1.6315  0.8672
10149TIP3    H230393   1.706   3.235   5.324 -0.0211 -0.8182  0.0998
10150TIP3   OH230394   2.586   3.563   5.630 -0.1342 -0.3609 -0.1521
10150TIP3    H130395   2.491   3.558   5.637 -0.1503  0.2943  0.1721
10150TIP3    H230396   2.604   3.567   5.536 -0.3943 -0.9344 -0.2317
10151TIP3   OH230397   4.494   6.014   1.664  0.1111 -0.2167 -0.1277
10151TIP3    H130398   4.529   6.056   1.742  0.5671 -0.6143 -0.1179
10151TIP3    H230399   4.570   6.003   1.607 -0.5795  2.1831 -1.5904
10152TIP3   OH230400   1.914   0.199   6.661 -0.0698  0.3908  0.1499
10152TIP3    H130401   1.868   0.216   6.743 -0.7335 -0.1872 -0.0867
10152TIP3    H230402   1.848   0.216   6.593  0.2984  0.3096 -0.2299
10153TIP3   OH230403   0.961   3.698   4.801  0.2168  0.3385  0.1075
10153TIP3    H130404   0.947   3.792   4.785 -1.5416  0.3681  1.6592
10153TIP3    H230405   1.031   3.696   4.867  2.8631  0.4073 -2.6066
10154TIP3   OH230406   1.615   4.909   5.619 -0.1591  0.2308  0.0316
10154TIP3    H130407   1.534   4.858   5.619 -0.0835  0.1123  0.7855
10154TIP3    H230408   1.685   4.843   5.619 -0.0612  0.3360  0.6923
10155TIP3   OH230409   6.523   6.901   6.041  0.0143 -0.5974  0.0824
10155TIP3    H130410   6.464   6.898   5.965  0.7702  0.2001 -0.5411
10155TIP3    H230411   6.505   6.985   6.082  0.2417 -0.6442  0.2748
10156TIP3   OH230412   1.407   6.774   0.368 -0.5153 -0.0813  0.2498
10156TIP3    H130413   1.474   6.726   0.417 -1.0023 -1.1745 -0.1553
10156TIP3    H230414   1.369   6.710   0.309 -2.5124  0.3233  1.0519
10157TIP3   OH230415   2.894   7.080   0.314 -0.3034 -0.1434 -0.0303
10157TIP3    H130416   2.855   7.166   0.300  0.7968  0.4310  0.3326
10157TIP3    H230417   2.945   7.063   0.235  1.3795  0.6096  0.8518
10158TIP3   OH230418   2.001   5.423   6.745 -0.2582 -0.3929 -0.1276
10158TIP3    H130419   1.908   5.421   6.766 -0.0771 -1.6312  0.5921
10158TIP3    H230420   2.044   5.386   6.822  0.7506 -0.7657 -0.8532
10159TIP3   OH230421   3.327   4.080   6.877  0.1558 -0.3837 -0.1787
10159TIP3    H130422   3.376   4.162   6.876 -2.6273  1.3495 -3.4116
10159TIP3    H230423   3.253   4.097   6.936 -0.0074 -0.8362 -0.2493
10160TIP3   OH230424   2.883   2.797   5.540 -0.0821 -0.0110 -0.4419
10160TIP3    H130425   2.867   2.887   5.568 -0.6598 -0.3959  0.4776
10160TIP3    H230426   2.866   2.797   5.446 -1.8898  0.4235 -0.1295
10161TIP3   OH230427   3.565   4.348   0.634 -0.6190  0.3369  0.1001
10161TIP3    H130428   3.511   4.379   0.707 -0.5065  3.1511 -0.9399
10161TIP3    H230429   3.647   4.321   0.675 -0.7888  1.2965  1.0879
10162TIP3   OH230430   2.328   4.343   6.843  0.3847  0.4328 -0.2480
10162TIP3    H130431   2.377   4.343   6.925  0.2312  0.0370 -0.1558
10162TIP3    H230432   2.396   4.352   6.775  0.6073 -0.4107 -0.1351
10163TIP3   OH230433   6.087   7.111   0.031  0.1741  0.4070 -0.0250
10163TIP3    H130434   6.056   7.190   0.075  1.7271  1.6284 -1.0793
10163TIP3    H230435   6.047   7.114  -0.056 -1.3784 -1.0313  0.6060
10164TIP3   OH230436   4.347   7.703   0.434  0.1326 -0.0166  0.4708
10164TIP3    H130437   4.366   7.760   0.360 -3.2300  0.4463 -0.1138
10164TIP3    H230438   4.384   7.618   0.409  0.5973  0.5934 -0.9464
10165TIP3   OH230439   1.818   1.205   5.726 -0.0646 -0.1506 -0.3525
10165TIP3    H130440   1.826   1.278   5.788 -1.2848 -0.3457  0.0688
10165TIP3    H230441   1.734   1.221   5.682  0.3686 -0.5107 -1.3008
10166TIP3   OH230442   2.526   1.856   6.498  0.0631  0.4290  0.1838
10166TIP3    H130443   2.569   1.776   6.467  0.0773  0.4099  0.2518
10166TIP3    H230444   2.593   1.924   6.489 -0.0143  0.4732 -0.0648
10167TIP3   OH230445   4.456   7.181   2.670 -0.0352  0.5096  0.4003
10167TIP3    H130446   4.370   7.187   2.712 -0.0813  2.1128  0.1105
10167TIP3    H230447   4.455   7.097   2.625 -1.9506  1.0420 -0.6259
10168TIP3   OH230448   3.582   4.928   0.354  0.4982 -0.6744  0.5136
10168TIP3    H130449   3.517   4.859   0.367  0.6477 -0.5681  1.8545
10168TIP3    H230450   3.660   4.898   0.400  1.3480 -0.6876 -0.8910
10169TIP3   OH230451   1.362   2.097   5.798  0.4003  0.3353 -0.4098
10169TIP3    H130452   1.455   2.077   5.790  0.1883 -0.4755 -0.8947
10169TIP3    H230453   1.332   2.109   5.708 -0.0440  0.2192 -0.2774
10170TIP3   OH230454   3.399   3.099   6.013  0.2086  0.0858  0.0976
10170TIP3    H130455   3.358   3.171   5.966  2.4532  0.5236 -1.2735
10170TIP3    H230456   3.493   3.116   6.006  0.7231 -2.0954  1.1548
10171TIP3   OH230457   0.717   0.732   0.999  0.0940  0.6811  0.3348
10171TIP3    H130458   0.693   0.742   0.907 -0.3721  3.2227  0.7089
10171TIP3    H230459   0.636   0.750   1.048  0.6378  0.5968  1.2914
10172TIP3   OH230460   1.106   2.015   0.563 -0.2880 -0.0236  0.0537
10172TIP3    H130461   1.181   2.049   0.513 -0.0159 -0.4923  0.1382
10172TIP3    H230462   1.138   2.011   0.653 -0.9823  1.4168  0.3856
10173TIP3   OH230463   3.139   1.393   6.473  0.1336 -0.2322 -0.2905
10173TIP3    H130464   3.098   1.454   6.412 -0.1573  1.3080  1.3952
10173TIP3    H230465   3.068   1.334   6.499 -0.2017  0.3038  0.0162
10174TIP3   OH230466   1.290   0.626   6.307  0.5789  0.1652  0.0546
10174TIP3    H130467   1.195   0.631   6.297  0.6244 -1.2812 -1.1673
10174TIP3    H230468   1.320   0.577   6.230  2.3610  1.0284  0.1722
10175TIP3   OH230469   5.137   6.963   0.904  0.0355 -0.3297  0.2325
10175TIP3    H130470   5.141   6.932   0.995 -1.9308 -1.2230  0.0370
10175TIP3    H230471   5.161   6.886   0.852  4.0199  0.9217  0.0433
10176TIP3   OH230472   1.910   4.743   2.769 -0.0983 -0.1418  0.3236
10176TIP3    H130473   1.850   4.752   2.843 -0.8765 -1.5802 -0.1183
10176TIP3    H230474   1.989   4.705   2.808  0.7432  2.1637  0.9856
10177TIP3   OH230475   1.284   4.709   6.886 -0.0628 -0.2730 -0.3485
10177TIP3    H130476   1.359   4.706   6.827  0.0505 -1.6059 -0.1406
10177TIP3    H230477   1.298   4.637   6.947 -0.4314  0.7784  1.0136
10178TIP3   OH230478   6.347   0.887   1.118 -0.0834  0.1197  0.3775
10178TIP3    H130479   6.438   0.865   1.102 -0.7402 -2.4648  0.0824
10178TIP3    H230480   6.330   0.963   1.062  1.9347  0.8019  0.6571
10179TIP3   OH230481   5.762   6.994   0.715  0.7228  0.5741 -0.4571
10179TIP3    H130482   5.726   7.072   0.672 -0.4918  0.7540  0.8435
10179TIP3    H230483   5.815   7.029   0.787  0.1761  0.1958  0.1268
10180TIP3   OH230484   0.869   2.766   6.670  0.3170 -0.2444  0.0111
10180TIP3    H130485   0.858   2.836   6.735  0.8355  0.9852 -1.1811
10180TIP3    H230486   0.943   2.796   6.616  1.9050 -2.7194  0.7676
10181TIP3   OH230487   4.399   6.231   0.426  0.2816 -0.4761  0.1104
10181TIP3    H130488   4.449   6.180   0.361  2.0750 -0.4943  1.4626
10181TIP3    H230489   4.445   6.314   0.431 -1.1198  0.3301 -0.1940
10182TIP3   OH230490   0.755   3.535   6.071  0.1075 -0.4967  0.1227
10182TIP3    H130491   0.743   3.466   6.136  1.0266 -1.6882 -0.9348
10182TIP3    H230492   0.801   3.492   5.999  1.2400  1.3768 -0.3051
10183TIP3   OH230493   2.469   6.618   2.001  0.1780 -0.3879 -0.0943
10183TIP3    H130494   2.385   6.606   2.045  0.6744  0.0142  1.0079
10183TIP3    H230495   2.521   6.542   2.028  0.9836  0.6075  1.2488
10184TIP3   OH230496   1.016   3.523   6.686 -0.0354 -0.1785 -0.1805
10184TIP3    H130497   1.055   3.583   6.622  0.6783  0.7937  1.1492
10184TIP3    H230498   1.084   3.458   6.702 -0.5720 -0.9956 -1.1241
10185TIP3   OH230499   4.313   4.805   0.038 -0.1553 -0.2810  0.0632
10185TIP3    H130500   4.241   4.851  -0.004  0.5620  0.6707 -0.1276
10185TIP3    H230501   4.362   4.873   0.084  0.1319 -1.0442  0.9071
10186TIP3   OH230502   3.795   2.868   6.265 -0.0317  0.1287 -0.0540
10186TIP3    H130503   3.787   2.935   6.333  1.5212 -0.1873  0.4672
10186TIP3    H230504   3.883   2.833   6.277 -0.8614 -2.0971 -0.2592
10187TIP3   OH230505   5.191   7.126  -0.027 -0.4699 -0.1928  0.1430
10187TIP3    H130506   5.214   7.144   0.064 -3.9055  2.2488  0.6397
10187TIP3    H230507   5.128   7.055  -0.023 -1.7687  0.9261 -0.1814
10188TIP3   OH230508   7.374   0.724   5.777  0.3517  0.3082  0.6797
10188TIP3    H130509   7.299   0.681   5.818  0.5468 -0.6870  0.0000
10188TIP3    H230510   7.338   0.762   5.697  0.3299  0.8503  0.9396
10189TIP3   OH230511   0.971   0.666   6.234 -0.1725  0.2193  0.5517
10189TIP3    H130512   0.998   0.742   6.183  0.1959 -0.5197 -0.3584
10189TIP3    H230513   0.881   0.685   6.260 -0.7933  0.0421 -1.4168
10190TIP3   OH230514   3.117   1.716   5.802  0.3035  0.4719  0.1459
10190TIP3    H130515   3.193   1.728   5.745  1.3996  1.5997  1.7990
10190TIP3    H230516   3.087   1.627   5.784  1.0387  0.5656 -1.6694
10191TIP3   OH230517   1.434   1.634   6.701 -0.3842 -0.1252 -0.5249
10191TIP3    H130518   1.403   1.555   6.658  0.4998 -0.3197 -0.8142
10191TIP3    H230519   1.369   1.701   6.678 -1.7892 -1.0214  0.7061
10192TIP3   OH230520   2.052   1.409   6.101 -0.3797  0.2668  0.1169
10192TIP3    H130521   2.069   1.340   6.038  3.4222  3.4070 -2.5892
10192TIP3    H230522   2.109   1.388   6.175 -1.2425 -0.8989  0.4521
10193TIP3   OH230523   2.182   4.081   6.002  0.0871  0.1249 -0.3715
10193TIP3    H130524   2.124   4.076   5.926  0.6422  0.1090 -0.7974
10193TIP3    H230525   2.219   3.993   6.010  0.1365  0.1646 -0.1648
10194TIP3   OH230526   6.931   6.586   0.377 -0.1276 -0.5666 -0.0464
10194TIP3    H130527   6.875   6.588   0.300 -1.4039  1.2809  0.8871
10194TIP3    H230528   6.875   6.620   0.448  2.0044  0.8106  1.0137
10195TIP3   OH230529   0.515   2.434   6.155  0.1841 -0.2466 -0.1778
10195TIP3    H130530   0.545   2.374   6.086 -0.6184 -0.7368 -0.1053
10195TIP3    H230531   0.531   2.386   6.237  0.6215  0.1140 -0.0455
10196TIP3   OH230532   4.482   6.375   0.900 -0.0121 -0.0473  0.4532
10196TIP3    H130533   4.563   6.411   0.935 -0.1824 -0.6319  1.4788
10196TIP3    H230534   4.425   6.451   0.887  1.0093  0.4670 -1.1441
10197TIP3   OH230535   4.292   2.670   6.897 -0.2772  0.1457  0.3378
10197TIP3    H130536   4.262   2.593   6.944 -1.5226 -0.4355 -1.3516
10197TIP3    H230537   4.215   2.700   6.848  0.2129  2.3861  0.8497
10198TIP3   OH230538   5.092   5.876   1.295 -0.3477  0.0684  0.1212
10198TIP3    H130539   5.138   5.960   1.291 -0.4069  0.0539 -1.3500
10198TIP3    H230540   5.071   5.864   1.388 -0.6400  1.8402  0.3071
10199TIP3   OH230541   8.278   0.994   0.559 -0.0322  0.1532  0.5062
10199TIP3    H130542   8.348   0.932   0.536 -0.7836  0.0419 -1.6294
10199TIP3    H230543   8.324   1.075   0.581  0.7847  0.0883 -0.8901
10200TIP3   OH230544   6.705   6.949   1.940 -0.1055 -0.3276 -0.5258
10200TIP3    H130545   6.791   6.911   1.957  0.1521 -0.7816 -2.7241
10200TIP3    H230546   6.667   6.894   1.871 -0.5372  2.1788 -2.3800
10201TIP3   OH230547   4.904   5.174   0.263 -0.1400 -0.1831  0.4783
10201TIP3    H130548   4.827   5.171   0.206  1.7190 -0.4055 -2.0615
10201TIP3    H230549   4.883   5.241   0.328 -0.9088  2.6477 -2.5405
10202TIP3   OH230550   3.346   2.882   5.804 -0.0689 -0.2174 -0.2008
10202TIP3    H130551   3.277   2.816   5.812 -0.8970  0.6997  0.3126
10202TIP3    H230552   3.341   2.932   5.886  1.4147 -0.3520 -0.0290
10203TIP3   OH230553   3.397   1.463   6.129  0.1826  0.0693  0.0170
10203TIP3    H130554   3.483   1.449   6.168 -0.7030 -0.6549  1.7881
10203TIP3    H230555   3.358   1.375   6.125 -0.3789  0.3569 -1.0064
10204TIP3   OH230556   4.548   4.130   5.404  0.2927 -0.0412 -0.1474
10204TIP3    H130557   4.505   4.214   5.420  0.8868  0.5890 -1.7689
10204TIP3    H230558   4.485   4.065   5.436  0.0456  1.0315  1.5794
10205TIP3   OH230559   0.099   0.214   0.248  0.2468  0.0251 -0.1971
10205TIP3    H130560   0.031   0.219   0.315  1.7811 -0.6370  1.4430
10205TIP3    H230561   0.114   0.305   0.223 -0.0843  0.3016  0.6031
10206TIP3   OH230562   5.614   6.419   2.135 -0.6314 -0.3242  0.0462
10206TIP3    H130563   5.526   6.457   2.132 -0.6257 -0.4200 -1.7371
10206TIP3    H230564   5.665   6.480   2.189 -1.2748  0.8391 -0.6595
10207TIP3   OH230565   2.955   1.156   6.444 -0.0815 -0.6295  0.6398
10207TIP3    H130566   2.968   1.081   6.502 -2.6406 -2.6652 -1.2669
10207TIP3    H230567   2.980   1.124   6.357 -0.1129  1.0836 -0.0189
10208TIP3   OH230568   5.971   6.638   0.267 -0.4250 -0.2031 -0.0913
10208TIP3    H130569   5.879   6.658   0.247 -0.7151 -0.3166  1.0823
10208TIP3    H230570   5.978   6.651   0.362  0.6787 -0.5635 -0.1209
10209TIP3   OH230571   2.591   3.100   6.540 -0.2292  0.0458  0.0836
10209TIP3    H130572   2.534   3.025   6.559 -0.1218  0.1696  0.9281
10209TIP3    H230573   2.534   3.176   6.550 -0.7292  0.0124 -2.3084
10210TIP3   OH230574   1.825   2.431   6.278 -0.3295 -0.3130  0.0846
10210TIP3    H130575   1.896   2.405   6.220  0.4692 -0.5339  1.1528
10210TIP3    H230576   1.792   2.348   6.313  0.5155 -0.0718  1.4899
10211TIP3   OH230577   4.424   6.812   0.636  0.5228  0.0504  0.3873
10211TIP3    H130578   4.512   6.778   0.619  0.7538  0.0520  1.5448
10211TIP3    H230579   4.437   6.906   0.647  0.2460  0.1702 -0.2534
10212TIP3   OH230580   7.852   6.515   0.655  0.2943  0.2888  0.4586
10212TIP3    H130581   7.867   6.517   0.749  0.4436  0.7293  0.4251
10212TIP3    H230582   7.870   6.424   0.630  1.4939  0.4647  0.6509
10213TIP3   OH230583   5.682   4.194   0.412 -0.1911 -0.1871 -0.3781
10213TIP3    H130584   5.616   4.236   0.356 -2.0680 -3.1395 -0.4939
10213TIP3    H230585   5.717   4.123   0.359 -0.8334 -2.0119  1.5354
10214TIP3   OH230586   5.183   5.949   0.655 -0.0388 -0.5726  0.1469
10214TIP3    H130587   5.109   5.993   0.613 -0.8697 -1.4798  0.6285
10214TIP3    H230588   5.178   5.859   0.622  0.0376 -0.9751  1.2334
10215TIP3   OH230589   3.307   3.414   6.378  0.3618 -0.0172 -0.4612
10215TIP3    H130590   3.337   3.504   6.370 -1.8293  0.9385  1.4031
10215TIP3    H230591   3.383   3.366   6.409  1.2623  1.4103 -0.4281
10216TIP3   OH230592   5.383   6.252   1.074  0.0887 -0.0547 -0.4301
10216TIP3    H130593   5.456   6.214   1.026  3.2800  3.9007  1.0098
10216TIP3    H230594   5.419   6.276   1.159 -3.2105  0.9724  0.7892
10217TIP3   OH230595   2.723   3.312   6.174  0.9927 -0.4876 -0.0873
10217TIP3    H130596   2.693   3.288   6.087 -1.0234 -1.1380  0.7468
10217TIP3    H230597   2.716   3.407   6.177  1.3194 -0.4451 -0.7311
10218TIP3   OH230598   4.388   6.171   0.746  0.0490 -0.2467 -0.1568
10218TIP3    H130599   4.382   6.253   0.796 -2.3470 -0.2430 -0.3733
10218TIP3    H230600   4.400   6.199   0.655 -0.8356 -0.1126 -0.2398
10219TIP3   OH230601   1.802   0.566   6.830  0.3102  0.1461 -0.4791
10219TIP3    H130602   1.747   0.490   6.846  0.3394 -0.0526 -1.3233
10219TIP3    H230603   1.838   0.588   6.916 -2.1899  1.1365  0.3754
10220TIP3   OH230604   3.785   4.156   5.758 -0.3125  0.3872  0.2674
10220TIP3    H130605   3.798   4.249   5.739 -1.5589  0.3200 -0.9767
10220TIP3    H230606   3.873   4.122   5.772  0.1965  1.6314  0.1340
10221TIP3   OH230607   6.940   5.199   0.004  0.6253 -0.7679 -0.1070
10221TIP3    H130608   7.012   5.237   0.054  0.6661 -1.8671  0.7077
10221TIP3    H230609   6.961   5.105   0.001 -0.2931 -0.9557 -0.6577
10222TIP3   OH230610   6.445   6.182   2.017  0.1613  0.0013 -0.1844
10222TIP3    H130611   6.517   6.229   2.059 -1.2100  0.4662  1.7409
10222TIP3    H230612   6.479   6.156   1.931  1.7139  2.5232 -0.3754
10223TIP3   OH230613   7.861   6.362   0.221  0.1983  0.6449 -0.7667
10223TIP3    H130614   7.783   6.307   0.228  0.2226  0.6998  0.0896
10223TIP3    H230615   7.830   6.443   0.180 -0.2862  0.8262 -0.0573
10224TIP3   OH230616   1.942   2.896   5.829  0.1154  0.0699  0.9084
10224TIP3    H130617   2.017   2.940   5.790 -0.5907  0.1675 -0.3657
10224TIP3    H230618   1.868   2.919   5.773 -0.6142 -1.1507  1.3372
10225TIP3   OH230619   6.724   6.539   0.931  0.7937  0.3889  0.4927
10225TIP3    H130620   6.788   6.489   0.983  0.2333  0.7074  1.5119
10225TIP3    H230621   6.664   6.473   0.898  1.5670  0.1034 -0.3496
10226TIP3   OH230622   3.556   3.638   6.069 -0.0926  0.4249 -0.0207
10226TIP3    H130623   3.518   3.723   6.047 -2.1211 -0.1404  1.1407
10226TIP3    H230624   3.591   3.604   5.987  0.2305  2.1366 -0.5968
10227TIP3   OH230625   4.540   4.835   5.033  0.3618  0.1411 -0.3403
10227TIP3    H130626   4.560   4.871   4.947 -1.2596 -0.0971 -0.8301
10227TIP3    H230627   4.581   4.748   5.034 -1.4598 -0.7607 -1.7124
10228TIP3   OH230628   1.167   0.323   6.862 -0.1378  0.4997  0.5289
10228TIP3    H130629   1.167   0.396   6.923  0.0239  0.2924  0.7831
10228TIP3    H230630   1.084   0.278   6.877 -0.0810  0.4265  0.6228
10229TIP3   OH230631   6.258   5.011   0.505  0.3831  0.0816  0.0187
10229TIP3    H130632   6.337   5.037   0.553  1.1740  1.6311 -2.0385
10229TIP3    H230633   6.290   4.992   0.417 -1.2337 -1.4789 -0.2562
10230TIP3   OH230634   4.084   1.825   6.221 -0.1393 -0.2921 -0.4626
10230TIP3    H130635   4.127   1.801   6.304  1.8611  1.9374 -0.8032
10230TIP3    H230636   4.029   1.900   6.242  0.0611  0.0282 -1.0489
10231TIP3   OH230637   2.524   3.429   5.143 -0.4447 -0.3380 -0.4839
10231TIP3    H130638   2.429   3.429   5.132 -0.2058  0.3655 -2.8082
10231TIP3    H230639   2.556   3.482   5.071  1.7798 -1.3196 -0.2449
10232TIP3   OH230640   0.144   0.434   0.920 -0.4009  0.2960 -0.2948
10232TIP3    H130641   0.163   0.346   0.887 -1.2537  0.1221 -0.3259
10232TIP3    H230642   0.151   0.426   1.015 -1.6553 -0.0931 -0.2283
10233TIP3   OH230643   4.237   4.666   1.468 -0.1978 -0.1476  0.3069
10233TIP3    H130644   4.313   4.630   1.514 -0.7530 -1.1128  0.4731
10233TIP3    H230645   4.195   4.589   1.429 -1.2296  0.3624  0.4205
10234TIP3   OH230646   5.197   6.480   0.319  0.2253 -0.1821 -0.0639
10234TIP3    H130647   5.218   6.536   0.244  0.7505  0.2826  0.4333
10234TIP3    H230648   5.104   6.494   0.333  0.4671  0.9875  0.4066
10235TIP3   OH230649   3.993   4.784   6.410 -0.1458  0.3436  0.1696
10235TIP3    H130650   3.960   4.760   6.324  1.9961 -0.2057 -0.5278
10235TIP3    H230651   3.932   4.850   6.442 -0.6383  0.9680 -2.0149
10236TIP3   OH230652   6.158   6.495   0.752  0.1378  0.5533  0.1071
10236TIP3    H130653   6.127   6.421   0.803  0.8958  0.2775  0.1753
10236TIP3    H230654   6.104   6.494   0.673  0.6691 -0.5693 -0.2647
10237TIP3   OH230655   5.528   6.919   2.338  0.3003 -0.6096 -0.0059
10237TIP3    H130656   5.487   6.890   2.420 -1.4344  0.3366 -0.4997
10237TIP3    H230657   5.479   6.998   2.314  2.8008  0.9118 -0.3442
10238TIP3   OH230658   6.147   6.955   0.658 -0.4333 -0.0546  0.6143
10238TIP3    H130659   6.068   6.926   0.612 -0.5010 -0.6248  1.0853
10238TIP3    H230660   6.185   6.875   0.693 -1.2165  0.5423  2.8721
10239TIP3   OH230661   6.083   6.671   0.966 -0.1346 -0.1899  0.0763
10239TIP3    H130662   6.102   6.598   1.025  0.7377 -1.1692 -1.3864
10239TIP3    H230663   6.093   6.635   0.879 -1.2067  1.3029 -0.6949
10240TIP3   OH230664   6.594   1.742   5.737  1.0258  0.2783 -0.8292
10240TIP3    H130665   6.579   1.649   5.723 -1.7037  0.5028  0.2928
10240TIP3    H230666   6.599   1.779   5.649 -1.1790 -0.4479 -1.2817
10241TIP3   OH230667   0.574   1.149   5.010 -0.5480  0.0814  0.2502
10241TIP3    H130668   0.511   1.149   4.938 -0.0297 -1.7640 -0.2367
10241TIP3    H230669   0.648   1.200   4.978 -1.3749  1.4385  0.4613
10242TIP3   OH230670   4.373   3.078   6.681  0.6449  0.1157  0.0946
10242TIP3    H130671   4.381   3.165   6.721  0.5609 -0.4836  1.4226
10242TIP3    H230672   4.328   3.025   6.746  0.4954 -0.8814 -0.8014
10243TIP3   OH230673   4.962   6.056   0.522  0.9343  0.1852 -0.0186
10243TIP3    H130674   4.907   6.011   0.458 -0.2252  2.0289 -0.3684
10243TIP3    H230675   4.926   6.032   0.607  0.7315 -0.0438 -0.1703
10244TIP3   OH230676   2.746   2.776   6.610 -0.1216  0.1537  0.1818
10244TIP3    H130677   2.733   2.736   6.524 -0.9365  0.1469  0.3112
10244TIP3    H230678   2.659   2.803   6.638  0.1706  0.3442  0.9173
10245TIP3   OH230679   6.633   7.754   0.394  0.0166  0.0384  0.1532
10245TIP3    H130680   6.674   7.809   0.461  0.5905 -0.2029  0.0021
10245TIP3    H230681   6.565   7.809   0.357 -0.4174  0.1146  1.0531
10246TIP3   OH230682   5.739   6.355   0.765 -0.5440 -0.3482 -0.5225
10246TIP3    H130683   5.732   6.342   0.860 -1.0263 -0.8484 -0.6268
10246TIP3    H230684   5.714   6.446   0.751 -0.8712 -0.3910 -0.2142
10247TIP3   OH230685   4.009   4.176   5.557 -0.0011 -0.2634 -0.1236
10247TIP3    H130686   3.922   4.202   5.529 -0.1927 -1.5674 -0.7868
10247TIP3    H230687   4.068   4.207   5.488 -0.1122 -0.6685 -0.4023
10248TIP3   OH230688   5.557   4.671   1.662 -0.0699 -0.2044 -0.7514
10248TIP3    H130689   5.478   4.703   1.618 -0.7191 -1.2511 -0.3678
10248TIP3    H230690   5.589   4.746   1.711 -2.1427 -0.3728  0.9559
10249TIP3   OH230691   5.296   3.854   6.298  0.3251  0.3711 -0.2759
10249TIP3    H130692   5.274   3.884   6.386  1.6458 -0.6655  0.4229
10249TIP3    H230693   5.242   3.776   6.285  0.1691  0.4937 -0.3642
10250TIP3   OH230694   3.887   5.019   5.774  0.1782  0.5092  0.1428
10250TIP3    H130695   3.871   4.984   5.686 -0.1007  0.1617  0.3304
10250TIP3    H230696   3.965   4.973   5.804 -1.1930 -1.2354  1.0732
10251TIP3   OH230697   5.215   5.362   4.649 -0.1452 -0.2135  0.0155
10251TIP3    H130698   5.123   5.389   4.647 -0.7862 -2.3301 -1.6808
10251TIP3    H230699   5.218   5.295   4.717  0.2276  0.1558  0.3603
10252TIP3   OH230700   4.638   6.031   0.763  0.4630  0.2143  0.2098
10252TIP3    H130701   4.548   6.064   0.760 -0.1561 -1.3189  1.3616
10252TIP3    H230702   4.685   6.095   0.817 -0.3321  0.0977  1.0434
10253TIP3   OH230703   4.389   3.924   5.492 -0.4485  0.5060 -0.0826
10253TIP3    H130704   4.371   3.865   5.566 -0.4220 -0.1370 -0.5799
10253TIP3    H230705   4.330   3.893   5.423 -0.5666  1.1873 -0.2846
10254TIP3   OH230706   6.753   5.998   3.603 -0.1113 -0.3936 -0.2010
10254TIP3    H130707   6.721   5.907   3.600  1.6963 -1.0292 -0.7485
10254TIP3    H230708   6.792   6.013   3.517  0.6571  0.5106  0.2984
10255TIP3   OH230709   3.115   4.682   6.594  0.1488  0.0559  0.2048
10255TIP3    H130710   3.207   4.705   6.575  0.3105 -0.3968  0.4457
10255TIP3    H230711   3.069   4.766   6.589  1.2544  1.0211  4.2638
10256TIP3   OH230712   6.028   7.113   0.313 -0.7015  0.0110 -0.1636
10256TIP3    H130713   5.978   7.038   0.281 -2.2226  0.1190  1.8783
10256TIP3    H230714   5.967   7.186   0.308  0.1368  0.7164 -0.2035
10257TIP3   OH230715   4.851   4.184   1.966 -0.0592  0.2516  0.5003
10257TIP3    H130716   4.778   4.157   1.911  0.5428 -0.0795 -0.1434
10257TIP3    H230717   4.845   4.279   1.971 -0.6563  0.2052  0.6240
10258TIP3   OH230718   1.855   1.450   6.854  0.1668 -0.0095 -0.0500
10258TIP3    H130719   1.768   1.490   6.858  0.7497  1.2580  0.2446
10258TIP3    H230720   1.884   1.466   6.764  0.2534 -0.0601 -0.0308
10259TIP3   OH230721   4.891   5.707   0.539 -0.4029 -0.3446 -0.1566
10259TIP3    H130722   4.881   5.779   0.477 -0.2715 -0.9484 -0.8794
10259TIP3    H230723   4.881   5.748   0.625 -0.2640  0.5484 -0.5613
10260TIP3   OH230724   6.643   6.861   0.132  0.0824  0.2480 -0.0988
10260TIP3    H130725   6.693   6.783   0.109  0.0938 -0.0525  0.9145
10260TIP3    H230726   6.710   6.927   0.150  0.0849  0.2982 -0.2909
10261TIP3   OH230727   6.999   4.747   1.883  0.5222 -0.5089  0.2130
10261TIP3    H130728   6.997   4.680   1.952 -0.7783 -0.3485  0.3394
10261TIP3    H230729   6.922   4.728   1.830  1.4552 -0.5560 -1.1374
10262TIP3   OH230730   2.956   2.873   6.170 -0.2908  0.1180 -0.2032
10262TIP3    H130731   2.901   2.884   6.248  2.0537 -2.1312  1.8614
10262TIP3    H230732   2.952   2.780   6.150  0.6345  0.3709 -1.6585
10263TIP3   OH230733   5.454   5.181   1.398  0.0720 -0.1138  0.4071
10263TIP3    H130734   5.432   5.228   1.317  0.1189 -2.8674 -1.2655
10263TIP3    H230735   5.544   5.151   1.384  0.5150  0.4216  2.0135
10264TIP3   OH230736   2.335   2.404   6.549 -1.0383 -0.4753 -0.2585
10264TIP3    H130737   2.262   2.356   6.511 -1.4512  0.9253 -1.2830
10264TIP3    H230738   2.341   2.372   6.639 -3.7863  0.3307  0.2517
10265TIP3   OH230739   6.477   6.050   0.522 -0.1978 -0.4416 -0.1030
10265TIP3    H130740   6.402   6.109   0.533 -1.0295 -1.4653 -0.2519
10265TIP3    H230741   6.485   6.006   0.606  1.3173  0.8909  0.4850
10266TIP3   OH230742   3.899   1.795   6.527 -0.1397  0.2078 -0.2097
10266TIP3    H130743   3.993   1.795   6.511  0.1272 -0.6793  1.2728
10266TIP3    H230744   3.883   1.876   6.575 -0.1789  0.4481 -0.6183
10267TIP3   OH230745   7.296   6.703   1.486 -0.4171 -0.1044  0.0036
10267TIP3    H130746   7.209   6.743   1.479  0.1945  1.1116 -0.6465
10267TIP3    H230747   7.354   6.774   1.511  0.2574 -1.1054  1.3680
10268TIP3   OH230748   8.286   4.756   1.537  0.1475  0.2440 -0.1682
10268TIP3    H130749   8.207   4.742   1.484  0.1801 -2.2396  0.3679
10268TIP3    H230750   8.288   4.850   1.552 -3.0112  0.3251  0.2249
10269TIP3   OH230751   3.894   4.628   0.360  0.0238  0.0767  0.1749
10269TIP3    H130752   3.931   4.550   0.401  0.5024  1.1604  1.8635
10269TIP3    H230753   3.833   4.663   0.424 -2.7673 -0.7560 -1.9165
10270TIP3   OH230754   1.596   2.414   5.986  0.3216 -0.0654 -0.2132
10270TIP3    H130755   1.677   2.371   5.959 -0.2227 -1.1235 -0.1729
10270TIP3    H230756   1.535   2.343   6.003  0.0491  0.6293  1.9149
10271TIP3   OH230757   3.927   2.034   6.209 -0.3856  0.2682  0.3029
10271TIP3    H130758   3.956   2.053   6.120 -1.8128  0.2678 -0.1706
10271TIP3    H230759   3.837   2.067   6.214  0.0812  1.3787  2.1310
10272TIP3   OH230760   1.968   1.871   6.063  0.2140  0.0546  0.5000
10272TIP3    H130761   1.940   1.839   6.149 -1.6144  2.1108  0.7253
10272TIP3    H230762   2.064   1.873   6.068  0.1471 -0.4167  2.2845
10273TIP3   OH230763   6.275   7.032   1.729  0.1673  0.3007  0.0872
10273TIP3    H130764   6.334   7.101   1.699 -0.1477  0.3018 -0.5242
10273TIP3    H230765   6.212   7.020   1.658 -0.0459 -0.3123  0.3682
10274TIP3   OH230766   1.464   1.557   1.655 -0.4247 -0.1192 -0.2727
10274TIP3    H130767   1.386   1.533   1.605  0.6648 -2.1409 -1.0523
10274TIP3    H230768   1.440   1.540   1.746 -1.0932 -0.1786 -0.4593
10275TIP3   OH230769   5.175   1.493   4.533 -0.7807 -0.0387 -0.7393
10275TIP3    H130770   5.162   1.566   4.594 -0.2709 -0.3215 -0.2862
10275TIP3    H230771   5.109   1.506   4.465 -1.5541  0.1251  0.0250
10276TIP3   OH230772   1.625   3.268   6.937 -0.0963 -0.4011 -0.3260
10276TIP3    H130773   1.719   3.266   6.956 -0.0648  0.8347 -0.2743
10276TIP3    H230774   1.612   3.199   6.872  0.5371 -1.7450  0.9548
10277TIP3   OH230775   4.782   4.299   0.968 -0.7866  0.5216  0.5147
10277TIP3    H130776   4.805   4.225   0.912 -0.5135  1.1013 -0.1458
10277TIP3    H230777   4.698   4.330   0.933 -0.5103  1.0182  0.2821
10278TIP3   OH230778   4.525   6.151  -0.005  0.1536 -0.2394  0.6530
10278TIP3    H130779   4.566   6.220   0.048  1.7408 -0.9197  0.3235
10278TIP3    H230780   4.576   6.073   0.013 -2.1306 -1.5613  1.6423
10279TIP3   OH230781   2.489   3.956   6.235  0.2139  0.1294 -0.4066
10279TIP3    H130782   2.496   3.876   6.287  0.7146 -1.9213 -3.4842
10279TIP3    H230783   2.569   4.005   6.254  0.6709 -0.8819  0.2817
10280TIP3   OH230784   7.782   6.870   0.279 -0.1656 -0.0032  0.5981
10280TIP3    H130785   7.741   6.803   0.225 -0.2886  0.1706  0.4768
10280TIP3    H230786   7.845   6.822   0.333 -0.5362 -0.2661  0.7921
10281TIP3   OH230787   6.781   4.917   0.699 -0.0796 -0.0854 -0.6290
10281TIP3    H130788   6.848   4.975   0.734 -1.8739  2.4706 -1.3145
10281TIP3    H230789   6.808   4.899   0.609 -1.2888  2.6082 -1.5836
10282TIP3   OH230790   3.743   2.789   6.010  0.6668 -0.4427  0.3250
10282TIP3    H130791   3.768   2.807   6.101 -1.3564  1.5805  0.5349
10282TIP3    H230792   3.682   2.716   6.017  0.7340 -0.4770  0.5768
10283TIP3   OH230793   2.986   5.593   1.329  0.4151  0.6336  0.1130
10283TIP3    H130794   3.026   5.573   1.413 -1.4486 -1.0254  0.6408
10283TIP3    H230795   3.054   5.577   1.264  1.1821 -0.2247  1.1394
10284TIP3   OH230796   4.781   1.506   5.622  0.2429  0.2354  0.0627
10284TIP3    H130797   4.716   1.554   5.571  0.9583  1.1193 -0.0255
10284TIP3    H230798   4.739   1.488   5.706 -0.1019  0.8158  0.0112
10285TIP3   OH230799   2.197   2.169   6.789 -0.1088 -0.1381 -0.2163
10285TIP3    H130800   2.292   2.180   6.796  0.0736 -1.2529 -0.7304
10285TIP3    H230801   2.184   2.074   6.784 -1.3786 -0.0737  1.4938
10286TIP3   OH230802   5.464   7.351   2.306  0.0049  0.3909 -0.4440
10286TIP3    H130803   5.523   7.425   2.318 -1.1720  1.1189  1.0398
10286TIP3    H230804   5.385   7.389   2.267  0.1466 -0.4150 -1.5352
10287TIP3   OH230805   7.581   6.619   0.797  0.1599 -0.1371  0.0313
10287TIP3    H130806   7.492   6.596   0.768  0.5885 -1.4621 -0.2899
10287TIP3    H230807   7.637   6.593   0.723  0.7269  1.6014 -0.1663
10288TIP3   OH230808   8.217   7.397   0.178 -0.6143 -0.2156 -0.2337
10288TIP3    H130809   8.306   7.431   0.170 -0.6488  0.1225  0.7862
10288TIP3    H230810   8.229   7.302   0.190 -0.3762 -0.1269  0.2412
10289TIP3   OH230811   3.810   3.900   6.357 -0.0673  0.3527 -0.0369
10289TIP3    H130812   3.766   3.896   6.442 -0.1065 -1.6266 -0.1301
10289TIP3    H230813   3.860   3.819   6.352  1.3933  1.2900 -1.1406
10290TIP3   OH230814   3.784   3.004   6.483  0.1391 -0.1059  0.6950
10290TIP3    H130815   3.756   3.095   6.496 -1.9810 -0.4574 -1.3150
10290TIP3    H230816   3.770   2.962   6.568 -2.3540  0.5440  0.6235
10291TIP3   OH230817   2.420   4.254   6.018 -0.4767  0.4370 -0.1211
10291TIP3    H130818   2.480   4.236   6.091 -0.6800  0.4079  0.0388
10291TIP3    H230819   2.346   4.195   6.033 -1.2202  1.5071  0.4879
10292TIP3   OH230820   6.610   6.786   1.029 -0.0512 -0.2700 -0.6167
10292TIP3    H130821   6.669   6.853   0.995  0.0494 -0.2591 -0.4200
10292TIP3    H230822   6.661   6.706   1.026  0.4400 -0.0199  0.8349
10293TIP3   OH230823   4.650   6.941   0.135  0.3879  0.1849  0.1615
10293TIP3    H130824   4.556   6.954   0.123  0.3412 -0.1611  0.1513
10293TIP3    H230825   4.677   7.012   0.194 -0.4628 -1.5066  2.7033
10294TIP3   OH230826   5.031   1.395   6.795  0.3890  0.0801  0.0789
10294TIP3    H130827   5.014   1.451   6.719 -0.0137  0.5719  0.5367
10294TIP3    H230828   5.108   1.433   6.836  1.2665 -0.8285 -0.7040
10295TIP3   OH230829   4.702   5.991   1.193  0.2256 -0.5345 -0.2297
10295TIP3    H130830   4.622   6.035   1.164 -0.8598 -1.9399  0.5458
10295TIP3    H230831   4.762   6.062   1.217 -0.7478  0.5330 -0.9254
10296TIP3   OH230832   3.158   0.846   5.798 -0.7893  0.0859  0.0512
10296TIP3    H130833   3.253   0.847   5.807 -0.7338 -0.2960 -0.4730
10296TIP3    H230834   3.128   0.789   5.869 -0.6372  0.3258  0.3076
10297TIP3   OH230835   0.425   0.846   2.854 -0.0512  0.8150 -0.5266
10297TIP3    H130836   0.412   0.882   2.941 -0.8346 -1.4842  0.3405
10297TIP3    H230837   0.503   0.891   2.821  1.2787  0.4561  2.0352
10298TIP3   OH230838   4.911   1.754   3.570  0.0747 -0.0027 -0.5830
10298TIP3    H130839   4.851   1.812   3.523  1.0354  0.8527 -0.7621
10298TIP3    H230840   4.866   1.734   3.652  0.2535  1.9747  0.0218
10299TIP3   OH230841   0.542   0.458   2.724 -0.2896 -0.4302  0.2636
10299TIP3    H130842   0.627   0.483   2.759 -0.0546 -0.7060 -0.1029
10299TIP3    H230843   0.560   0.382   2.669 -1.2651 -2.6728  2.9093
10300TIP3   OH230844   4.724   2.102   5.800 -0.7158  0.4598  0.1371
10300TIP3    H130845   4.668   2.046   5.747  1.4631 -0.3705 -1.3149
10300TIP3    H230846   4.704   2.191   5.770 -3.3559  0.4678  1.6792
10301TIP3   OH230847   4.276   5.130   1.772 -0.5344  0.2445  0.0634
10301TIP3    H130848   4.199   5.155   1.823 -1.3831 -0.3777 -0.9231
10301TIP3    H230849   4.250   5.141   1.681 -0.4462 -2.7499 -0.3779
10302TIP3   OH230850   4.836   1.199   5.188 -0.2500 -0.1971 -0.0496
10302TIP3    H130851   4.759   1.152   5.160  0.1501 -1.5501  1.0578
10302TIP3    H230852   4.822   1.214   5.282  0.0473  1.0671 -0.1999
10303TIP3   OH230853   4.178   6.697   0.629 -0.8551  0.0498 -0.0635
10303TIP3    H130854   4.251   6.759   0.629  0.0464 -0.9762  1.3801
10303TIP3    H230855   4.148   6.696   0.538  1.0541  0.3519 -0.7241
10304TIP3   OH230856   7.254   5.979   1.082 -0.3248 -0.6019 -0.3783
10304TIP3    H130857   7.324   6.001   1.145 -2.1031  0.4684  1.2757
10304TIP3    H230858   7.262   6.045   1.014  0.6004 -0.8007 -0.4744
10305TIP3   OH230859   4.054   2.411   5.526 -0.0859  0.7910  0.4511
10305TIP3    H130860   4.067   2.432   5.619 -0.3721  0.8493  0.4776
10305TIP3    H230861   3.977   2.463   5.500 -1.3026 -0.8520  0.7250
10306TIP3   OH230862   1.216   2.641   5.210 -0.1556 -0.3765 -0.1106
10306TIP3    H130863   1.258   2.725   5.189  2.1617 -0.3181  4.1786
10306TIP3    H230864   1.261   2.578   5.154  0.8110  0.7211 -0.6091
10307TIP3   OH230865   7.080   4.453   0.562  0.0597  0.0611 -0.6407
10307TIP3    H130866   7.012   4.483   0.503 -0.4526 -1.1868 -0.6917
10307TIP3    H230867   7.132   4.532   0.581  1.5128  0.0909 -4.3869
10308TIP3   OH230868   4.358   1.664   6.616 -0.1604  0.2489  0.3053
10308TIP3    H130869   4.293   1.608   6.659  0.9296 -0.6069  0.9093
10308TIP3    H230870   4.437   1.609   6.613  0.4592  1.1816 -0.6075
10309TIP3   OH230871   4.977   5.406   4.833  0.5218 -0.0930 -0.7151
10309TIP3    H130872   5.017   5.490   4.809  0.6452 -0.2581 -1.0946
10309TIP3    H230873   4.883   5.425   4.839  0.5300  0.0359 -0.9717
10310TIP3   OH230874   3.000   2.099   6.071  0.5209 -0.1931 -0.6856
10310TIP3    H130875   2.976   2.035   6.003 -2.8593 -0.7017  0.8898
10310TIP3    H230876   3.007   2.047   6.151 -2.0746  1.3100  0.5753
10311TIP3   OH230877   4.889   2.762   6.666  0.4150  0.3189 -1.2981
10311TIP3    H130878   4.887   2.709   6.746 -0.4258 -0.2914 -1.7221
10311TIP3    H230879   4.975   2.745   6.629  0.4354 -0.1666 -1.0357
10312TIP3   OH230880   0.656   4.603   1.693 -0.2397 -0.0556 -0.1862
10312TIP3    H130881   0.684   4.694   1.697 -0.7319  0.1066 -0.3387
10312TIP3    H230882   0.627   4.591   1.602  1.6812 -0.9249 -0.7176
10313TIP3   OH230883   3.222   3.912   6.518  0.5392  0.2488  0.1402
10313TIP3    H130884   3.306   3.925   6.563  0.7243  0.9903 -0.4166
10313TIP3    H230885   3.235   3.835   6.463  0.6614  0.0029  0.5119
10314TIP3   OH230886   7.181   5.713   0.002 -0.0755 -0.1230 -0.1459
10314TIP3    H130887   7.180   5.760   0.085  1.6589 -1.9792  0.9658
10314TIP3    H230888   7.199   5.780  -0.064 -0.2770  1.1746  1.1025
10315TIP3   OH230889   6.489   4.344   0.806 -0.2078 -0.1799  0.1395
10315TIP3    H130890   6.400   4.313   0.789 -1.2280  2.8587 -0.3454
10315TIP3    H230891   6.525   4.360   0.719  0.1733  0.3417  0.3928
10316TIP3   OH230892   5.601   5.554   0.201 -0.1529  0.1508 -0.0761
10316TIP3    H130893   5.580   5.632   0.151 -0.3535 -0.9991 -1.8310
10316TIP3    H230894   5.520   5.502   0.200 -0.0130 -0.1044  1.0319
10317TIP3   OH230895   4.967   6.462   1.201 -0.4709  0.2196 -0.0408
10317TIP3    H130896   5.057   6.493   1.204 -0.4566  0.8860 -4.0541
10317TIP3    H230897   4.914   6.540   1.219 -0.2624  0.7855 -1.7322
10318TIP3   OH230898   0.176   0.568   0.675 -0.0804 -0.0724 -0.4681
10318TIP3    H130899   0.129   0.545   0.754  1.1072 -1.1537 -0.0507
10318TIP3    H230900   0.197   0.661   0.685 -0.6033 -0.0190  0.1289
10319TIP3   OH230901   4.865   3.479   6.550  0.0017  0.1956  0.0241
10319TIP3    H130902   4.940   3.465   6.493 -1.2972 -1.2947 -1.3840
10319TIP3    H230903   4.868   3.573   6.571  0.2799  0.8766 -2.8585
10320TIP3   OH230904   6.859   5.624   0.914 -0.4795  0.7078  0.1280
10320TIP3    H130905   6.856   5.708   0.958 -0.1442  1.2641 -0.8989
10320TIP3    H230906   6.787   5.627   0.851 -1.2246 -0.2489  0.9175
10321TIP3   OH230907   5.814   7.645   0.740 -0.6117 -0.1884 -0.6759
10321TIP3    H130908   5.740   7.605   0.787  0.1391  0.5453  1.1942
10321TIP3    H230909   5.869   7.571   0.715 -0.8006 -0.5756  0.0316
10322TIP3   OH230910   4.417   7.999   0.866  0.0041  0.2202 -0.0095
10322TIP3    H130911   4.391   7.949   0.788  0.2782 -0.3775  0.2768
10322TIP3    H230912   4.464   8.075   0.831 -0.0483  0.0565 -0.4393
10323TIP3   OH230913   0.702   1.812   0.853  0.1430 -0.2838  0.1715
10323TIP3    H130914   0.743   1.838   0.935 -0.0552 -1.4876  0.6526
10323TIP3    H230915   0.772   1.768   0.804 -0.0819 -0.6938  0.2214
10324TIP3   OH230916   3.472   2.605   6.603 -0.3014 -0.1169  0.4719
10324TIP3    H130917   3.518   2.672   6.552 -0.0565 -0.2093  0.5717
10324TIP3    H230918   3.383   2.606   6.568 -0.0162 -0.4910 -0.2758
10325TIP3   OH230919   6.403   7.710   1.149 -0.4071 -0.3537 -0.2132
10325TIP3    H130920   6.431   7.646   1.084 -1.4371 -0.3833 -0.6487
10325TIP3    H230921   6.420   7.795   1.108 -1.2075 -0.3739 -0.5932
10326TIP3   OH230922   4.594   4.926   4.782  0.0208 -0.2164  0.0435
10326TIP3    H130923   4.504   4.921   4.750  0.4083  0.2937 -1.1575
10326TIP3    H230924   4.635   4.845   4.754 -0.3147 -0.8853  1.4277
10327TIP3   OH230925   4.784   7.363   1.875 -0.0004  0.0039 -0.7643
10327TIP3    H130926   4.854   7.406   1.924  2.1838 -1.2713 -2.6857
10327TIP3    H230927   4.746   7.300   1.936 -0.1016  1.3134  0.5630
10328TIP3   OH230928   3.803   1.888   5.865  0.4536 -0.2192  0.0372
10328TIP3    H130929   3.786   1.929   5.780  0.8908 -1.9049 -0.8818
10328TIP3    H230930   3.853   1.954   5.914 -0.2916  0.9874 -0.7810
10329TIP3   OH230931   5.667   5.608   0.892 -0.1885  0.0892  0.4523
10329TIP3    H130932   5.705   5.531   0.936 -0.3518  0.1492  0.7006
10329TIP3    H230933   5.742   5.652   0.853 -0.0099  0.1455  0.8506
10330TIP3   OH230934   4.302   3.912   6.019 -0.3265  0.2270 -0.1445
10330TIP3    H130935   4.237   3.962   6.068 -1.2864 -0.4358 -0.7299
10330TIP3    H230936   4.315   3.963   5.939 -1.3517 -0.4720 -0.7695
10331TIP3   OH230937   5.527   5.991   0.147  0.4773 -0.4419  0.3554
10331TIP3    H130938   5.484   5.909   0.124  1.0566 -0.3543 -1.0924
10331TIP3    H230939   5.528   6.041   0.066  0.3886  0.8925  1.1586
10332TIP3   OH230940   4.086   5.330   0.934  0.1921 -0.0681  0.0139
10332TIP3    H130941   4.120   5.374   0.857 -1.5405  1.2901 -0.0235
10332TIP3    H230942   4.147   5.352   1.004 -0.3497  2.0078 -0.1305
10333TIP3   OH230943   5.331   5.413   0.273 -0.3261  0.0410 -0.1223
10333TIP3    H130944   5.249   5.459   0.252 -0.1542  1.1787  1.5962
10333TIP3    H230945   5.302   5.328   0.306 -0.8261  0.3879  0.3576
10334TIP3   OH230946   0.489   0.315   0.121  0.0684  0.5528  0.0963
10334TIP3    H130947   0.452   0.402   0.137  0.6192  1.2678 -2.3165
10334TIP3    H230948   0.421   0.255   0.150 -0.3655  1.7675  1.6987
10335TIP3   OH230949   4.650   2.668   4.574 -0.3618 -0.3994  0.7056
10335TIP3    H130950   4.702   2.735   4.530 -0.0918  0.9338  2.9686
10335TIP3    H230951   4.676   2.586   4.532 -1.2862  0.9629 -2.6392
10336TIP3   OH230952   6.027   7.831   2.067 -0.7123 -0.4967  0.1703
10336TIP3    H130953   5.972   7.905   2.042  1.3678  0.4014 -1.9243
10336TIP3    H230954   6.009   7.764   2.001 -0.3095 -0.7120  0.2732
10337TIP3   OH230955   6.501   6.592   0.531 -0.3420 -0.5055  0.0268
10337TIP3    H130956   6.577   6.649   0.545 -0.7380  0.4131 -1.5083
10337TIP3    H230957   6.429   6.635   0.578  0.2616 -1.9037  2.3641
10338TIP3   OH230958   0.393   5.412   0.088 -0.7190 -0.7377 -0.0657
10338TIP3    H130959   0.432   5.455   0.165 -1.2993 -1.7151  0.7794
10338TIP3    H230960   0.346   5.337   0.123 -1.7077 -0.7131 -1.2986
10339TIP3   OH230961   5.750   5.942   0.009 -0.2948 -0.2636 -0.6968
10339TIP3    H130962   5.701   5.958   0.089  1.4245  0.4766  0.2304
10339TIP3    H230963   5.797   5.860   0.025  0.4491  0.1509 -0.7561
10340TIP3   OH230964   6.616   5.597   0.695  0.7741 -0.8253  0.1900
10340TIP3    H130965   6.644   5.512   0.729 -1.2052 -0.4451  2.9134
10340TIP3    H230966   6.525   5.605   0.721  0.1516  0.9931 -2.3988
10341TIP3   OH230967   1.823   1.203   1.409  0.1666  0.2572  0.1338
10341TIP3    H130968   1.752   1.255   1.448  0.7489  1.0752  0.1095
10341TIP3    H230969   1.841   1.135   1.474  1.4500  1.8975  1.5440
10342TIP3   OH230970   4.433   2.329   6.843  0.1344 -0.4217 -0.2916
10342TIP3    H130971   4.352   2.327   6.792  0.0177 -0.1526 -0.1198
10342TIP3    H230972   4.410   2.287   6.926  0.4690 -1.3505 -0.6664
10343TIP3   OH230973   5.836   4.771   0.094  0.3181 -0.0911  0.4319
10343TIP3    H130974   5.786   4.728   0.024  0.8803  0.6703 -0.4397
10343TIP3    H230975   5.909   4.711   0.112  1.2359  0.5933 -0.9493
10344TIP3   OH230976   5.997   7.365   0.199  0.2378 -0.0081  0.5182
10344TIP3    H130977   5.986   7.453   0.162 -0.1510  0.5184  1.8533
10344TIP3    H230978   6.084   7.366   0.239  1.3996 -1.1563 -1.8944
10345TIP3   OH230979   2.070   2.384   6.093  0.4244 -0.1343 -0.1548
10345TIP3    H130980   2.095   2.326   6.165 -0.8898 -0.5066  0.0139
10345TIP3    H230981   2.139   2.451   6.091  1.4493 -1.1459  0.2608
10346TIP3   OH230982   7.913   7.294   2.903  0.0322 -0.5320  0.0631
10346TIP3    H130983   7.848   7.302   2.833 -1.6015 -2.0659  1.3298
10346TIP3    H230984   7.983   7.241   2.865  0.8851  1.6672 -1.5204
10347TIP3   OH230985   7.349   6.548   1.976  0.6870  0.2283  0.4505
10347TIP3    H130986   7.310   6.617   1.923  0.1752 -0.0934  0.4018
10347TIP3    H230987   7.329   6.467   1.929 -1.1005 -0.2072  1.9062
10348TIP3   OH230988   8.071   6.686   0.809  0.6396  0.0645  0.6073
10348TIP3    H130989   8.013   6.629   0.860  0.6038  0.7600  1.3561
10348TIP3    H230990   8.159   6.664   0.840  0.6432  0.2405  0.7221
10349TIP3   OH230991   6.617   5.322   0.785  0.2737  0.4409  0.4493
10349TIP3    H130992   6.592   5.249   0.729 -0.3828  1.0991 -0.1259
10349TIP3    H230993   6.702   5.350   0.751  0.3580  0.1789  0.4435
10350TIP3   OH230994   3.736   3.305   6.586 -0.0885 -0.2885 -0.2669
10350TIP3    H130995   3.670   3.283   6.652 -0.3552 -0.3933 -0.5640
10350TIP3    H230996   3.788   3.374   6.626  1.4277 -2.1517  1.1173
10351TIP3   OH230997   5.774   4.679   6.372  0.9828 -0.1301  0.0934
10351TIP3    H130998   5.679   4.679   6.361  1.2131 -0.3746 -2.0556
10351TIP3    H230999   5.787   4.650   6.462 -1.0290  1.5161  0.9777
10352TIP3   OH231000   5.044   3.627   6.771  0.3268 -0.1486 -0.1629
10352TIP3    H131001   5.129   3.627   6.816  0.5543  1.5471 -0.5829
10352TIP3    H231002   4.980   3.619   6.841  0.7681  0.1948  0.2827
10353TIP3   OH231003   3.641   6.507   0.561  0.1373 -0.3443 -0.5355
10353TIP3    H131004   3.561   6.473   0.521  0.5980  1.3110 -2.9659
10353TIP3    H231005   3.699   6.431   0.565 -2.1063 -1.9990  2.9359
10354TIP3   OH231006   6.128   1.167   0.997  0.4281  0.7823  1.0722
10354TIP3    H131007   6.121   1.107   0.923  2.1784  1.8224  0.0205
10354TIP3    H231008   6.085   1.122   1.069 -1.0274 -0.3921 -0.4907
10355TIP3   OH231009   4.633   1.500   5.839 -0.2601 -0.4856 -0.7030
10355TIP3    H131010   4.547   1.503   5.881 -0.1594  0.2235 -0.5393
10355TIP3    H231011   4.695   1.498   5.911 -0.1373 -1.1965 -0.8202
10356TIP3   OH231012   2.117   4.740   5.722 -0.0193  0.2257  0.2922
10356TIP3    H131013   2.152   4.763   5.808  1.0433  0.0774 -0.0891
10356TIP3    H231014   2.192   4.707   5.674 -0.6467  0.1214 -0.6335
10357TIP3   OH231015   7.467   6.323   0.228  0.6646 -0.6267  0.7207
10357TIP3    H131016   7.449   6.416   0.242  0.1749 -0.6077  0.0061
10357TIP3    H231017   7.473   6.286   0.316  1.7053  0.2356  1.0268
10358TIP3   OH231018   6.302   6.718   0.676  0.0544  0.0338 -0.1976
10358TIP3    H131019   6.331   6.760   0.757  1.6223  0.0773 -0.7719
10358TIP3    H231020   6.256   6.639   0.706 -0.4236  0.6740  0.7769
10359TIP3   OH231021   5.499   2.718   6.716  0.0475 -0.0390 -0.0772
10359TIP3    H131022   5.408   2.702   6.690  0.6634 -1.2327 -1.5681
10359TIP3    H231023   5.549   2.706   6.636  1.4201  1.6891  0.5094
10360TIP3   OH231024   7.341   6.613   0.703 -0.1469  0.6515  0.4923
10360TIP3    H131025   7.304   6.537   0.657 -1.1246  1.7078 -0.5356
10360TIP3    H231026   7.275   6.635   0.769  0.2796  0.4160  0.9957
10361TIP3   OH231027   2.313   3.800   6.714 -0.2885  0.6736 -0.1896
10361TIP3    H131028   2.342   3.860   6.646 -0.3706  1.0497  0.1005
10361TIP3    H231029   2.387   3.795   6.775 -0.3432  0.6087 -0.1282
10362TIP3   OH231030   5.259   1.198   4.079  0.0515 -0.1833 -0.5840
10362TIP3    H131031   5.351   1.184   4.059  0.2886  0.1401  0.2807
10362TIP3    H231032   5.226   1.111   4.103  0.7422  0.1340  1.5744
10363TIP3   OH231033   3.735   1.330   5.958  0.1914  0.4105  0.6810
10363TIP3    H131034   3.789   1.275   5.902 -0.7534  0.0310  0.1221
10363TIP3    H231035   3.743   1.418   5.921  2.1294  0.7743  1.8946
10364TIP3   OH231036   1.928   0.935   4.766 -0.3210 -0.4872 -0.0769
10364TIP3    H131037   2.018   0.912   4.743 -0.6276 -0.2790 -1.5359
10364TIP3    H231038   1.901   0.998   4.699 -1.0154  0.7048  1.2774
10365TIP3   OH231039   3.020   3.552   5.989 -0.3712  0.1439  0.1038
10365TIP3    H131040   3.114   3.563   6.007  0.3654 -2.6786 -1.5923
10365TIP3    H231041   3.016   3.474   5.933 -3.6865  0.6673 -0.4721
10366TIP3   OH231042   6.504   8.013   1.147 -0.0023 -0.5498  0.5807
10366TIP3    H131043   6.581   7.995   1.093 -0.1744  2.4670 -0.7719
10366TIP3    H231044   6.430   8.007   1.086 -0.5117 -0.2418  1.1625
10367TIP3   OH231045   7.304   6.661   1.194  0.6360 -1.2643  0.5886
10367TIP3    H131046   7.315   6.696   1.282  0.2283  1.2985 -0.3279
10367TIP3    H231047   7.390   6.673   1.153 -0.5519  2.5619 -1.0128
10368TIP3   OH231048   4.294   2.070   6.112  0.1400 -0.2771  0.6359
10368TIP3    H131049   4.375   2.072   6.162  0.8485 -0.5537 -0.4907
10368TIP3    H231050   4.239   2.136   6.153  1.4731  0.9398  0.4999
10369TIP3   OH231051   3.797   1.629   6.274  0.0535  0.3376 -0.4538
10369TIP3    H131052   3.810   1.668   6.188  1.4633 -1.4195 -1.0755
10369TIP3    H231053   3.878   1.579   6.290 -0.4624  0.1051  1.5925
10370TIP3   OH231054   3.996   3.464   6.764  0.5975  0.2091 -0.3335
10370TIP3    H131055   3.929   3.500   6.706 -0.3309 -2.5036 -1.0512
10370TIP3    H231056   4.005   3.528   6.834 -0.7837  1.9058 -1.6724
10371TIP3   OH231057   1.809   6.994   5.825  0.7497 -0.3143 -0.5788
10371TIP3    H131058   1.850   6.911   5.802  0.6243 -0.2741 -0.9480
10371TIP3    H231059   1.737   6.969   5.883  2.5177 -0.2296  1.7414
10372TIP3   OH231060   2.892   3.044   6.488 -0.7391 -0.0270 -0.3736
10372TIP3    H131061   2.838   2.970   6.518 -2.2083  0.7894 -0.9175
10372TIP3    H231062   2.835   3.120   6.498 -0.0505  0.7133 -1.9702
10373TIP3   OH231063   4.957   1.732   6.804  0.2307  0.5135  0.2762
10373TIP3    H131064   5.011   1.784   6.864  0.1576  0.6365  0.2343
10373TIP3    H231065   4.934   1.792   6.734  1.4991 -0.0157 -0.6007
10374TIP3   OH231066   7.834   7.305   0.307 -0.0627 -0.4807  0.2091
10374TIP3    H131067   7.877   7.232   0.261  1.1622 -0.2051  0.8984
10374TIP3    H231068   7.795   7.264   0.384  1.2368 -0.3017  0.9729
10375TIP3   OH231069   4.089   5.313   2.107  0.2823 -0.2739  0.1382
10375TIP3    H131070   4.015   5.372   2.096  0.0378 -0.7068 -0.5475
10375TIP3    H231071   4.161   5.355   2.060 -0.4239 -1.4955 -2.0775
10376TIP3   OH231072   3.376   5.171   1.194  0.1785  0.1227  0.3801
10376TIP3    H131073   3.409   5.254   1.158  0.2687 -1.1679 -2.6713
10376TIP3    H231074   3.446   5.108   1.178 -0.6723 -0.9744  0.9052
10377TIP3   OH231075   2.530   0.296   2.138  0.6455 -0.1331 -0.2366
10377TIP3    H131076   2.591   0.319   2.067 -0.1337  1.8810 -0.2860
10377TIP3    H231077   2.462   0.244   2.096  1.6925 -1.3986 -0.4014
10378TIP3   OH231078   3.332   1.213   6.420  0.4838  0.5770  0.1438
10378TIP3    H131079   3.249   1.247   6.452 -0.8289 -2.7137  0.4702
10378TIP3    H231080   3.316   1.191   6.328  1.3495  0.9772 -0.1131
10379TIP3   OH231081   6.897   7.232   0.305 -0.2991 -0.2073  0.5235
10379TIP3    H131082   6.864   7.171   0.239 -0.6972 -0.1303  0.6480
10379TIP3    H231083   6.847   7.312   0.289  0.3050  0.1235  0.2843
10380TIP3   OH231084   4.064   3.554   6.095  0.5752  0.2854 -0.6548
10380TIP3    H131085   3.981   3.514   6.068 -0.1730  1.4415 -0.0714
10380TIP3    H231086   4.067   3.638   6.049 -0.0763  1.6669  1.7517
10381TIP3   OH231087   3.981   2.864   4.176  0.9002 -0.0539 -0.0284
10381TIP3    H131088   3.941   2.944   4.143  0.3000 -0.3489 -0.0188
10381TIP3    H231089   4.060   2.852   4.122  1.5027  1.0460  0.5847
10382TIP3   OH231090   3.076   3.429   6.548  0.0189 -0.3063  0.3662
10382TIP3    H131091   3.161   3.404   6.510 -0.6049 -1.2976 -0.3887
10382TIP3    H231092   3.014   3.420   6.476 -0.8016  0.0438  1.0239
10383TIP3   OH231093   6.015   6.801   1.222  0.1276 -0.0150  0.3049
10383TIP3    H131094   6.000   6.878   1.167 -0.8002  0.0740  0.6793
10383TIP3    H231095   5.928   6.774   1.251  0.4523 -1.1834  0.2155
10384TIP3   OH231096   1.353   3.855   5.186 -0.3435  0.2841 -0.2888
10384TIP3    H131097   1.309   3.940   5.174  0.9762  0.9922 -0.2147
10384TIP3    H231098   1.409   3.846   5.109  0.5796  0.1382  0.3939
10385TIP3   OH231099   0.230   0.969   1.146  0.2725 -0.5883 -0.1320
10385TIP3    H131100   0.199   0.978   1.056  1.4272  1.0098 -0.3923
10385TIP3    H231101   0.261   1.057   1.170  0.7809 -1.1978  1.5126
10386TIP3   OH231102   0.934   0.100   0.084 -0.1059  0.8162  0.5735
10386TIP3    H131103   0.923   0.017   0.130  4.2708  0.5059  1.3068
10386TIP3    H231104   0.900   0.166   0.144 -2.8641 -0.3314  0.3273
10387TIP3   OH231105   2.552   3.587   6.638 -0.0685  0.6283  0.4489
10387TIP3    H131106   2.566   3.647   6.712  1.2251 -1.2279  1.7698
10387TIP3    H231107   2.609   3.512   6.658 -1.6233 -1.0202 -1.1759
10388TIP3   OH231108   8.271   0.767   0.718 -0.4841  0.4929  0.2172
10388TIP3    H131109   8.175   0.764   0.713 -0.4659  0.4228 -0.0876
10388TIP3    H231110   8.293   0.859   0.708 -0.4868  0.4391 -0.2580
10389TIP3   OH231111   5.073   7.423   1.924 -0.1982 -0.2818  0.3596
10389TIP3    H131112   5.118   7.370   1.858 -3.8724 -0.8919 -1.7879
10389TIP3    H231113   5.121   7.406   2.005  3.1484 -1.1536 -1.6840
10390TIP3   OH231114   1.080   0.864   1.877 -0.1337  0.0973 -0.9646
10390TIP3    H131115   1.027   0.879   1.799  0.8023  0.3560 -1.5516
10390TIP3    H231116   1.055   0.776   1.906 -1.2448  0.4088 -0.9533
10391TIP3   OH231117   3.435   3.613   6.724  0.3432  0.1704  0.1033
10391TIP3    H131118   3.390   3.539   6.764 -0.0588  0.5389  0.3524
10391TIP3    H231119   3.506   3.634   6.786  0.5651 -0.1157 -0.0547
10392TIP3   OH231120   7.392   1.162   0.373 -0.2147  0.1081  0.1017
10392TIP3    H131121   7.339   1.110   0.433 -0.5938  1.3316  0.8521
10392TIP3    H231122   7.453   1.209   0.430 -0.1799  0.8227 -0.5097
10393TIP3   OH231123   4.344   2.688   6.266  0.2573 -0.3086 -0.0549
10393TIP3    H131124   4.339   2.610   6.212 -0.2157  0.6035 -1.3539
10393TIP3    H231125   4.346   2.655   6.356 -0.2922 -1.7840 -0.5698
10394TIP3   OH231126   5.775   6.439   1.136 -0.2016  0.3864 -0.3572
10394TIP3    H131127   5.866   6.421   1.160 -0.5404 -0.6381  0.1816
10394TIP3    H231128   5.741   6.355   1.107 -1.5845  0.3263  1.4182
10395TIP3   OH231129   7.730   5.468   1.890 -0.1593 -0.0506  0.0011
10395TIP3    H131130   7.653   5.505   1.934 -0.4719 -2.0287  1.1737
10395TIP3    H231131   7.694   5.415   1.819  0.2072  0.6549 -0.7087
10396TIP3   OH231132   6.588   6.619   1.411  0.0965  0.4456  0.0934
10396TIP3    H131133   6.496   6.645   1.403  0.5045  2.3146  1.0388
10396TIP3    H231134   6.594   6.578   1.497 -0.5992 -3.1518 -1.5069
10397TIP3   OH231135   4.731   1.719   6.187 -0.2932 -0.4251 -0.1372
10397TIP3    H131136   4.727   1.789   6.252  0.5645  0.5952 -1.1519
10397TIP3    H231137   4.678   1.752   6.114 -0.0418 -0.9185 -0.5413
10398TIP3   OH231138   5.752   6.379   2.579 -0.0709 -0.3242 -0.2996
10398TIP3    H131139   5.814   6.309   2.601  0.9843  0.5570 -0.4377
10398TIP3    H231140   5.667   6.335   2.574  0.3776 -1.3633  0.9274
10399TIP3   OH231141   2.298   2.738   6.209  0.0261 -0.1319  0.0548
10399TIP3    H131142   2.224   2.749   6.148 -0.3743 -1.4480  0.2956
10399TIP3    H231143   2.337   2.655   6.184  0.4814 -0.1827  0.9495
10400TIP3   OH231144   3.014   2.993   5.909  0.6264 -0.1621 -0.0159
10400TIP3    H131145   2.992   3.002   6.002  0.2455  0.5284 -0.1693
10400TIP3    H231146   3.056   2.908   5.903 -1.3713 -1.2171  0.4217
10401TIP3   OH231147   6.293   5.615   0.214 -0.0391  0.4238  0.1274
10401TIP3    H131148   6.315   5.630   0.305 -0.7897  3.2992 -0.1160
10401TIP3    H231149   6.235   5.539   0.215  1.0018 -0.3630  1.8912
10402TIP3   OH231150   3.928   0.102   6.903  0.6135  0.1987 -0.2985
10402TIP3    H131151   3.971   0.018   6.922  0.4249  0.2110  0.1742
10402TIP3    H231152   3.909   0.139   6.989  1.0112  0.8900 -0.5040
10403TIP3   OH231153   2.935   2.350   6.122  0.3722  0.2089  0.1324
10403TIP3    H131154   2.840   2.355   6.110  0.1022 -0.2286  1.9638
10403TIP3    H231155   2.958   2.261   6.094  0.2057  0.2136 -0.0205
10404TIP3   OH231156   4.227   4.144   5.879  0.1052  0.0244 -0.7775
10404TIP3    H131157   4.296   4.170   5.939 -0.5417 -0.6276  0.2690
10404TIP3    H231158   4.199   4.226   5.838  0.9674  0.3915 -0.6445
10405TIP3   OH231159   6.468   7.674   2.702  0.6635  0.3243  0.2611
10405TIP3    H131160   6.407   7.603   2.685  0.4814  0.2157  1.3694
10405TIP3    H231161   6.444   7.742   2.639 -0.6364  0.3106  0.7415
10406TIP3   OH231162   7.780   7.457   1.353 -0.3565  0.0185 -0.4602
10406TIP3    H131163   7.825   7.525   1.404  0.8687  0.7265 -2.4240
10406TIP3    H231164   7.760   7.499   1.269 -0.3231 -1.7752 -1.3944
10407TIP3   OH231165   6.422   7.451   2.428  0.6255 -0.3106  0.5593
10407TIP3    H131166   6.497   7.392   2.423  1.9587  1.1918  2.2268
10407TIP3    H231167   6.433   7.512   2.356  1.2861  0.2188  1.1055
10408TIP3   OH231168   2.359   4.005   6.514  0.7073 -0.1950  0.5593
10408TIP3    H131169   2.446   3.989   6.551  0.9679  1.2757  0.6030
10408TIP3    H231170   2.376   4.024   6.422  0.3818 -0.4274  0.4526
10409TIP3   OH231171   7.661   5.630   2.921 -0.1562 -0.1042  0.5383
10409TIP3    H131172   7.629   5.550   2.963 -0.5665 -0.5846 -0.6461
10409TIP3    H231173   7.675   5.604   2.830 -0.9965  1.3740 -0.0249
10410TIP3   OH231174   3.878   5.466   5.989  0.1479 -0.1869  0.0648
10410TIP3    H131175   3.802   5.523   5.980  0.6870  0.7876  1.5454
10410TIP3    H231176   3.917   5.464   5.901 -0.0927  1.3946 -0.0830
10411TIP3   OH231177   6.127   0.449   5.038  0.2672 -0.7520 -0.1161
10411TIP3    H131178   6.175   0.460   5.119  1.7063  0.5627 -1.1159
10411TIP3    H231179   6.179   0.388   4.986  0.3257 -0.1409 -0.7876
10412TIP3   OH231180   2.744   1.228   5.191  0.1868 -0.0117 -0.2687
10412TIP3    H131181   2.821   1.199   5.239 -0.7126 -0.0635  1.1659
10412TIP3    H231182   2.743   1.323   5.202  0.5291  0.0924 -1.0482
10413TIP3   OH231183   5.977   7.876   0.335  0.3094 -0.3368 -0.9117
10413TIP3    H131184   6.066   7.906   0.351 -0.6832  2.6893 -0.7953
10413TIP3    H231185   5.934   7.879   0.421 -0.2897 -0.5062 -1.1996
10414TIP3   OH231186   7.534   5.613   1.202 -0.1773  0.1547  0.1327
10414TIP3    H131187   7.566   5.569   1.123 -1.3102 -0.9755  0.2793
10414TIP3    H231188   7.448   5.648   1.177  0.5448  1.9733  0.1376
10415TIP3   OH231189   6.845   7.051   1.361 -0.4751 -0.1060  0.5451
10415TIP3    H131190   6.919   7.095   1.402 -0.4827 -0.7808  1.3200
10415TIP3    H231191   6.859   7.060   1.267  0.6327 -0.3116  0.6903
10416TIP3   OH231192   4.213   0.964   6.835  0.3057 -0.1740 -0.4700
10416TIP3    H131193   4.145   0.993   6.775 -0.1480 -1.0973 -0.4092
10416TIP3    H231194   4.217   0.869   6.822 -1.3693 -0.7074  2.5649
10417TIP3   OH231195   4.604   1.923   5.665 -0.2305  0.5209  0.2597
10417TIP3    H131196   4.537   1.871   5.710 -0.2073  1.5356  1.5015
10417TIP3    H231197   4.647   1.861   5.606 -0.2000 -0.8720  1.7015
10418TIP3   OH231198   1.405   7.599   0.455  0.0416  1.0070 -0.0685
10418TIP3    H131199   1.402   7.560   0.542 -2.0493  1.3388  0.0229
10418TIP3    H231200   1.455   7.680   0.467  1.8638 -0.1503  0.3160
10419TIP3   OH231201   5.276   0.716   6.389  0.0846  0.0650 -0.2470
10419TIP3    H131202   5.370   0.706   6.404 -0.1375 -0.1114  1.1912
10419TIP3    H231203   5.263   0.810   6.380  0.4053  0.0863 -0.5122
10420TIP3   OH231204   1.327   6.116   0.426 -0.2540 -0.1321 -0.0861
10420TIP3    H131205   1.341   6.209   0.442  2.4601 -0.1635 -1.8882
10420TIP3    H231206   1.325   6.076   0.513  2.3556  1.1722  0.6279
10421TIP3   OH231207   6.186   1.193   5.078 -0.3264  0.3462  0.2289
10421TIP3    H131208   6.095   1.167   5.068 -0.6515  1.6061 -0.1999
10421TIP3    H231209   6.182   1.283   5.110  0.7412  1.2300 -1.9617
10422TIP3   OH231210   3.884   1.833   5.474 -0.7591  0.0372  0.6637
10422TIP3    H131211   3.791   1.856   5.484 -0.3591  1.9228  0.3077
10422TIP3    H231212   3.913   1.812   5.563 -0.9624  1.7489  1.1493
10423TIP3   OH231213   2.448   5.293   0.502  0.2009 -0.0349  0.5306
10423TIP3    H131214   2.506   5.237   0.553 -0.6671 -1.8224 -0.4059
10423TIP3    H231215   2.481   5.286   0.412 -0.3352  0.4116  0.2972
10424TIP3   OH231216   8.436   6.582   0.596  0.2129  0.0001 -0.3668
10424TIP3    H131217   8.471   6.672   0.599  0.1633  0.0250 -0.5323
10424TIP3    H231218   8.349   6.592   0.558  0.7887 -0.2966 -1.7992
10425TIP3   OH231219   5.431   2.787   6.201 -0.5286  0.3120  0.5449
10425TIP3    H131220   5.462   2.864   6.248 -0.6269  0.7049 -0.0371
10425TIP3    H231221   5.511   2.745   6.167 -0.5223  0.5105  0.3138
10426TIP3   OH231222   7.204   0.959   6.488 -0.1504 -0.1136 -0.5965
10426TIP3    H131223   7.273   0.981   6.550 -0.0383 -0.8389 -0.4686
10426TIP3    H231224   7.142   1.032   6.495 -1.0059 -1.0065  1.6122
10427TIP3   OH231225   7.365   7.020   1.594 -0.3225  0.0650 -0.4672
10427TIP3    H131226   7.276   7.053   1.590  0.0149  1.3001  1.8097
10427TIP3    H231227   7.418   7.089   1.553 -0.1382  0.4485  0.3983
10428TIP3   OH231228   6.179   5.265   5.473 -0.5159 -0.4401  0.1730
10428TIP3    H131229   6.230   5.245   5.395 -0.4909 -0.9878  0.3274
10428TIP3    H231230   6.153   5.357   5.462 -0.9346 -0.6599 -0.7180
10429TIP3   OH231231   8.032   0.308   0.745  0.1975  0.9511  0.0229
10429TIP3    H131232   8.005   0.342   0.660 -1.1963 -1.5376 -0.5780
10429TIP3    H231233   8.120   0.343   0.758  0.3062  1.6028 -2.3036
10430TIP3   OH231234   4.750   0.817   6.089  0.1123 -0.0922  0.8593
10430TIP3    H131235   4.710   0.874   6.155  1.6970  1.4502  0.5319
10430TIP3    H231236   4.809   0.760   6.140 -0.3760 -0.4539  1.0233
10431TIP3   OH231237   3.648   2.363   6.600 -0.1013  0.4350 -0.5672
10431TIP3    H131238   3.658   2.445   6.649 -0.3078 -0.6402  1.3457
10431TIP3    H231239   3.567   2.375   6.550  0.0409  1.5133 -0.5634
10432TIP3   OH231240   5.653   1.500   6.734  1.1522  0.3973  0.1335
10432TIP3    H131241   5.670   1.418   6.780  0.1527  0.1039 -0.0014
10432TIP3    H231242   5.626   1.473   6.646 -1.1834  0.7574  0.6959
10433TIP3   OH231243   4.167   1.814   6.479  0.0401 -0.2296  0.7677
10433TIP3    H131244   4.213   1.748   6.531  1.0946  1.0703  1.4930
10433TIP3    H231245   4.215   1.895   6.493 -1.9876  1.0042  0.9059
10434TIP3   OH231246   6.651   2.067   6.248 -0.2527  0.7590  0.5420
10434TIP3    H131247   6.672   2.122   6.324  1.0876 -0.3663  1.0090
10434TIP3    H231248   6.736   2.037   6.216 -1.0096 -2.2905  1.2563
10435TIP3   OH231249   6.516   2.277   5.860  0.7656 -0.3088  0.3470
10435TIP3    H131250   6.607   2.301   5.846  0.5458  0.1479 -0.3229
10435TIP3    H231251   6.508   2.190   5.822  0.3665  0.5969 -1.7281
10436TIP3   OH231252   7.094   5.589   1.062 -0.0948  0.0958  0.1878
10436TIP3    H131253   7.079   5.536   1.140  2.1407 -0.8137  0.0172
10436TIP3    H231254   7.007   5.597   1.022 -1.0431 -0.5057  2.0658
10437TIP3   OH231255   5.039   3.462   5.426  0.5477  0.1731  0.5163
10437TIP3    H131256   5.093   3.539   5.410  0.4038  0.0409 -0.6330
10437TIP3    H231257   5.098   3.398   5.465  0.5490  1.0393  1.9908
10438TIP3   OH231258   5.444   3.972   5.113 -0.2269 -0.1463  1.2964
10438TIP3    H131259   5.403   3.915   5.048 -1.7413  0.8435  1.3774
10438TIP3    H231260   5.372   4.022   5.151  0.9288  0.9275  2.1179
10439TIP3   OH231261   6.408   2.453   6.773  0.8098 -0.4618  0.8018
10439TIP3    H131262   6.341   2.384   6.776 -0.8813  1.0444 -0.8467
10439TIP3    H231263   6.460   2.439   6.852 -0.7642 -2.3673  1.5622
10440TIP3   OH231264   7.242   7.941   0.680  0.5149 -0.8282 -0.0898
10440TIP3    H131265   7.293   8.005   0.630 -0.5637 -0.8422 -1.2338
10440TIP3    H231266   7.224   7.871   0.617 -0.9294 -0.8200  0.3045
10441TIP3   OH231267   7.167   6.475   0.214  0.1777  0.1691  0.4766
10441TIP3    H131268   7.116   6.537   0.267 -0.7949  0.3885 -0.7012
10441TIP3    H231269   7.257   6.488   0.242 -0.5384 -1.2962  3.7421
10442TIP3   OH231270   4.736   1.991   6.370  0.0449 -0.1274 -0.2114
10442TIP3    H131271   4.745   2.079   6.405  1.3728  0.2988 -1.5773
10442TIP3    H231272   4.758   1.933   6.443 -0.2821  0.6814  0.5281
10443TIP3   OH231273   6.683   7.723   0.854 -0.1764 -0.3632  0.1169
10443TIP3    H131274   6.774   7.696   0.842  0.2054  0.8329  0.2540
10443TIP3    H231275   6.683   7.773   0.936 -1.0176 -0.6509  0.2904
10444TIP3   OH231276   1.603   7.806   1.264 -0.3407  0.0815 -0.2238
10444TIP3    H131277   1.646   7.721   1.277  0.4533  0.4848 -0.2105
10444TIP3    H231278   1.645   7.864   1.328  0.1570  0.8588 -1.2473
10445TIP3   OH231279   4.392   0.834   4.199 -0.2116  0.2826  0.3086
10445TIP3    H131280   4.432   0.913   4.236 -1.4185  0.7964  0.5490
10445TIP3    H231281   4.432   0.762   4.247  2.6232  0.5938 -1.4996
10446TIP3   OH231282   3.827   2.447   6.144 -0.7765  0.0031 -0.0043
10446TIP3    H131283   3.816   2.397   6.225 -1.2759 -1.4279 -0.9263
10446TIP3    H231284   3.915   2.485   6.151 -0.4249 -0.9260  0.7703
10447TIP3   OH231285   6.945   6.134   0.720 -0.3580  0.0909  0.1403
10447TIP3    H131286   6.886   6.119   0.794 -0.2172  0.8736  0.4190
10447TIP3    H231287   6.896   6.193   0.663  1.1087  2.7681  1.5761
10448TIP3   OH231288   5.636   2.694   6.452 -0.4517 -0.1603  0.3449
10448TIP3    H131289   5.559   2.639   6.459  0.0575 -0.9632 -0.3265
10448TIP3    H231290   5.666   2.683   6.362  1.1004 -0.7364  0.9209
10449TIP3   OH231291   1.043   5.410   0.575 -0.0810 -0.1347 -0.3098
10449TIP3    H131292   1.083   5.381   0.657 -1.0769 -1.1701 -0.1713
10449TIP3    H231293   1.114   5.452   0.527  0.9091 -1.0068  0.3724
10450TIP3   OH231294   7.629   7.053   0.416  0.4760  0.0640 -0.1844
10450TIP3    H131295   7.689   6.990   0.375 -0.9141  0.0314 -2.2362
10450TIP3    H231296   7.565   6.998   0.461  0.6140  0.0678  0.0197
10451TIP3   OH231297   6.928   4.726   6.295 -0.0627  0.1568  0.3460
10451TIP3    H131298   6.833   4.728   6.283 -0.3368 -0.8906  2.2062
10451TIP3    H231299   6.951   4.815   6.323 -0.4245  0.5053 -0.4274
10452TIP3   OH231300   6.422   7.736   1.916  0.6427 -0.0773  0.4891
10452TIP3    H131301   6.335   7.702   1.939 -0.0035 -0.2224 -2.0243
10452TIP3    H231302   6.431   7.815   1.970 -1.9397  1.0605 -0.6090
10453TIP3   OH231303   4.563   1.072   3.635  0.3350 -0.0493 -0.6021
10453TIP3    H131304   4.636   1.124   3.667 -0.2540  0.2223  0.3139
10453TIP3    H231305   4.493   1.085   3.699 -0.3450 -0.7246 -1.1823
10454TIP3   OH231306   4.363   2.019   6.463 -0.0643  0.3203  0.0043
10454TIP3    H131307   4.316   2.084   6.411 -0.3838  1.0634  1.2022
10454TIP3    H231308   4.397   1.957   6.398 -1.7398  0.3769 -0.9756
10455TIP3   OH231309   5.067   1.697   6.152 -0.2782  0.3977 -0.4898
10455TIP3    H131310   5.114   1.760   6.096 -1.0328  2.2111  0.8670
10455TIP3    H231311   4.999   1.749   6.195 -0.8472 -1.3360  0.7639
10456TIP3   OH231312   6.256   7.420   0.296 -0.0636  0.5114  0.0706
10456TIP3    H131313   6.278   7.329   0.317  0.4978 -0.0092 -2.5858
10456TIP3    H231314   6.302   7.471   0.363  0.9994 -1.0717  0.5992
10457TIP3   OH231315   6.575   6.458   0.262  0.1720  0.1024 -0.1519
10457TIP3    H131316   6.492   6.469   0.217 -0.4086  0.8790  1.0924
10457TIP3    H231317   6.565   6.506   0.344  1.7927  0.0837  0.0732
10458TIP3   OH231318   6.386   2.189   6.395  0.2679 -0.6309 -0.5288
10458TIP3    H131319   6.398   2.203   6.301 -0.5858  1.7498 -0.3194
10458TIP3    H231320   6.474   2.182   6.430  0.6883  1.8846 -1.0434
10459TIP3   OH231321   3.740   5.183   6.736 -0.2884 -0.2129 -0.6045
10459TIP3    H131322   3.672   5.120   6.760  0.4117 -2.0109 -3.1563
10459TIP3    H231323   3.821   5.132   6.736  0.3353  0.7165 -2.4212
10460TIP3   OH231324   4.731   3.477   5.078 -0.5907  0.1221  0.3710
10460TIP3    H131325   4.821   3.497   5.103 -0.2820  0.4169 -0.9593
10460TIP3    H231326   4.678   3.541   5.125 -0.0424  0.4587  0.5275
10461TIP3   OH231327   6.663   6.773   0.692  0.8324  0.3715 -1.1408
10461TIP3    H131328   6.708   6.705   0.741 -0.7355 -0.0486 -0.2398
10461TIP3    H231329   6.661   6.849   0.750 -0.8346 -0.0579 -0.6102
10462TIP3   OH231330   5.001   1.733   5.681  0.5350  0.0538  0.0033
10462TIP3    H131331   4.940   1.765   5.615  0.8274 -0.6979 -0.6390
10462TIP3    H231332   4.967   1.648   5.707  1.3202 -0.3901 -0.3899
10463TIP3   OH231333   6.200   1.214   5.869 -0.3433  0.5223 -0.4090
10463TIP3    H131334   6.162   1.283   5.925  1.0022  0.0416  1.1428
10463TIP3    H231335   6.137   1.142   5.876  0.3384  0.0659  1.4129
10464TIP3   OH231336   2.528   6.408   0.724 -0.1280  0.1491 -0.0174
10464TIP3    H131337   2.536   6.410   0.819 -4.3659 -0.2312  0.4806
10464TIP3    H231338   2.481   6.488   0.702  0.5748  0.1088 -1.7519
10465TIP3   OH231339   7.852   6.487   1.512  0.4511  0.3798 -0.3701
10465TIP3    H131340   7.757   6.490   1.524  0.4455 -0.5756 -0.1040
10465TIP3    H231341   7.865   6.461   1.421  0.4413 -0.4771 -0.1358
10466TIP3   OH231342   5.184   4.437   6.866  0.2154  0.0855 -0.0129
10466TIP3    H131343   5.189   4.482   6.782  0.5512 -0.2555 -0.1787
10466TIP3    H231344   5.212   4.502   6.931 -1.4074  0.7821 -0.0055
10467TIP3   OH231345   8.442   6.750   0.312  0.0105  0.8862 -0.3158
10467TIP3    H131346   8.392   6.777   0.235  0.0630  0.9738 -0.3201
10467TIP3    H231347   8.530   6.734   0.279 -0.9215 -3.1680 -1.0490
10468TIP3   OH231348   6.967   2.176   6.532 -0.2043  0.2373 -1.0089
10468TIP3    H131349   7.048   2.203   6.577 -0.9459  1.0309 -0.1183
10468TIP3    H231350   6.923   2.259   6.511 -0.3113 -0.1607 -2.4010
10469TIP3   OH231351   5.799   2.705   4.615 -0.1838 -0.4234 -0.3153
10469TIP3    H131352   5.879   2.655   4.603  0.1333 -0.4729  1.9250
10469TIP3    H231353   5.729   2.646   4.587  0.4393 -0.9437 -0.7652
10470TIP3   OH231354   7.298   6.839   0.289  0.3073  0.0603  0.1038
10470TIP3    H131355   7.323   6.929   0.271 -1.0067  0.2004 -1.1571
10470TIP3    H231356   7.203   6.841   0.297  0.2519 -1.2227  0.0190
10471TIP3   OH231357   5.767   2.426   6.444 -0.0083 -0.2288 -0.4314
10471TIP3    H131358   5.741   2.432   6.352 -0.5194  2.4731 -0.1527
10471TIP3    H231359   5.815   2.507   6.461  1.2527 -1.3161  1.3387
10472TIP3   OH231360   6.633   4.336   4.696 -0.0078 -0.2127 -0.1522
10472TIP3    H131361   6.669   4.316   4.609  0.1462 -2.0523  0.3060
10472TIP3    H231362   6.699   4.390   4.738  0.9481 -1.2230 -0.3431
10473TIP3   OH231363   4.580   0.851   5.686 -0.0270  0.2324  0.5799
10473TIP3    H131364   4.618   0.771   5.651  0.9500  0.6050  0.7624
10473TIP3    H231365   4.538   0.893   5.611 -0.4344 -0.3811  0.4602
10474TIP3   OH231366   4.655   4.175   6.051  0.5448 -0.2557  0.3131
10474TIP3    H131367   4.647   4.081   6.062  2.0157 -0.4734 -0.3338
10474TIP3    H231368   4.643   4.190   5.957 -0.2512  0.2741  0.4884
10475TIP3   OH231369   4.040   1.309   6.168  0.5244  0.1945  0.1194
10475TIP3    H131370   3.987   1.229   6.161  0.7518  0.0293  0.2613
10475TIP3    H231371   4.114   1.284   6.224  0.6717  0.4658  0.0489
10476TIP3   OH231372  -0.018   7.897   1.755  0.0923 -0.3213 -0.0115
10476TIP3    H131373   0.024   7.981   1.735 -1.0049  0.4291  0.7633
10476TIP3    H231374   0.041   7.831   1.718  1.0625  0.7804 -0.4623
10477TIP3   OH231375   4.761   0.664   5.037 -0.8404 -0.2560  0.8720
10477TIP3    H131376   4.738   0.654   4.945 -2.9617  0.9812  1.2365
10477TIP3    H231377   4.838   0.608   5.049  1.6007  2.2445 -2.4190
10478TIP3   OH231378   4.590   2.572   6.781  0.0353  0.3417 -0.5119
10478TIP3    H131379   4.548   2.655   6.758  1.9368  1.8553  1.2745
10478TIP3    H231380   4.518   2.515   6.805 -1.2319  1.8673 -0.5766
10479TIP3   OH231381   0.056   3.068   1.688 -0.0708  0.5861  0.0655
10479TIP3    H131382  -0.016   3.130   1.682 -0.9701 -0.4661 -0.0731
10479TIP3    H231383   0.051   3.018   1.607  1.3005  1.0105 -0.3120
10480TIP3   OH231384   4.654   0.453   6.289  0.3553 -0.3590 -0.3346
10480TIP3    H131385   4.631   0.368   6.326  0.0449  0.1773  0.7189
10480TIP3    H231386   4.585   0.513   6.320 -0.7568 -0.1798 -2.9884
10481TIP3   OH231387   5.983   4.013   5.189 -0.6498 -0.2568  0.7843
10481TIP3    H131388   6.055   4.039   5.246 -1.3504  2.3030  0.5568
10481TIP3    H231389   5.905   4.021   5.243 -1.0074 -0.9558  0.3905
10482TIP3   OH231390   7.877   4.976   0.126 -0.0668  0.2332 -0.0763
10482TIP3    H131391   7.936   4.923   0.072  1.3906  0.4005  1.3100
10482TIP3    H231392   7.874   5.061   0.083  2.5925  0.9609  1.1098
10483TIP3   OH231393   8.072   5.117   0.679 -0.5884 -0.0663  0.1936
10483TIP3    H131394   8.030   5.157   0.603  3.1720  2.1370 -0.8491
10483TIP3    H231395   8.079   5.189   0.742  1.4127 -0.4343  0.4076
10484TIP3   OH231396   6.054   1.590   4.892  0.1866 -0.1386 -0.1424
10484TIP3    H131397   6.122   1.544   4.843 -0.6690 -1.2189 -0.3277
10484TIP3    H231398   5.985   1.606   4.828 -0.3469 -0.3264  0.3825
10485TIP3   OH231399   7.254   4.022   6.075 -0.1508  0.3867  0.0187
10485TIP3    H131400   7.259   3.928   6.055  1.1697  0.2319  1.0423
10485TIP3    H231401   7.174   4.031   6.127 -0.6514 -0.0502 -0.6529
10486TIP3   OH231402   0.968   0.302   1.246 -0.4886  0.4966  0.6489
10486TIP3    H131403   1.000   0.234   1.186 -0.0275  0.4849  0.9042
10486TIP3    H231404   0.983   0.266   1.333  1.7978  1.8189  0.8468
10487TIP3   OH231405   1.015   6.275   0.632  0.2202 -0.6784  0.5021
10487TIP3    H131406   0.985   6.364   0.650 -2.7517 -1.7001  0.7733
10487TIP3    H231407   1.084   6.287   0.566  0.7316  1.8949  1.4252
10488TIP3   OH231408   4.270   1.594   6.299 -0.3198 -0.0784 -0.3904
10488TIP3    H131409   4.364   1.587   6.287 -0.1605  1.6770 -0.2726
10488TIP3    H231410   4.243   1.667   6.242 -0.7887  2.8432  3.3701
10489TIP3   OH231411   8.504   5.051   1.490  0.0937 -0.2725  0.7839
10489TIP3    H131412   8.409   5.059   1.489  0.1387  0.2498  0.4789
10489TIP3    H231413   8.525   5.022   1.579 -0.5781 -3.4002 -0.0141
10490TIP3   OH231414   5.480   1.908   6.662  0.0270 -0.4659 -0.0359
10490TIP3    H131415   5.507   1.838   6.603  1.3287 -0.0611  0.0589
10490TIP3    H231416   5.523   1.986   6.628 -0.8914  0.1667  0.2411
10491TIP3   OH231417   6.370   3.145   6.840 -0.0299  0.2819  0.6030
10491TIP3    H131418   6.416   3.101   6.912 -0.4284  0.3665  0.9141
10491TIP3    H231419   6.394   3.237   6.849  0.7950  0.1276 -0.0403
10492TIP3   OH231420   6.907   6.283   1.576 -0.0920 -0.4002  0.2220
10492TIP3    H131421   6.894   6.304   1.668  2.8445  1.9959  0.1630
10492TIP3    H231422   6.877   6.360   1.528  2.4382  0.1554 -0.5448
10493TIP3   OH231423   5.541   3.450   6.308  0.0902 -0.4465  0.0731
10493TIP3    H131424   5.484   3.382   6.271 -0.3789  0.6637 -1.2576
10493TIP3    H231425   5.513   3.531   6.266  2.8661  0.0745 -0.8525
10494TIP3   OH231426   5.737   3.391   5.465 -0.2510  0.1924  0.3449
10494TIP3    H131427   5.789   3.368   5.541  1.3379 -1.5512 -1.2023
10494TIP3    H231428   5.787   3.459   5.420 -1.8116  2.1446  1.5127
10495TIP3   OH231429   3.479   3.199   6.736  0.3061  0.0829 -0.2586
10495TIP3    H131430   3.407   3.244   6.780 -1.1183  0.7332 -3.1469
10495TIP3    H231431   3.436   3.136   6.678  2.0768  0.0860 -1.6198
10496TIP3   OH231432   5.287   2.562   6.225 -0.0303  0.1806 -0.8242
10496TIP3    H131433   5.194   2.579   6.239  0.2929 -0.5021  2.4078
10496TIP3    H231434   5.327   2.649   6.221 -0.6932  0.4617 -1.6411
10497TIP3   OH231435   0.339   0.379   2.385 -0.4500 -0.1965 -0.5164
10497TIP3    H131436   0.328   0.473   2.372  1.8658  0.4003  1.3910
10497TIP3    H231437   0.278   0.356   2.455 -0.5194  0.0301 -0.5045
10498TIP3   OH231438   6.928   0.841   6.312  0.3446  0.1341 -0.2962
10498TIP3    H131439   7.003   0.803   6.266 -0.0721 -1.3601  0.2287
10498TIP3    H231440   6.911   0.924   6.267  1.1760 -0.3712 -1.5558
10499TIP3   OH231441   4.728   2.732   6.926 -0.4531 -0.2572 -0.4398
10499TIP3    H131442   4.676   2.666   6.879 -0.7777 -0.5763  0.3509
10499TIP3    H231443   4.677   2.812   6.919 -0.4905 -0.3014 -0.6565
10500TIP3   OH231444   4.311   1.281   6.231 -0.2187  0.7269  0.0718
10500TIP3    H131445   4.337   1.239   6.150  1.2287  1.4681  0.1309
10500TIP3    H231446   4.379   1.347   6.247 -0.3880  0.4921  1.9562
10501TIP3   OH231447   7.339   4.485   6.931  0.3308 -0.2975  0.2477
10501TIP3    H131448   7.294   4.479   6.847  0.6921  0.4533 -0.0071
10501TIP3    H231449   7.303   4.413   6.984 -1.0198  0.1823 -0.0146
10502TIP3   OH231450   5.834   3.837   4.353  0.0248 -0.8553  0.0940
10502TIP3    H131451   5.790   3.856   4.271  1.8374  2.7638 -0.1531
10502TIP3    H231452   5.771   3.861   4.421 -0.4303 -1.0369 -0.2691
10503TIP3   OH231453   5.387   2.557   5.971  0.3044 -0.6094 -0.6216
10503TIP3    H131454   5.375   2.558   6.066 -2.1086 -1.2964 -0.8863
10503TIP3    H231455   5.476   2.525   5.958  0.6044 -0.6267  1.4087
10504TIP3   OH231456   5.791   3.835   5.395 -0.1097 -0.0130  0.1753
10504TIP3    H131457   5.815   3.743   5.404 -0.3347 -0.1858 -0.9659
10504TIP3    H231458   5.857   3.882   5.447  1.7271 -0.6082 -1.5651
10505TIP3   OH231459   6.484   1.988   5.834 -0.1243  0.4038 -0.5314
10505TIP3    H131460   6.531   1.906   5.822 -1.5932 -0.4388 -0.6360
10505TIP3    H231461   6.463   2.017   5.745 -0.3004  0.4985 -0.4581
10506TIP3   OH231462   1.745   5.637   0.880  0.5200  0.5050 -0.0362
10506TIP3    H131463   1.673   5.694   0.853 -0.0285  0.2976  0.9504
10506TIP3    H231464   1.793   5.688   0.945  0.6941  0.2808  0.0117
10507TIP3   OH231465   4.609   3.926   6.134  0.4707 -0.4720  0.3224
10507TIP3    H131466   4.567   3.886   6.058 -0.2405  2.0057 -0.6284
10507TIP3    H231467   4.543   3.919   6.204 -0.7449  1.5114 -0.5959
10508TIP3   OH231468   6.013   1.362   6.371 -0.5679 -0.1429 -0.3293
10508TIP3    H131469   6.095   1.396   6.408 -1.4100  0.7440  0.7615
10508TIP3    H231470   5.965   1.440   6.344 -1.4142 -0.6065 -0.1899
10509TIP3   OH231471   4.763   2.552   5.351 -0.2441  0.2224 -0.3832
10509TIP3    H131472   4.757   2.637   5.395 -0.8996  0.2085 -0.4445
10509TIP3    H231473   4.836   2.509   5.394  0.0463  0.7901 -0.2973
10510TIP3   OH231474   4.555   2.998   6.334  0.1193 -0.5140  0.1478
10510TIP3    H131475   4.486   3.005   6.400 -1.1277 -1.6721 -1.0019
10510TIP3    H231476   4.535   3.068   6.272 -0.3618 -1.1963 -0.4778
10511TIP3   OH231477   1.086   1.887   2.122  0.1227 -0.1304 -0.7774
10511TIP3    H131478   1.048   1.879   2.210  1.6548 -3.6313 -0.3559
10511TIP3    H231479   1.016   1.858   2.063  0.4580 -1.8959 -0.3484
10512TIP3   OH231480   5.866   1.562   6.276 -0.1451  1.0030  0.5741
10512TIP3    H131481   5.841   1.611   6.355  1.8956  2.4853  0.3360
10512TIP3    H231482   5.870   1.628   6.207 -0.4729 -0.0438 -0.4637
10513TIP3   OH231483   4.598   4.343   6.566  0.6872  0.6366  0.1113
10513TIP3    H131484   4.585   4.372   6.476 -2.1717  2.1842  0.9608
10513TIP3    H231485   4.514   4.305   6.591  2.1475 -1.8566  1.4268
10514TIP3   OH231486   0.310   7.522  -0.001 -0.3376 -0.1451  0.0311
10514TIP3    H131487   0.223   7.509  -0.037  0.2304 -2.0849 -0.7059
10514TIP3    H231488   0.296   7.530   0.093 -1.4275  0.9487 -0.2057
10515TIP3   OH231489   0.875   0.829   0.739 -0.1461 -0.1769  0.3394
10515TIP3    H131490   0.969   0.824   0.758 -0.1855  0.4108  0.6940
10515TIP3    H231491   0.868   0.885   0.662 -0.0938 -1.4610 -0.6184
10516TIP3   OH231492   4.217   3.601   4.722 -0.0403  0.4043  0.5293
10516TIP3    H131493   4.172   3.531   4.674 -0.4928  0.3487  1.0172
10516TIP3    H231494   4.169   3.607   4.805  1.6378 -0.5371  1.6072
10517TIP3   OH231495   5.499   5.059   4.824 -0.2370  0.0434  0.2846
10517TIP3    H131496   5.453   4.975   4.823 -0.3195  0.0589  1.7925
10517TIP3    H231497   5.579   5.043   4.775 -0.5801 -0.7340 -0.0249
10518TIP3   OH231498   5.911   2.081   5.502 -0.1404 -0.0932 -0.3154
10518TIP3    H131499   5.912   2.173   5.474  1.0356 -0.2312 -0.7638
10518TIP3    H231500   5.995   2.069   5.547 -1.1369 -0.4339  1.4631
10519TIP3   OH231501   4.797   3.038   6.499  0.0494  0.5268  0.6988
10519TIP3    H131502   4.748   2.958   6.477  1.8119 -0.7261  1.2076
10519TIP3    H231503   4.756   3.106   6.447 -1.4311 -0.7406  0.1675
10520TIP3   OH231504   4.801   2.788   5.999 -0.0307 -0.0228  0.6497
10520TIP3    H131505   4.879   2.822   6.042 -1.4823  1.5182  2.1320
10520TIP3    H231506   4.740   2.769   6.070 -1.4395 -0.0906 -0.5543
10521TIP3   OH231507   7.702   7.537   1.759 -0.0826 -0.4926  0.2410
10521TIP3    H131508   7.795   7.558   1.757 -0.2976  0.4388 -0.3086
10521TIP3    H231509   7.677   7.528   1.667 -1.0917  1.8827  0.2338
10522TIP3   OH231510   0.569   6.179   0.387  0.2564  0.1587  0.4754
10522TIP3    H131511   0.651   6.227   0.399  0.0518  0.7673 -0.5332
10522TIP3    H231512   0.508   6.244   0.351  0.3244 -1.1493 -2.0917
10523TIP3   OH231513   8.085   5.931   0.805  0.0044 -0.4332 -0.1159
10523TIP3    H131514   8.080   5.846   0.761 -0.8466 -0.8851  0.8521
10523TIP3    H231515   8.076   5.911   0.898 -2.5690  0.9080 -0.0357
10524TIP3   OH231516   5.265   0.337   4.958 -0.4305  0.4778 -0.4947
10524TIP3    H131517   5.261   0.291   4.874  1.8984 -1.7788  0.5456
10524TIP3    H231518   5.220   0.278   5.019 -0.1012  1.0145  0.2749
10525TIP3   OH231519   6.198   1.562   6.716  0.1232  0.6308 -0.4987
10525TIP3    H131520   6.229   1.586   6.628  1.6363  0.0825 -0.1260
10525TIP3    H231521   6.198   1.466   6.716  1.2894  0.6180  0.4913
10526TIP3   OH231522   3.406   0.234   2.698  0.3083 -0.1097  0.3604
10526TIP3    H131523   3.364   0.282   2.769 -0.1630  2.3118 -1.4706
10526TIP3    H231524   3.342   0.237   2.626  0.3372 -3.3922  0.1363
10527TIP3   OH231525   5.075   0.756   6.698 -0.2773 -0.1087  0.6263
10527TIP3    H131526   5.034   0.717   6.775  1.2324 -1.1703  0.9369
10527TIP3    H231527   5.153   0.702   6.683 -0.9057 -0.3664 -2.0653
10528TIP3   OH231528   3.799   4.730   5.943 -0.1041  0.7228 -0.4926
10528TIP3    H131529   3.781   4.665   5.875  0.1384 -0.7995  0.8521
10528TIP3    H231530   3.809   4.813   5.896  0.0508 -0.2926 -2.2912
10529TIP3   OH231531   0.818   6.759   0.192 -0.8059  0.2977  0.4563
10529TIP3    H131532   0.814   6.855   0.193 -0.2526  0.3309 -0.2588
10529TIP3    H231533   0.877   6.738   0.120  0.4284 -0.5392  1.6868
10530TIP3   OH231534   6.379   3.643   6.141  0.2884  0.1019 -0.2792
10530TIP3    H131535   6.305   3.606   6.188  0.2858 -0.3749 -0.6576
10530TIP3    H231536   6.421   3.701   6.205 -1.5217  1.8867 -0.6204
10531TIP3   OH231537   7.512   7.192   1.197  0.0134 -0.0367 -0.7457
10531TIP3    H131538   7.495   7.238   1.280 -1.6726 -1.2071 -0.4219
10531TIP3    H231539   7.449   7.230   1.136  0.5915  0.1238 -1.2443
10532TIP3   OH231540   5.772   2.765   5.743  0.3485 -0.4643 -0.1250
10532TIP3    H131541   5.840   2.697   5.742  1.0416  0.2289 -0.5883
10532TIP3    H231542   5.692   2.719   5.718  0.9002 -1.0269 -0.8887
10533TIP3   OH231543   2.657   0.499   1.004  0.4026  0.2903 -0.0952
10533TIP3    H131544   2.736   0.531   0.961  0.5849  1.2744  0.9617
10533TIP3    H231545   2.687   0.428   1.060  0.5422  0.6967  0.3433
10534TIP3   OH231546   3.676   2.481   5.803  0.2721 -0.2900  0.4488
10534TIP3    H131547   3.618   2.530   5.861 -1.1906 -0.7836 -0.5494
10534TIP3    H231548   3.622   2.408   5.773  1.1908 -0.3737 -1.0240
10535TIP3   OH231549   4.726   3.994   6.798  0.7542 -0.0929 -0.3609
10535TIP3    H131550   4.808   3.970   6.754 -0.4154 -1.8844 -1.6215
10535TIP3    H231551   4.657   3.953   6.745 -0.9050  0.6226  1.1956
10536TIP3   OH231552   5.610   2.389   5.953 -0.0882  0.0040 -0.0005
10536TIP3    H131553   5.653   2.333   6.018 -2.2100  0.0419  1.5228
10536TIP3    H231554   5.553   2.329   5.905 -1.4508  0.6102  0.8232
10537TIP3   OH231555   0.589   0.210   1.009  0.1165 -0.9932 -0.0319
10537TIP3    H131556   0.496   0.195   1.027  0.0550 -1.1082 -0.4257
10537TIP3    H231557   0.607   0.297   1.042 -0.6746 -0.0791 -1.9384
10538TIP3   OH231558   5.715   7.427   0.880  0.7766 -0.3753 -0.5507
10538TIP3    H131559   5.665   7.382   0.948  1.2309  0.0136  0.0410
10538TIP3    H231560   5.806   7.416   0.906  0.8426  2.4175  0.5805
10539TIP3   OH231561   3.338   5.283   6.582  0.2616 -0.5305  0.0529
10539TIP3    H131562   3.271   5.279   6.651  0.4316 -1.9860  0.1387
10539TIP3    H231563   3.290   5.265   6.501  0.2716  0.0004 -0.0708
10540TIP3   OH231564   4.159   3.254   5.835 -0.4756 -0.6700 -0.2045
10540TIP3    H131565   4.213   3.175   5.842  1.0491  0.5397  2.3486
10540TIP3    H231566   4.145   3.281   5.926  1.8949  3.8742 -1.0757
10541TIP3   OH231567   1.290   7.374   0.056 -0.0742 -0.3605 -0.0572
10541TIP3    H131568   1.340   7.395  -0.022 -1.0440  0.3738 -0.4820
10541TIP3    H231569   1.332   7.424   0.126  1.4214 -1.7979  0.1072
10542TIP3   OH231570   6.987   6.804   2.019 -0.3787 -0.6591  0.2024
10542TIP3    H131571   7.062   6.834   2.072  1.8301 -1.9677 -2.0571
10542TIP3    H231572   6.958   6.724   2.063 -0.3638 -0.2487  0.9869
10543TIP3   OH231573   3.807   2.757   5.224  0.2580  0.2536  0.5616
10543TIP3    H131574   3.850   2.807   5.293  0.5132  0.3597  0.3255
10543TIP3    H231575   3.763   2.823   5.170  2.0307  0.3946 -0.7628
10544TIP3   OH231576   5.150   3.470   6.550  0.3311  0.0032  0.0703
10544TIP3    H131577   5.209   3.425   6.610 -0.5021 -0.4285  0.5769
10544TIP3    H231578   5.108   3.538   6.603  1.5166  1.3395 -0.6680
10545TIP3   OH231579   6.922   1.058   6.153  0.0598 -0.2469  0.0688
10545TIP3    H131580   6.987   1.057   6.083 -0.3114 -1.7411 -0.2751
10545TIP3    H231581   6.899   1.150   6.164  3.3901  0.5070  1.2970
10546TIP3   OH231582   8.480   6.097   2.500 -0.3847  0.5811  0.4017
10546TIP3    H131583   8.511   6.181   2.464  0.0225  0.1762 -0.1980
10546TIP3    H231584   8.499   6.033   2.432  0.9778 -0.3074  1.5946
10547TIP3   OH231585   6.868   4.404   5.813  0.1968 -0.7005  0.1192
10547TIP3    H131586   6.949   4.434   5.771  0.7941 -0.3022  1.5344
10547TIP3    H231587   6.852   4.317   5.776 -0.3162  0.4006 -2.3426
10548TIP3   OH231588   5.751   1.343   5.571 -0.1210 -0.3021  0.5909
10548TIP3    H131589   5.776   1.400   5.498  1.5876 -1.0002  0.5954
10548TIP3    H231590   5.758   1.398   5.649  2.1465 -0.6646  0.6656
10549TIP3   OH231591   7.238   5.870   0.220 -0.1227  0.3198  0.2535
10549TIP3    H131592   7.319   5.907   0.187 -0.9699  1.2644 -0.7623
10549TIP3    H231593   7.218   5.922   0.298  0.4938 -0.2316  0.7903
10550TIP3   OH231594   7.203   7.659   1.209 -0.4341  0.0255 -0.1334
10550TIP3    H131595   7.191   7.569   1.240 -0.6513  0.1881  0.2546
10550TIP3    H231596   7.290   7.683   1.241  0.2904 -0.5964 -1.5904
10551TIP3   OH231597   8.272   5.745   0.406 -0.2709 -1.0285  0.4045
10551TIP3    H131598   8.278   5.650   0.401  2.1814 -0.9792  1.4877
10551TIP3    H231599   8.308   5.767   0.492  0.8096  0.9731 -0.5085
10552TIP3   OH231600   6.210   4.794   5.569 -0.1716 -0.4687  0.0923
10552TIP3    H131601   6.280   4.840   5.522 -1.0710  0.6263 -0.2168
10552TIP3    H231602   6.255   4.742   5.635  0.9333  0.2058 -0.1211
10553TIP3   OH231603   5.405   7.832   2.750 -0.3446  0.2100  0.4071
10553TIP3    H131604   5.484   7.816   2.802 -0.2795 -0.5480  0.0966
10553TIP3    H231605   5.404   7.760   2.686 -0.4725  1.0695 -0.5749
10554TIP3   OH231606   4.089   2.438   6.896  0.7455 -0.4247  0.2407
10554TIP3    H131607   4.061   2.454   6.806 -0.7559 -2.7978  0.2459
10554TIP3    H231608   4.121   2.348   6.896 -0.2412 -0.8025  2.2892
10555TIP3   OH231609   8.063   5.287   0.908  1.0266 -0.4348  0.1387
10555TIP3    H131610   8.106   5.245   0.982  1.1851  1.2704  1.0391
10555TIP3    H231611   8.092   5.379   0.912 -4.1001  1.2804  1.8963
10556TIP3   OH231612   1.903   0.392   2.249  0.1762 -0.6387 -0.4240
10556TIP3    H131613   1.934   0.480   2.228  1.0835 -0.5825  1.0981
10556TIP3    H231614   1.832   0.376   2.187  0.2862  1.0016 -0.9841
10557TIP3   OH231615   8.248   6.709   1.587 -0.3745 -0.1913 -0.4407
10557TIP3    H131616   8.296   6.714   1.669  0.6297  1.1617 -1.1016
10557TIP3    H231617   8.184   6.781   1.591  0.7487  0.8832 -1.5100
10558TIP3   OH231618   2.147   7.979   6.682 -0.0602  0.4758 -0.1314
10558TIP3    H131619   2.125   7.904   6.627  0.5213  0.1350  0.0912
10558TIP3    H231620   2.196   8.037   6.625 -2.1092  1.5613 -0.8217
10559TIP3   OH231621   0.370   6.595   1.259 -0.2302  0.1087  0.5978
10559TIP3    H131622   0.448   6.574   1.208 -0.7544 -1.9895  0.6141
10559TIP3    H231623   0.303   6.615   1.194 -0.5942 -1.4669  0.4696
10560TIP3   OH231624   7.623   7.188   0.895  0.1575 -0.2746 -0.4745
10560TIP3    H131625   7.696   7.206   0.953 -0.9559  1.1325  0.5317
10560TIP3    H231626   7.563   7.262   0.908 -2.4714 -2.4496  0.4263
10561TIP3   OH231627   7.899   7.483   0.702 -0.2858 -0.5856 -0.7122
10561TIP3    H131628   7.851   7.556   0.740 -0.8506 -0.7159 -1.1694
10561TIP3    H231629   7.832   7.428   0.661  0.3850  0.0185 -2.6865
10562TIP3   OH231630   6.310   7.118   1.378 -0.2124 -0.0693  0.8045
10562TIP3    H131631   6.302   7.038   1.327 -0.1175 -0.6319  1.6581
10562TIP3    H231632   6.400   7.116   1.412 -0.3183  0.2224  1.1081
10563TIP3   OH231633   6.427   6.883   1.269  0.0743 -0.2404  0.5215
10563TIP3    H131634   6.478   6.818   1.221 -0.2753  0.4608 -0.7996
10563TIP3    H231635   6.373   6.830   1.329 -0.6807 -1.2399 -0.9929
10564TIP3   OH231636   5.460   0.773   6.738  0.2244 -0.2041  0.4706
10564TIP3    H131637   5.445   0.691   6.692  3.0483 -0.0630 -0.8282
10564TIP3    H231638   5.556   0.779   6.745  0.1384  3.7200 -0.8767
10565TIP3   OH231639   6.165   3.429   5.685 -0.0141  0.1897 -0.9068
10565TIP3    H131640   6.209   3.474   5.613  1.1676 -0.0371 -0.3399
10565TIP3    H231641   6.194   3.477   5.763  0.3640 -0.8488 -0.3978
10566TIP3   OH231642   1.916   7.179   0.406 -0.3809 -0.5147 -0.0146
10566TIP3    H131643   1.883   7.135   0.485 -0.3844  1.2983  1.0257
10566TIP3    H231644   2.004   7.144   0.395 -0.1062 -0.2585  1.2320
10567TIP3   OH231645   6.777   3.843   6.251 -0.3348  0.1517  0.4693
10567TIP3    H131646   6.775   3.755   6.215 -1.0311  0.4805 -0.3052
10567TIP3    H231647   6.686   3.871   6.252 -0.1662  0.7076  1.1080
10568TIP3   OH231648   5.704   2.958   6.530  0.3093  0.1620 -0.2757
10568TIP3    H131649   5.799   2.958   6.529  0.3125 -1.0281 -1.4478
10568TIP3    H231650   5.679   2.866   6.517 -1.0001  0.0942  2.4742
10569TIP3   OH231651   5.491   3.140   6.509  0.2905  0.7697 -0.5815
10569TIP3    H131652   5.552   3.073   6.538 -0.6132 -0.2173 -0.9374
10569TIP3    H231653   5.544   3.219   6.499  1.3412  0.1276 -0.0969
10570TIP3   OH231654   2.290   7.634   0.580  0.0212  0.1785  0.4091
10570TIP3    H131655   2.311   7.566   0.644  0.8475  0.2470  0.2098
10570TIP3    H231656   2.373   7.680   0.566 -0.3112  0.5837 -0.2132
10571TIP3   OH231657   7.475   7.410   0.830  0.4273  0.3187  0.9168
10571TIP3    H131658   7.464   7.499   0.862 -3.1212  0.6501 -0.9711
10571TIP3    H231659   7.403   7.361   0.869  0.8724 -1.1438 -0.0227
10572TIP3   OH231660   5.173   3.856   4.660  0.5803 -0.0975 -0.4152
10572TIP3    H131661   5.118   3.862   4.738  0.5304  1.2811 -0.5382
10572TIP3    H231662   5.237   3.787   4.681 -0.0629 -0.4518  0.4341
10573TIP3   OH231663   5.733   3.038   5.838 -0.7817 -0.5196  0.1813
10573TIP3    H131664   5.744   2.943   5.848 -1.0080 -0.5113  0.5134
10573TIP3    H231665   5.671   3.062   5.907  0.6954  0.1771  1.2882
10574TIP3   OH231666   7.120   2.010   5.535  0.6767 -0.5517  0.5409
10574TIP3    H131667   7.066   1.933   5.515 -0.0684  0.0712  0.1177
10574TIP3    H231668   7.062   2.084   5.520  1.3605  0.0934  1.0571
10575TIP3   OH231669   7.059   4.988   0.559  0.4110  0.4525  0.3207
10575TIP3    H131670   7.026   5.050   0.624  0.4739  0.8840 -0.0598
10575TIP3    H231671   7.025   5.020   0.475 -0.1228 -0.4111  0.2036
10576TIP3   OH231672   5.422   2.805   5.664  0.4631 -0.0356  0.1211
10576TIP3    H131673   5.455   2.721   5.695  0.6408  0.2870  0.8006
10576TIP3    H231674   5.438   2.803   5.569  0.4005 -0.7911  0.1224
10577TIP3   OH231675   7.899   4.196   5.682 -0.2256  0.1345 -0.3175
10577TIP3    H131676   7.891   4.279   5.635  1.6337 -0.4940 -1.8439
10577TIP3    H231677   7.824   4.145   5.652 -1.1631  1.1147  0.3301
10578TIP3   OH231678   8.385   4.078   0.196 -0.2503  0.3016 -0.3453
10578TIP3    H131679   8.413   4.104   0.284 -0.5718 -1.5147  0.3198
10578TIP3    H231680   8.458   4.028   0.161 -0.8639 -0.5916 -0.3696
10579TIP3   OH231681   0.879   5.907   0.325 -0.3018 -0.5340  0.3466
10579TIP3    H131682   0.820   5.944   0.260  1.2698 -0.6317 -1.1821
10579TIP3    H231683   0.859   5.954   0.406 -3.1664 -1.2924  0.1318
10580TIP3   OH231684   6.050   1.399   6.063  0.3081 -0.6709 -0.1606
10580TIP3    H131685   6.042   1.353   6.147 -0.9362  0.2712  0.2439
10580TIP3    H231686   6.005   1.482   6.076 -0.4711 -0.7801 -1.9657
10581TIP3   OH231687   7.995   6.167   0.069  0.7805  0.5747 -0.1993
10581TIP3    H131688   7.983   6.245   0.122  0.3448  1.1097 -1.0675
10581TIP3    H231689   8.089   6.161   0.054  0.7215  1.4623 -0.9189
10582TIP3   OH231690   8.357   6.431   0.338 -0.3800  0.6189 -1.0478
10582TIP3    H131691   8.428   6.413   0.399  0.1450  0.9114 -1.5670
10582TIP3    H231692   8.353   6.527   0.333 -1.3786  0.6231 -0.3633
10583TIP3   OH231693   5.313   4.172   6.890  0.1561 -0.4664  0.3213
10583TIP3    H131694   5.379   4.172   6.959 -0.1978 -0.5018  0.6630
10583TIP3    H231695   5.321   4.258   6.849  0.7851 -0.6707 -0.0020
10584TIP3   OH231696   4.997   1.342   5.601 -0.3505 -0.9296  0.1842
10584TIP3    H131697   4.924   1.403   5.610  1.2992  1.3439 -1.0987
10584TIP3    H231698   5.061   1.372   5.667  0.9201 -0.5195 -1.1864
10585TIP3   OH231699   5.560   0.411   4.721 -0.0946  0.1473  0.4441
10585TIP3    H131700   5.649   0.440   4.705 -0.1198  0.5732  1.0540
10585TIP3    H231701   5.566   0.357   4.799  0.0229 -1.8774 -0.9297
10586TIP3   OH231702   6.456   5.795   0.124  0.1755  0.0064 -0.1211
10586TIP3    H131703   6.391   5.865   0.120 -1.6182 -1.6445 -0.5921
10586TIP3    H231704   6.413   5.725   0.173  1.8403 -0.8575  0.1252
10587TIP3   OH231705   6.182   2.834   5.876 -0.2126 -0.0575 -0.3252
10587TIP3    H131706   6.150   2.892   5.946 -1.0631 -0.1886 -0.5988
10587TIP3    H231707   6.229   2.892   5.817 -0.8796  0.3264 -0.4855
10588TIP3   OH231708   6.331   1.356   6.299  0.0187 -0.5330 -0.0974
10588TIP3    H131709   6.419   1.318   6.306 -0.7556 -2.3599  0.2008
10588TIP3    H231710   6.302   1.333   6.211 -0.4610 -0.6324  0.0841
10589TIP3   OH231711   4.784   1.393   6.896  0.6094  0.8800  0.7988
10589TIP3    H131712   4.803   1.318   6.952  0.2763 -0.7588 -1.2173
10589TIP3    H231713   4.863   1.403   6.843  0.2497  1.2709  0.3340
10590TIP3   OH231714   4.665   3.245   5.495  0.2051 -0.3044  0.8129
10590TIP3    H131715   4.740   3.196   5.528 -0.2971 -0.6243  1.4938
10590TIP3    H231716   4.652   3.212   5.406  0.8565 -0.2595  0.6993
10591TIP3   OH231717   2.731   2.217   6.926 -0.2969 -0.2604  0.1834
10591TIP3    H131718   2.797   2.191   6.861 -2.0836  0.3225 -1.8928
10591TIP3    H231719   2.775   2.285   6.977  0.9792 -0.3802 -0.7138
10592TIP3   OH231720   0.903   7.517   1.047  0.8141  0.0796 -0.0242
10592TIP3    H131721   0.950   7.596   1.071 -0.7146  1.1983 -0.6112
10592TIP3    H231722   0.912   7.459   1.123 -0.2703  1.8496  1.5145
10593TIP3   OH231723   6.769   2.035   6.688 -0.4502  0.6308 -0.2905
10593TIP3    H131724   6.821   1.960   6.717 -0.5425 -0.5237 -2.9614
10593TIP3    H231725   6.826   2.081   6.626 -1.0217  1.8255  0.0546
10594TIP3   OH231726   5.260   3.324   6.801  0.0891 -0.2020 -0.4469
10594TIP3    H131727   5.348   3.359   6.818 -0.6891  0.1109  3.4741
10594TIP3    H231728   5.271   3.229   6.805  0.3732 -0.1736 -0.5297
10595TIP3   OH231729   2.957   5.353   6.798 -0.0906  0.5700  0.2921
10595TIP3    H131730   3.038   5.305   6.814 -1.2659 -1.4109  0.5121
10595TIP3    H231731   2.955   5.421   6.865  1.4016  0.6547  0.2559
10596TIP3   OH231732   8.344   4.324   1.126 -0.2415  0.1713  0.0110
10596TIP3    H131733   8.348   4.252   1.063  1.0013  0.1975  0.0580
10596TIP3    H231734   8.430   4.324   1.168  0.0128  2.1194 -0.4703
10597TIP3   OH231735   7.511   0.538   0.911 -0.0045  0.2111 -0.1122
10597TIP3    H131736   7.508   0.633   0.907  1.5813  0.3512  1.3054
10597TIP3    H231737   7.593   0.515   0.866 -0.6652 -0.5225 -0.9564
10598TIP3   OH231738   6.376   6.851   0.906  0.4531 -0.0645 -0.2599
10598TIP3    H131739   6.352   6.926   0.961  0.5169 -0.5294  0.4122
10598TIP3    H231740   6.464   6.828   0.935 -0.0995 -1.2690  0.5102
10599TIP3   OH231741   4.823   0.757   6.566  0.4879  0.4765  0.8946
10599TIP3    H131742   4.910   0.753   6.606  0.4093  1.8332  1.2251
10599TIP3    H231743   4.776   0.822   6.617 -0.6935 -0.1607  0.6371
10600TIP3   OH231744   3.614   3.636   6.924  0.1192  0.4501  0.5526
10600TIP3    H131745   3.642   3.582   6.998  0.3329  1.1855  1.0105
10600TIP3    H231746   3.689   3.638   6.865  0.8983  2.0913  1.5898
10601TIP3   OH231747   5.325   1.246   6.287  0.2767  0.0455 -0.5690
10601TIP3    H131748   5.296   1.336   6.275  0.6675  0.1559 -0.6790
10601TIP3    H231749   5.364   1.221   6.203  0.6358 -0.0527 -0.3753
10602TIP3   OH231750   6.699   5.591   1.208  0.5742 -0.2026 -0.4826
10602TIP3    H131751   6.634   5.662   1.212 -0.0714 -0.8035 -0.0246
10602TIP3    H231752   6.646   5.512   1.195  1.0831 -0.8962  1.4190
10603TIP3   OH231753   6.274   7.580   1.349 -0.2019 -0.6829 -0.5447
10603TIP3    H131754   6.332   7.621   1.285  0.1599  0.1934  0.3398
10603TIP3    H231755   6.199   7.639   1.355 -1.1248 -1.7303 -1.5625
10604TIP3   OH231756   4.209   4.951   6.348  0.2642  0.7138 -0.3745
10604TIP3    H131757   4.171   4.865   6.367 -1.3635  1.5938  0.5781
10604TIP3    H231758   4.282   4.933   6.289  0.3016 -1.3667  0.2439
10605TIP3   OH231759   7.124   2.876   5.431 -0.3963  0.0749 -0.2180
10605TIP3    H131760   7.072   2.887   5.511  1.6092 -0.1466  1.1575
10605TIP3    H231761   7.131   2.964   5.395 -0.0115  0.4343  0.7068
10606TIP3   OH231762   4.656   1.100   5.798 -0.0653  0.1524  0.2646
10606TIP3    H131763   4.582   1.161   5.803 -0.5490 -0.4058 -0.0248
10606TIP3    H231764   4.619   1.020   5.761  0.8518  0.1468 -0.6877
10607TIP3   OH231765   5.958   0.863   6.366  0.1290  0.8673  0.0697
10607TIP3    H131766   5.894   0.808   6.321  1.5838 -1.5058  0.7765
10607TIP3    H231767   5.969   0.821   6.452  3.0641  0.8320 -0.2723
10608TIP3   OH231768   4.467   1.467   6.913 -0.0726  0.1631 -0.1773
10608TIP3    H131769   4.411   1.400   6.952  0.2180  0.0786  0.0866
10608TIP3    H231770   4.410   1.544   6.908 -0.2332  0.0605  0.0368
10609TIP3   OH231771   6.141   0.872   6.677 -0.3044  1.0106 -0.2144
10609TIP3    H131772   6.191   0.912   6.605 -0.8211  1.1997 -0.4753
10609TIP3    H231773   6.184   0.904   6.756 -0.7886  2.2173 -0.4182
10610TIP3   OH231774   5.654   7.985   5.834  0.3628  0.1489 -0.2231
10610TIP3    H131775   5.613   7.905   5.867 -0.7923  0.9466  0.2995
10610TIP3    H231776   5.664   7.969   5.740 -0.9838 -0.1196 -0.3256
10611TIP3   OH231777   4.111   1.540   6.682  0.5356  0.4989  0.2249
10611TIP3    H131778   4.041   1.546   6.618  0.3018  2.2523  0.6209
10611TIP3    H231779   4.076   1.485   6.752 -0.0804  0.5662 -0.0333
10612TIP3   OH231780   5.146   3.772   5.760  0.2908 -0.1082  0.2928
10612TIP3    H131781   5.069   3.826   5.774  0.7243  0.7265 -0.5292
10612TIP3    H231782   5.120   3.685   5.791 -1.0061  0.1416 -0.0652
10613TIP3   OH231783   5.632   2.111   6.568 -0.1310 -0.2923 -0.2069
10613TIP3    H131784   5.675   2.129   6.485  0.3348  0.1729  0.1377
10613TIP3    H231785   5.667   2.176   6.629 -2.0120  0.7142 -0.1514
10614TIP3   OH231786   3.353   1.802   4.860  0.0353  0.2933  0.1594
10614TIP3    H131787   3.328   1.731   4.919  0.4467  2.0909  2.5529
10614TIP3    H231788   3.394   1.757   4.785 -0.2621 -2.0099  1.3240
10615TIP3   OH231789   6.537   5.414   5.486  0.1245  0.2109 -0.5326
10615TIP3    H131790   6.499   5.354   5.550 -1.5795 -0.2554 -1.9519
10615TIP3    H231791   6.578   5.483   5.539 -1.6157  0.0578  1.0537
10616TIP3   OH231792   4.424   2.151   4.267  0.1860  0.0500 -0.1878
10616TIP3    H131793   4.412   2.070   4.317  0.0929 -1.2131 -2.2151
10616TIP3    H231794   4.339   2.169   4.228  0.2467  1.0596  0.1138
10617TIP3   OH231795   7.481   5.559   1.480 -0.4653 -0.9759  0.0873
10617TIP3    H131796   7.427   5.622   1.527 -1.2227 -1.6736  0.1759
10617TIP3    H231797   7.481   5.589   1.389 -1.3261 -1.1737  0.0148
10618TIP3   OH231798   7.235   7.731   2.542 -0.2978 -0.1599  0.3390
10618TIP3    H131799   7.196   7.784   2.473 -0.8041 -0.5124  0.3543
10618TIP3    H231800   7.161   7.685   2.582 -0.1329  0.6812  1.6737
10619TIP3   OH231801   5.866   2.930   4.787 -0.1086  0.4541 -0.0593
10619TIP3    H131802   5.829   2.868   4.726 -0.6592  0.3907  0.3346
10619TIP3    H231803   5.861   2.887   4.872  2.4067 -0.2435 -0.2176
10620TIP3   OH231804   0.416   6.329   0.206 -0.0786  0.4417  0.6630
10620TIP3    H131805   0.417   6.424   0.196  1.8635  0.4013  0.2948
10620TIP3    H231806   0.329   6.303   0.176  0.1066  1.8965 -1.1956
10621TIP3   OH231807   1.563   1.022   0.791  0.0843 -0.2274  0.0549
10621TIP3    H131808   1.648   1.035   0.833  0.6071  1.8018 -1.5654
10621TIP3    H231809   1.545   0.928   0.800  1.7498 -0.4006  1.7742
10622TIP3   OH231810   0.826   2.505   6.399  0.1877 -0.6302  0.1720
10622TIP3    H131811   0.891   2.507   6.328  0.5913 -0.8776  0.5258
10622TIP3    H231812   0.876   2.475   6.475 -0.0316  0.5206  0.7828
10623TIP3   OH231813   7.924   2.281   5.163  0.2728  0.3068  0.3088
10623TIP3    H131814   7.890   2.274   5.252 -0.7450  1.0529 -0.0229
10623TIP3    H231815   7.857   2.328   5.114  1.4823  1.2467 -0.5027
10624TIP3   OH231816   2.761   5.722   0.457 -0.0078 -0.5562  0.1629
10624TIP3    H131817   2.707   5.800   0.449  0.4260 -0.2045  0.5943
10624TIP3    H231818   2.829   5.733   0.389  0.8729  0.1228  1.1390
10625TIP3   OH231819   1.576   3.243   6.108  0.2969  0.1634 -0.2337
10625TIP3    H131820   1.642   3.257   6.176  1.7336 -3.6511 -0.7246
10625TIP3    H231821   1.507   3.192   6.152 -0.3871  0.5912 -0.7975
10626TIP3   OH231822   6.376   3.379   4.702 -0.6503 -0.0880  0.5348
10626TIP3    H131823   6.297   3.426   4.727  0.5654  2.3615 -0.1391
10626TIP3    H231824   6.428   3.374   4.782 -0.1378  0.9946  0.2688
10627TIP3   OH231825   6.279   2.061   4.410  0.0681  0.6361  0.1198
10627TIP3    H131826   6.363   2.024   4.437  0.8152  0.8283 -1.8440
10627TIP3    H231827   6.290   2.156   4.419  0.5567  0.7425 -1.4298
10628TIP3   OH231828   5.856   1.526   5.395 -0.3975  0.2647 -0.0605
10628TIP3    H131829   5.869   1.525   5.300  1.3182 -1.1189  0.1824
10628TIP3    H231830   5.802   1.604   5.410  0.6112  1.3865 -1.9955
10629TIP3   OH231831   7.811   4.605   6.329 -0.0874 -0.1821  0.2036
10629TIP3    H131832   7.763   4.560   6.398 -0.1555  0.6652  0.7137
10629TIP3    H231833   7.857   4.676   6.373  1.5831 -0.9259 -0.2932
10630TIP3   OH231834   8.338   1.804   4.553 -0.6902 -0.4870 -0.3123
10630TIP3    H131835   8.334   1.817   4.459  1.1337 -1.9814 -0.6287
10630TIP3    H231836   8.254   1.837   4.586 -1.6350 -0.6179 -2.5290
10631TIP3   OH231837   0.072   2.615   6.661  0.0413 -0.2184 -0.3219
10631TIP3    H131838   0.018   2.667   6.602 -0.5827 -0.4697  0.0192
10631TIP3    H231839   0.162   2.629   6.631 -0.1103  1.1034 -0.1898
10632TIP3   OH231840   2.458   7.200   0.852  0.3654  0.0358 -0.0442
10632TIP3    H131841   2.407   7.204   0.933  0.5649  2.3822  0.0137
10632TIP3    H231842   2.521   7.129   0.866  0.4425  0.4705  1.9134
10633TIP3   OH231843   7.977   1.693   4.238  0.1523 -0.6441 -0.5368
10633TIP3    H131844   7.943   1.637   4.168  1.4765 -0.5025 -1.3198
10633TIP3    H231845   7.919   1.677   4.312 -1.4963 -0.5233 -1.7703
10634TIP3   OH231846   1.544   3.153   5.234 -0.3033 -0.0116 -0.0212
10634TIP3    H131847   1.586   3.123   5.154  2.2016  1.7648  0.5813
10634TIP3    H231848   1.452   3.165   5.210  0.0530 -1.2340 -2.1189
10635TIP3   OH231849   2.675   6.829   0.259 -0.1901  0.1840  0.2166
10635TIP3    H131850   2.687   6.842   0.165  1.0802  0.6620  0.4276
10635TIP3    H231851   2.662   6.918   0.294 -0.1164  0.0669  0.5466
10636TIP3   OH231852   6.333   1.632   6.938 -0.9011 -0.4943  0.4036
10636TIP3    H131853   6.262   1.630   6.873 -2.9631  2.0152  2.4752
10636TIP3    H231854   6.311   1.562   6.999 -0.2273 -1.3108 -0.2664
10637TIP3   OH231855   8.064   2.516   6.461 -0.5575 -0.1000  0.2380
10637TIP3    H131856   8.001   2.538   6.529 -1.8384  0.0074 -0.9527
10637TIP3    H231857   8.117   2.595   6.450 -2.5719  1.0924 -1.2529
10638TIP3   OH231858   2.071   7.482   1.120  0.2331  0.6613 -0.1714
10638TIP3    H131859   1.992   7.531   1.098  0.5638  1.0927 -0.4123
10638TIP3    H231860   2.104   7.523   1.200  0.0154  0.2467  0.1346
10639TIP3   OH231861   6.618   2.520   6.330 -0.1203  0.7733 -0.3750
10639TIP3    H131862   6.577   2.525   6.244 -1.1480 -0.6920  0.0055
10639TIP3    H231863   6.544   2.528   6.391  0.5113  1.0500  0.3563
10640TIP3   OH231864   4.761   7.496   5.533  0.7256 -0.5514 -0.2351
10640TIP3    H131865   4.683   7.469   5.485  0.4836  0.4859 -0.4287
10640TIP3    H231866   4.732   7.567   5.590  1.7586  0.6478 -1.1647
10641TIP3   OH231867   4.098   5.973   0.435  0.4361  0.2809  0.1673
10641TIP3    H131868   4.147   5.892   0.420  2.3448  1.1384  1.5780
10641TIP3    H231869   4.064   5.966   0.524 -0.9371  0.2520 -0.3493
10642TIP3   OH231870   8.312   4.566   0.385  0.3615 -0.9378 -0.2288
10642TIP3    H131871   8.318   4.573   0.480 -2.0172  1.4130 -0.2110
10642TIP3    H231872   8.233   4.515   0.370 -0.9702  1.2904 -0.9592
10643TIP3   OH231873   8.048   4.153   6.560  0.4586  0.8026  0.3924
10643TIP3    H131874   8.099   4.180   6.636  0.0177  0.1512  0.9304
10643TIP3    H231875   8.112   4.114   6.500  1.2158  3.6789 -0.7338
10644TIP3   OH231876   6.865   6.042   0.016  0.0503 -0.5484  0.3055
10644TIP3    H131877   6.926   6.101   0.061 -1.0458  0.3581  0.6292
10644TIP3    H231878   6.896   6.041  -0.074  1.2583 -1.0509  0.7142
10645TIP3   OH231879   6.545   2.197   3.952  0.1372 -0.0715  0.4303
10645TIP3    H131880   6.576   2.273   3.903  0.8857 -0.0001  1.0078
10645TIP3    H231881   6.451   2.212   3.964 -0.5017 -1.1212 -2.8409
10646TIP3   OH231882   6.322   3.263   5.948 -0.3704 -0.0973 -0.1151
10646TIP3    H131883   6.370   3.274   6.030  0.4326  1.3735 -0.7668
10646TIP3    H231884   6.247   3.323   5.955 -0.3644 -0.0528 -0.4065
10647TIP3   OH231885   7.330   3.785   4.397  0.3847  0.2889 -0.0087
10647TIP3    H131886   7.404   3.813   4.451 -0.1639  0.1875  0.7995
10647TIP3    H231887   7.254   3.831   4.434 -0.0366  0.0397 -0.5481
10648TIP3   OH231888   6.903   3.808   4.993 -0.0046  0.0665  0.1572
10648TIP3    H131889   6.853   3.777   4.918  0.4302  0.4793 -0.3117
10648TIP3    H231890   6.966   3.738   5.010  0.4882  0.3643 -0.4318
10649TIP3   OH231891   4.902   2.413   4.795 -0.2432 -0.1010  0.2260
10649TIP3    H131892   4.849   2.431   4.873 -1.7100  0.9876 -0.9666
10649TIP3    H231893   4.976   2.473   4.801 -0.6600  0.3893  0.5095
10650TIP3   OH231894   8.478   3.133   6.402 -0.2996 -0.1325 -0.1128
10650TIP3    H131895   8.402   3.146   6.458  1.3968 -1.0921  2.5069
10650TIP3    H231896   8.548   3.184   6.443  0.7457 -0.0707 -1.9023
10651TIP3   OH231897   6.872   2.096   3.755  0.1343 -0.4157 -0.5131
10651TIP3    H131898   6.800   2.146   3.793 -0.2336 -1.3785  0.0935
10651TIP3    H231899   6.947   2.155   3.758 -0.4480  0.3310 -0.4407
10652TIP3   OH231900   6.011   0.918   5.472  0.6500  0.1009 -0.2607
10652TIP3    H131901   5.932   0.929   5.525 -0.6982 -0.4269 -2.1120
10652TIP3    H231902   6.062   0.851   5.517 -0.3463 -0.1439  0.5024
10653TIP3   OH231903   7.705   3.257   6.377 -0.0868 -0.6411  0.1815
10653TIP3    H131904   7.644   3.196   6.418  1.0237 -1.3617  0.7751
10653TIP3    H231905   7.759   3.202   6.321 -1.3546  0.2858 -2.0077
10654TIP3   OH231906   7.002   1.279   3.802  0.9137  0.0141 -0.0393
10654TIP3    H131907   6.991   1.374   3.806 -1.5122 -0.1440 -1.7121
10654TIP3    H231908   6.914   1.245   3.784  1.5378 -2.6478  1.5981
10655TIP3   OH231909   0.179   4.504   5.064 -0.0880  0.7356 -0.1905
10655TIP3    H131910   0.137   4.431   5.110  1.2588  1.1268  1.7340
10655TIP3    H231911   0.108   4.563   5.041 -0.7859  0.6532  1.6614
10656TIP3   OH231912   5.899   2.875   5.392 -0.0281  0.6005 -0.1702
10656TIP3    H131913   5.825   2.917   5.437  0.1981  0.6452  0.1569
10656TIP3    H231914   5.935   2.814   5.457 -0.3344 -0.0767 -0.6288
10657TIP3   OH231915   7.069   1.904   6.534  0.2119 -0.2734  0.1470
10657TIP3    H131916   7.038   1.995   6.535  0.8503 -0.0596  0.5360
10657TIP3    H231917   7.130   1.900   6.460  0.9197 -0.1348  0.7165
10658TIP3   OH231918   1.853   6.686   0.760 -0.0308  0.5035 -0.1126
10658TIP3    H131919   1.948   6.673   0.756  0.1472  1.7716 -0.1121
10658TIP3    H231920   1.817   6.601   0.734  1.0876  0.5853 -2.0525
10659TIP3   OH231921   8.282   2.412   5.851  0.1354 -0.5923  0.3129
10659TIP3    H131922   8.338   2.474   5.804  0.1463 -1.4317 -0.8102
10659TIP3    H231923   8.224   2.467   5.903  0.3871  0.3524 -0.3873
10660TIP3   OH231924   7.974   3.833   6.303  0.5181  0.2137  0.7011
10660TIP3    H131925   8.039   3.900   6.284  0.3652  1.0272  2.8520
10660TIP3    H231926   7.905   3.847   6.239  0.4805  2.1498  1.1333
10661TIP3   OH231927   6.989   1.809   4.952 -0.2591  0.3730  0.1733
10661TIP3    H131928   6.911   1.763   4.984 -1.1356  1.1598 -0.7655
10661TIP3    H231929   6.954   1.890   4.915  0.8979  0.1879 -1.3395
10662TIP3   OH231930   0.905   4.967   1.325  0.7423 -0.1912  0.1585
10662TIP3    H131931   0.883   4.896   1.266  1.7858  2.8059 -4.0803
10662TIP3    H231932   1.000   4.976   1.319  0.6367  1.4955  0.6232
10663TIP3   OH231933   5.570   3.599   5.534  0.1549  0.2840 -0.5176
10663TIP3    H131934   5.615   3.520   5.506  1.1629  0.2524  1.1548
10663TIP3    H231935   5.492   3.603   5.479 -0.2397 -2.2198 -0.1870
10664TIP3   OH231936   7.006   2.267   4.809 -0.4287 -0.0689 -0.4177
10664TIP3    H131937   7.002   2.183   4.764  0.4369 -0.3224 -0.0321
10664TIP3    H231938   7.074   2.256   4.875  1.2872  1.6355 -1.8395
10665TIP3   OH231939   6.764   2.651   5.677  0.1118 -0.5145 -0.0342
10665TIP3    H131940   6.849   2.637   5.719  1.0805 -1.8395 -2.2933
10665TIP3    H231941   6.773   2.737   5.634  0.0124 -0.2831  0.4065
10666TIP3   OH231942   5.274   3.231   5.113  0.2738  0.0200 -0.1845
10666TIP3    H131943   5.250   3.275   5.195 -0.5744 -1.5890  0.4683
10666TIP3    H231944   5.284   3.301   5.049  0.0386  1.2282  1.0935
10667TIP3   OH231945   6.712   3.483   5.879  0.5789 -0.4917 -0.0408
10667TIP3    H131946   6.775   3.486   5.808  0.5005 -1.1455 -0.1425
10667TIP3    H231947   6.665   3.400   5.866 -0.8795  0.3848 -0.4654
10668TIP3   OH231948   6.964   6.718   1.093  0.2832 -0.1835  0.5245
10668TIP3    H131949   7.016   6.638   1.093  0.1906 -0.2572 -0.4581
10668TIP3    H231950   6.914   6.715   1.175 -0.6398 -1.7489 -0.0675
10669TIP3   OH231951   6.299   7.140   0.366  0.3614 -0.3781 -0.0758
10669TIP3    H131952   6.347   7.070   0.323  1.1457  0.3089 -0.3280
10669TIP3    H231953   6.209   7.130   0.336  0.6141 -0.8253 -0.6826
10670TIP3   OH231954   0.102   2.197   3.022 -0.0183  0.5941 -0.0910
10670TIP3    H131955   0.137   2.241   2.944  0.9628  1.8928  1.0351
10670TIP3    H231956   0.137   2.108   3.017 -0.1497  0.5961 -1.2435
10671TIP3   OH231957   7.054   4.109   6.513 -0.4304 -0.5124  0.7359
10671TIP3    H131958   7.149   4.103   6.528 -0.7850  1.2090  4.2054
10671TIP3    H231959   7.045   4.168   6.439  1.2103 -0.9123  0.1976
10672TIP3   OH231960   6.250   6.178   4.609 -0.1086  0.7295  0.0067
10672TIP3    H131961   6.322   6.144   4.662 -0.1760 -0.6741 -0.7937
10672TIP3    H231962   6.185   6.207   4.673 -0.2340 -1.0464  0.6969
10673TIP3   OH231963   7.385   2.489   4.927  0.0722  0.5497  0.8306
10673TIP3    H131964   7.417   2.500   5.016  1.6003  0.0384  0.3622
10673TIP3    H231965   7.465   2.486   4.873 -0.7355 -1.2083 -0.3111
10674TIP3   OH231966   4.242   4.600   6.104  0.1206 -0.0221  0.1937
10674TIP3    H131967   4.241   4.555   6.188  0.0312  4.0026  2.4779
10674TIP3    H231968   4.178   4.670   6.114  0.6045  0.9466 -3.0217
10675TIP3   OH231969   8.256   1.696   6.387  0.1296 -0.5859  0.0716
10675TIP3    H131970   8.292   1.784   6.394 -1.4264  0.0877 -0.1946
10675TIP3    H231971   8.296   1.660   6.307 -0.5086  0.4909 -0.7474
10676TIP3   OH231972   7.487   5.067   5.919 -0.1344  0.3099 -0.2873
10676TIP3    H131973   7.563   5.012   5.940 -0.2094  0.3641  0.1349
10676TIP3    H231974   7.426   5.052   5.992  0.0030  1.2521  0.0315
10677TIP3   OH231975   5.731   3.246   6.191  0.0843  0.4446  0.4870
10677TIP3    H131976   5.694   3.323   6.235 -0.5577  0.3858  0.0563
10677TIP3    H231977   5.818   3.273   6.164  0.0808  0.8309  0.8594
10678TIP3   OH231978   0.264   1.980   6.747  0.1456 -0.3113  0.4393
10678TIP3    H131979   0.344   2.017   6.711  0.0474 -0.5214  0.0002
10678TIP3    H231980   0.205   1.973   6.672 -0.4149  0.1832  0.8237
10679TIP3   OH231981   6.535   1.888   6.656 -0.4211  0.1469  0.5638
10679TIP3    H131982   6.611   1.945   6.659  0.1209 -0.5198 -0.1556
10679TIP3    H231983   6.541   1.835   6.735  0.3978 -0.5778  0.0199
10680TIP3   OH231984   0.749   4.266   5.953  0.1485  0.2108 -0.6545
10680TIP3    H131985   0.703   4.333   5.902 -0.3800  1.5031  1.5025
10680TIP3    H231986   0.723   4.281   6.043  0.5851 -2.4747 -0.0298
10681TIP3   OH231987   4.245   3.956   4.461 -0.2116  0.2352  0.3015
10681TIP3    H131988   4.317   4.018   4.462 -0.2252  0.2497  0.5325
10681TIP3    H231989   4.284   3.872   4.435 -0.1954  0.3440 -0.0212
10682TIP3   OH231990   7.415   0.732   4.542 -0.2683  0.5763 -0.1517
10682TIP3    H131991   7.423   0.678   4.621 -0.1720  1.1298  0.2152
10682TIP3    H231992   7.502   0.730   4.502  0.0103  1.3197  0.4193
10683TIP3   OH231993   2.143   6.196   0.092  0.4905  0.5955 -0.4997
10683TIP3    H131994   2.170   6.167   0.005  0.5473 -1.6774  0.2468
10683TIP3    H231995   2.172   6.126   0.150 -3.1044  0.1659  0.8593
10684TIP3   OH231996   6.785   0.846   6.884  0.1010  1.0040 -0.5396
10684TIP3    H131997   6.850   0.787   6.921  0.4848  0.9330 -1.3231
10684TIP3    H231998   6.804   0.931   6.925 -1.1659  0.3798  1.4593
10685TIP3   OH231999   6.961   3.338   4.521 -0.2010 -0.0728  0.1314
10685TIP3    H132000   6.950   3.259   4.575  0.1099  0.3012  0.7399
10685TIP3    H232001   7.007   3.400   4.577  0.9618 -0.0045 -0.8799
10686TIP3   OH232002   6.949   4.565   5.254 -0.1833  0.0282 -0.9770
10686TIP3    H132003   6.885   4.495   5.270 -0.3723  0.5293  0.5313
10686TIP3    H232004   7.033   4.518   5.247 -0.4473 -0.4484 -1.0059
10687TIP3   OH232005   7.031   3.075   3.931  0.5814 -0.3360  0.7186
10687TIP3    H132006   7.103   3.074   3.867  0.8574 -0.5502  1.0285
10687TIP3    H232007   7.075   3.070   4.016  0.2532  0.6251  0.9527
10688TIP3   OH232008   7.678   5.440   0.980 -0.1838 -0.0584  0.3152
10688TIP3    H132009   7.585   5.426   0.960 -0.4627  2.1097 -0.0165
10688TIP3    H232010   7.708   5.356   1.014 -3.0216  0.0312  3.2985
10689TIP3   OH232011   6.420   3.693   4.859  0.3354  0.7332  0.2513
10689TIP3    H132012   6.340   3.718   4.813  1.4153 -0.0743 -2.1908
10689TIP3    H232013   6.403   3.603   4.889 -0.0472  0.9423  0.6701
10690TIP3   OH232014   8.061   5.855   1.070 -0.8389 -0.0569  0.5001
10690TIP3    H132015   8.000   5.812   1.130  0.0474  0.6506  1.9431
10690TIP3    H232016   8.124   5.898   1.128 -0.3856  1.2496 -0.9559
10691TIP3   OH232017   8.395   4.968   0.360 -0.5005 -0.6481 -0.5855
10691TIP3    H132018   8.401   5.035   0.429 -1.7351  0.3335 -1.3906
10691TIP3    H232019   8.439   4.892   0.396 -1.0796 -0.1315  1.2767
10692TIP3   OH232020   6.585   3.237   5.852 -0.3010  0.0803 -0.3040
10692TIP3    H132021   6.602   3.155   5.899 -0.0151 -2.7891 -5.1094
10692TIP3    H232022   6.490   3.236   5.836 -0.5077  1.3872  0.7597
10693TIP3   OH232023   6.448   4.295   5.234 -0.3630  0.0978 -0.4634
10693TIP3    H132024   6.498   4.216   5.258 -2.2400 -1.0484 -0.1980
10693TIP3    H232025   6.408   4.273   5.150 -0.7249  0.8469 -0.4870
10694TIP3   OH232026   0.788   3.945   6.250  0.3739  0.2776 -0.1069
10694TIP3    H132027   0.823   4.012   6.308  1.0846 -0.0723 -0.1155
10694TIP3    H232028   0.703   3.978   6.223  0.2469  0.6628  0.7519
10695TIP3   OH232029   5.584   2.128   5.390  1.0781  0.3845  0.0379
10695TIP3    H132030   5.652   2.086   5.338  1.3994  1.4615 -0.4351
10695TIP3    H232031   5.599   2.098   5.479  3.4109  2.1262  0.2809
10696TIP3   OH232032   1.007   2.866   5.398 -0.6414 -0.3608 -0.0139
10696TIP3    H132033   0.916   2.836   5.396 -0.4973 -0.7963 -0.0189
10696TIP3    H232034   1.057   2.790   5.427 -0.0735 -0.6415 -1.7015
10697TIP3   OH232035   5.651   1.480   4.861 -0.0114  0.0990 -0.0022
10697TIP3    H132036   5.697   1.397   4.852 -1.3395 -0.4432 -2.1724
10697TIP3    H232037   5.713   1.546   4.832  0.6624 -0.2517  0.6380
10698TIP3   OH232038   7.297   6.041   5.183  0.0280 -0.0773 -0.2673
10698TIP3    H132039   7.390   6.021   5.195  0.2666  0.8433 -0.5201
10698TIP3    H232040   7.262   6.050   5.272 -0.2532 -2.2833 -0.1227
10699TIP3   OH232041   8.204   2.999   6.180  0.4088 -0.0552 -0.2559
10699TIP3    H132042   8.253   2.926   6.143  0.9788  0.9188 -1.4598
10699TIP3    H232043   8.159   3.038   6.105 -1.7432 -0.5417  0.7155
10700TIP3   OH232044   6.638   2.898   4.348 -0.7655  0.0607  0.0652
10700TIP3    H132045   6.546   2.878   4.363 -0.4770 -0.9118  0.5429
10700TIP3    H232046   6.683   2.867   4.427 -0.1455  1.4005  0.2681
10701TIP3   OH232047   1.825   4.924   1.575 -0.2123  0.3082  0.2565
10701TIP3    H132048   1.802   4.907   1.484  1.4083 -1.2808  0.1048
10701TIP3    H232049   1.852   5.016   1.577  2.0183 -0.2678 -1.3969
10702TIP3   OH232050   2.166   5.951   0.253 -0.5807 -0.3180  0.3635
10702TIP3    H132051   2.135   5.991   0.334 -0.3532  0.5208  0.0437
10702TIP3    H232052   2.248   5.907   0.278 -0.7055 -0.3727  0.6684
10703TIP3   OH232053   6.406   4.562   4.578 -0.3282 -0.1306 -0.1378
10703TIP3    H132054   6.397   4.479   4.625  1.1585  0.6533  1.6029
10703TIP3    H232055   6.353   4.551   4.499 -1.1257 -2.2832  0.6609
10704TIP3   OH232056   6.371   2.080   0.750  0.5553  0.5412  0.3822
10704TIP3    H132057   6.350   2.160   0.799  0.3017  0.6548  0.0848
10704TIP3    H232058   6.299   2.020   0.772 -0.2457  1.0300 -0.8695
10705TIP3   OH232059   7.373   0.596   6.240  0.5294 -0.1719  0.9204
10705TIP3    H132060   7.292   0.647   6.248  0.8620  0.5382  0.0148
10705TIP3    H232061   7.385   0.555   6.325 -1.1105 -0.7850  0.8748
10706TIP3   OH232062   4.988   6.683   6.360 -0.2155 -0.4006  0.3337
10706TIP3    H132063   5.012   6.727   6.278  1.4671 -1.5447  0.1894
10706TIP3    H232064   4.893   6.695   6.366 -0.5001 -1.0033 -2.2063
10707TIP3   OH232065   6.916   2.233   5.315 -0.4000  0.1439  0.1209
10707TIP3    H132066   7.003   2.252   5.348  0.2132 -1.7205 -0.4194
10707TIP3    H232067   6.918   2.264   5.224  0.5116 -2.1157 -0.6689
10708TIP3   OH232068   6.796   1.096   5.549  0.0696  0.7281 -0.2357
10708TIP3    H132069   6.702   1.108   5.536 -0.3772 -0.9605  1.2430
10708TIP3    H232070   6.809   1.109   5.643  1.9959  5.0282 -0.9943
10709TIP3   OH232071   6.440   3.647   4.413  0.6406 -0.1440  0.3553
10709TIP3    H132072   6.396   3.698   4.481  0.0852 -0.4654  0.2443
10709TIP3    H232073   6.369   3.621   4.354  0.7201 -2.0443  1.0514
10710TIP3   OH232074   6.040   4.859   5.805 -0.5411  0.3343  0.5085
10710TIP3    H132075   6.043   4.953   5.787 -0.3998  0.1197 -0.5719
10710TIP3    H232076   6.127   4.827   5.781  0.0669  0.2369  2.6759
10711TIP3   OH232077   8.119   4.275   6.198  0.1001 -0.4632  0.4003
10711TIP3    H132078   8.163   4.343   6.148  0.4107  0.9775  2.5638
10711TIP3    H232079   8.033   4.266   6.157 -0.3364  1.9963  0.7316
10712TIP3   OH232080   8.188   2.921   3.560 -0.5550  0.1973 -0.5129
10712TIP3    H132081   8.157   3.005   3.594 -1.0881  0.0288 -0.5737
10712TIP3    H232082   8.113   2.862   3.572 -0.8351  0.2026 -2.2253
10713TIP3   OH232083   0.364   2.504   5.140 -0.0816  0.4883 -0.5513
10713TIP3    H132084   0.307   2.495   5.216 -1.5386 -3.3984 -1.9483
10713TIP3    H232085   0.449   2.472   5.170 -0.1308  0.8917  0.0108
10714TIP3   OH232086   7.691   3.557   4.274 -0.2832  0.1640  0.2126
10714TIP3    H132087   7.701   3.488   4.208 -0.2520 -0.5916  0.9924
10714TIP3    H232088   7.781   3.576   4.302 -0.3446 -0.0466  0.5618
10715TIP3   OH232089   8.351   1.988   4.808  0.0618 -0.0710 -0.6113
10715TIP3    H132090   8.400   1.939   4.741  0.5059 -1.3938  0.6607
10715TIP3    H232091   8.328   1.922   4.873 -0.0697  1.2742  0.7165
10716TIP3   OH232092   5.940   2.365   5.444  0.7732  0.2694  0.0213
10716TIP3    H132093   6.022   2.405   5.472  1.1450 -1.9452  2.2732
10716TIP3    H232094   5.945   2.365   5.348  3.3145  0.3568  0.1177
10717TIP3   OH232095   6.786   1.973   5.603  0.3073 -0.7936  0.7211
10717TIP3    H132096   6.781   1.949   5.696 -0.7533  0.7212  1.0884
10717TIP3    H232097   6.835   2.055   5.602 -0.3750 -0.3823  0.0350
10718TIP3   OH232098   6.918   2.193   6.023  0.2590  0.0684 -0.2513
10718TIP3    H132099   6.927   2.149   6.107  0.6570 -0.7216 -0.7036
10718TIP3    H232100   7.004   2.232   6.007 -0.3275  1.7340  0.5390
10719TIP3   OH232101   7.869   1.089   6.148  0.6042  0.5075 -0.0708
10719TIP3    H132102   7.843   1.025   6.082  0.5795  0.0441  0.3896
10719TIP3    H232103   7.791   1.100   6.203  0.2258  1.8051 -0.8420
10720TIP3   OH232104   6.185   2.373   5.743  0.2674  0.6404 -0.1689
10720TIP3    H132105   6.234   2.361   5.662 -0.3762  0.4948 -0.5442
10720TIP3    H232106   6.157   2.284   5.767  1.5950  0.5079  0.9409
10721TIP3   OH232107   7.544   2.430   5.649  0.0896 -0.2302 -0.1821
10721TIP3    H132108   7.575   2.401   5.735  1.1010  3.2103  0.7075
10721TIP3    H232109   7.503   2.515   5.666  1.6710  1.2280 -3.3259
10722TIP3   OH232110   7.874   2.933   4.017  0.2009 -0.2214 -0.2931
10722TIP3    H132111   7.861   3.001   4.083  0.8406 -0.3895  0.0079
10722TIP3    H232112   7.962   2.950   3.982 -0.0657 -0.2340 -0.9831
10723TIP3   OH232113   8.188   2.711   5.453 -0.1246  0.0824 -0.0090
10723TIP3    H132114   8.139   2.634   5.482 -1.9620  1.1983 -0.0419
10723TIP3    H232115   8.132   2.750   5.386  0.9307  1.2769 -0.1979
10724TIP3   OH232116   7.269   4.340   5.968 -0.1413 -0.2476 -0.2683
10724TIP3    H132117   7.257   4.400   6.042 -1.6452 -0.9545  0.0801
10724TIP3    H232118   7.269   4.253   6.008  1.8801 -0.5073 -0.7884
10725TIP3   OH232119   1.924   5.583   0.200  0.4707  0.4006  0.0716
10725TIP3    H132120   1.865   5.511   0.223  0.8752 -0.2111 -0.7870
10725TIP3    H232121   1.960   5.612   0.284  0.2045 -0.3091  0.4369
10726TIP3   OH232122   6.625   0.124   5.290 -0.7090  0.4074  0.3363
10726TIP3    H132123   6.711   0.084   5.298 -1.0849 -0.3415  0.6394
10726TIP3    H232124   6.563   0.055   5.314 -1.3786  1.0512  0.4991
10727TIP3   OH232125   7.061   1.578   6.249  0.0630 -0.3780 -0.4799
10727TIP3    H132126   7.043   1.623   6.331 -1.9069 -1.9782  0.0195
10727TIP3    H232127   6.989   1.603   6.191  1.1166  0.2639 -1.5253
10728TIP3   OH232128   7.776   3.122   3.483  0.3295  0.3572 -0.2177
10728TIP3    H132129   7.853   3.157   3.438  2.2051 -0.7180  2.0543
10728TIP3    H232130   7.753   3.043   3.434  1.4102  0.0290 -0.2032
10729TIP3   OH232131   7.869   0.700   6.860  0.1209 -0.0374 -0.0902
10729TIP3    H132132   7.944   0.725   6.914  0.6102  1.1387 -1.2796
10729TIP3    H232133   7.825   0.782   6.841 -0.3578 -0.5015 -1.0064
10730TIP3   OH232134   6.712   0.855   5.399 -0.0792 -0.2410  0.6112
10730TIP3    H132135   6.714   0.761   5.418 -0.2231 -0.2294  0.6894
10730TIP3    H232136   6.690   0.896   5.482 -1.9582 -0.2795  0.1665
10731TIP3   OH232137   6.919   3.108   6.366 -0.0289  0.1705 -0.2330
10731TIP3    H132138   6.986   3.169   6.332 -0.8813  1.1172 -0.2467
10731TIP3    H232139   6.969   3.044   6.416  0.7154  2.0729  1.5403
10732TIP3   OH232140   1.017   3.176   6.893  0.2565  0.4493 -0.2584
10732TIP3    H132141   1.012   3.237   6.967 -0.9681  0.3232 -0.2191
10732TIP3    H232142   1.087   3.210   6.839  2.5404 -0.5898  1.9501
10733TIP3   OH232143   7.067   4.621   4.019  0.1369  0.4539 -0.0384
10733TIP3    H132144   7.140   4.597   3.962  0.3585 -0.7693  0.7339
10733TIP3    H232145   7.051   4.542   4.071 -1.6713  0.7557 -0.1318
10734TIP3   OH232146   4.933   3.557   4.647  0.5935 -0.3093 -0.6459
10734TIP3    H132147   4.995   3.492   4.612  0.9437 -0.6517  0.5976
10734TIP3    H232148   4.951   3.559   4.741 -2.0902 -1.2806 -0.0835
10735TIP3   OH232149   8.173   4.807   5.995 -0.0802  0.5391  0.3086
10735TIP3    H132150   8.166   4.714   6.018  0.0918 -0.1680 -2.3294
10735TIP3    H232151   8.267   4.824   5.993 -0.1299  1.1296  2.0338
10736TIP3   OH232152   7.559   1.900   6.571  0.9410  0.0167  0.4852
10736TIP3    H132153   7.492   1.842   6.534 -0.7681  1.3158  1.4758
10736TIP3    H232154   7.560   1.975   6.512  1.8800 -0.1972  0.2160
10737TIP3   OH232155   3.796   2.098   5.656  0.3351 -0.1646 -0.0438
10737TIP3    H132156   3.750   2.125   5.576  0.1836  0.6881  0.3190
10737TIP3    H232157   3.806   2.180   5.706  0.9539 -0.5931  0.5371
10738TIP3   OH232158   5.164   1.648   6.584  0.2188  0.0844  0.2137
10738TIP3    H132159   5.099   1.692   6.638  0.7710  2.3225 -0.8917
10738TIP3    H232160   5.245   1.654   6.634  0.2256  0.0494  0.2064
10739TIP3   OH232161   2.694   5.566   0.220 -0.0122 -0.6478 -0.3453
10739TIP3    H132162   2.696   5.657   0.188  0.6975 -0.3497  0.5204
10739TIP3    H232163   2.662   5.574   0.310 -0.0975 -1.2756 -0.3220
10740TIP3   OH232164   1.683   3.067   5.686 -0.2121  0.2787 -0.2200
10740TIP3    H132165   1.646   3.037   5.603 -0.1473  0.6398 -0.3788
10740TIP3    H232166   1.766   3.107   5.662 -0.6959  1.3552 -0.1036
10741TIP3   OH232167   6.051   1.959   5.998  0.4658  0.5895 -0.6293
10741TIP3    H132168   6.079   2.023   6.063  1.5729  0.3203 -0.8309
10741TIP3    H232169   6.120   1.958   5.932 -0.1118  0.0566 -1.2458
10742TIP3   OH232170   7.246   2.177   6.177  0.0417  0.2083 -0.0413
10742TIP3    H132171   7.236   2.251   6.237  0.4699 -0.9126  1.4555
10742TIP3    H232172   7.183   2.193   6.108 -2.1468  0.3435  1.9260
10743TIP3   OH232173   6.702   3.718   4.809 -0.3846 -0.0260  0.1978
10743TIP3    H132174   6.615   3.679   4.821 -0.2956 -0.5645 -0.8661
10743TIP3    H232175   6.736   3.675   4.731  1.0194 -0.1248  0.8607
10744TIP3   OH232176   1.817   6.891   1.449  0.2058 -0.3272  0.4372
10744TIP3    H132177   1.868   6.826   1.498  1.0953 -0.2723 -0.4179
10744TIP3    H232178   1.793   6.847   1.368  0.2673  0.1937  0.1347
10745TIP3   OH232179   7.075   1.110   5.502 -0.2290  0.0510 -0.4441
10745TIP3    H132180   7.095   1.203   5.492 -0.4372 -0.0502 -1.9686
10745TIP3    H232181   6.980   1.107   5.513 -0.3006 -0.0290 -1.0801
10746TIP3   OH232182   6.487   6.327   0.909 -0.1417 -0.1159 -0.3602
10746TIP3    H132183   6.475   6.333   0.814 -0.7971 -2.2854 -0.4425
10746TIP3    H232184   6.427   6.392   0.945  0.6750  1.2585 -1.4690
10747TIP3   OH232185   3.250   0.387   1.420  0.0314  0.5951  0.3503
10747TIP3    H132186   3.188   0.322   1.454 -0.3736  0.4605 -0.6368
10747TIP3    H232187   3.194   0.456   1.384  0.4574  0.7203 -0.0691
10748TIP3   OH232188   5.782   5.179   5.022 -0.0462 -0.4389 -0.1229
10748TIP3    H132189   5.692   5.179   5.054 -0.3665 -0.8798 -0.9966
10748TIP3    H232190   5.786   5.251   4.960 -0.1764 -1.2481 -1.0899
10749TIP3   OH232191   3.422   0.338   0.779  0.0550 -0.2249  0.4594
10749TIP3    H132192   3.491   0.330   0.714  1.0148  0.2704  1.3959
10749TIP3    H232193   3.459   0.395   0.847 -1.2448 -0.0007  1.0071
10750TIP3   OH232194   5.580   4.679   4.888 -0.2403 -0.5933  0.5724
10750TIP3    H132195   5.657   4.673   4.832 -0.2474 -1.8097  0.6745
10750TIP3    H232196   5.512   4.716   4.831 -0.5159 -2.7214 -0.5548
10751TIP3   OH232197   2.595   4.585   0.440 -0.3735  0.5424  0.2358
10751TIP3    H132198   2.529   4.547   0.382  1.1900 -1.8345 -0.0332
10751TIP3    H232199   2.544   4.623   0.512 -2.0643 -1.0740 -0.0730
10752TIP3   OH232200   5.697   2.395   4.612 -0.4501 -0.5914 -0.2601
10752TIP3    H132201   5.643   2.403   4.691 -0.2492 -1.2219 -0.0605
10752TIP3    H232202   5.733   2.307   4.616  2.4236  0.5612  0.7919
10753TIP3   OH232203   7.955   3.223   6.006  0.3499  0.2866 -0.1161
10753TIP3    H132204   8.025   3.283   6.033  0.2839  0.2771  0.0806
10753TIP3    H232205   7.986   3.185   5.924  0.1700  0.9629 -0.5007
10754TIP3   OH232206   7.391   3.809   2.358 -0.4791  0.3281 -0.1929
10754TIP3    H132207   7.461   3.750   2.387 -0.2359  0.3531 -0.7215
10754TIP3    H232208   7.404   3.888   2.409 -0.2647  0.2455 -0.1186
10755TIP3   OH232209   0.361   3.866   6.052  0.2375 -0.5947  0.2882
10755TIP3    H132210   0.411   3.804   5.998 -0.5156 -1.3286  0.4294
10755TIP3    H232211   0.428   3.919   6.096  0.8929 -1.8719  0.8313
10756TIP3   OH232212   6.367   3.057   5.303 -0.4326 -0.1093 -0.0750
10756TIP3    H132213   6.288   3.004   5.291 -0.5072  0.0456 -0.2614
10756TIP3    H232214   6.344   3.119   5.372 -0.3079 -0.3925  0.2217
10757TIP3   OH232215   8.041   1.466   5.642 -0.4404  0.4177  0.0693
10757TIP3    H132216   8.020   1.534   5.706 -1.1086 -0.0927  0.3996
10757TIP3    H232217   8.135   1.473   5.630 -0.7661  2.6795 -1.3622
10758TIP3   OH232218   2.095   6.818   0.064  0.3572 -0.4413  0.0590
10758TIP3    H132219   2.138   6.890   0.110  0.3286 -0.6095  0.3508
10758TIP3    H232220   2.151   6.801  -0.012  1.1827 -1.1391  0.8261
10759TIP3   OH232221   4.982   2.430   5.441 -0.4223  0.1649  0.3803
10759TIP3    H132222   5.044   2.489   5.483  0.5304  0.0308 -0.7790
10759TIP3    H232223   5.038   2.368   5.393 -1.4306 -0.8043  0.4448
10760TIP3   OH232224   7.264   3.805   5.387 -0.2645  0.3589  0.0285
10760TIP3    H132225   7.177   3.809   5.346  0.2994 -0.2114 -1.2474
10760TIP3    H232226   7.271   3.887   5.437 -1.1946  0.7967 -0.5479
10761TIP3   OH232227   6.364   3.480   3.769  0.2490 -0.1948 -0.2890
10761TIP3    H132228   6.329   3.569   3.774 -0.1232 -0.2982 -0.9985
10761TIP3    H232229   6.372   3.452   3.860  0.2660  0.5244 -0.0700
10762TIP3   OH232230   8.298   2.016   5.345  0.1562  0.2083  0.1573
10762TIP3    H132231   8.272   2.003   5.436 -1.0929  1.3213 -0.0152
10762TIP3    H232232   8.279   2.109   5.328  1.2920  0.2496 -0.9464
10763TIP3   OH232233   0.037   2.414   6.047 -0.0019  0.1406 -0.4889
10763TIP3    H132234   0.032   2.468   6.126 -2.3215 -0.4843 -0.1752
10763TIP3    H232235   0.006   2.471   5.977  0.2831  0.1174 -0.6337
10764TIP3   OH232236   5.526   3.642   6.681 -0.4292  0.5076  0.0456
10764TIP3    H132237   5.539   3.727   6.639  0.6388 -0.0183 -0.7162
10764TIP3    H232238   5.438   3.647   6.719 -0.1920  2.1287  0.4356
10765TIP3   OH232239   5.357   4.192   6.330  0.3946  0.1952 -0.3983
10765TIP3    H132240   5.292   4.142   6.380  1.3470 -0.2880  0.3703
10765TIP3    H232241   5.320   4.280   6.325  0.1103  0.1699  0.8837
10766TIP3   OH232242   5.932   3.617   5.411 -0.0358 -0.6655 -0.3657
10766TIP3    H132243   5.967   3.626   5.500 -0.5987 -2.3145  0.0395
10766TIP3    H232244   6.010   3.619   5.355  0.2169  1.7175  0.0450
10767TIP3   OH232245   1.325   7.207   0.891  0.0527 -0.2244 -0.2235
10767TIP3    H132246   1.292   7.169   0.810 -0.0276  0.5450 -0.5501
10767TIP3    H232247   1.350   7.131   0.944  1.4014 -0.7022 -1.4923
10768TIP3   OH232248   6.412   4.168   6.069 -0.4627  0.2108 -0.5522
10768TIP3    H132249   6.332   4.213   6.095  0.2080  1.2849 -0.3152
10768TIP3    H232250   6.480   4.235   6.073  0.9303 -1.2627  1.7431
10769TIP3   OH232251   7.506   4.143   6.083  0.0636 -0.0786 -0.2416
10769TIP3    H132252   7.415   4.114   6.083 -0.8607  2.6878 -1.9543
10769TIP3    H232253   7.511   4.208   6.154  0.4749  0.4235 -0.7203
10770TIP3   OH232254   3.640   7.230   0.985 -0.1036  0.3354  0.4126
10770TIP3    H132255   3.590   7.165   0.935  0.0220 -0.0436  0.7872
10770TIP3    H232256   3.603   7.227   1.073 -1.0473  1.7533  0.0965
10771TIP3   OH232257   7.152   3.815   6.414  0.0991 -0.7962 -0.5356
10771TIP3    H132258   7.124   3.848   6.499  2.9499 -0.5950  0.3765
10771TIP3    H232259   7.128   3.885   6.352  0.8659  0.4635  0.5649
10772TIP3   OH232260   2.971   5.280   0.431 -0.3539 -0.5166  0.5396
10772TIP3    H132261   2.970   5.331   0.350 -0.0536 -0.9034  0.2938
10772TIP3    H232262   2.967   5.189   0.402  1.2878 -0.7225  0.9065
10773TIP3   OH232263   3.538   5.570   0.013 -0.3179  0.5094 -0.5345
10773TIP3    H132264   3.572   5.484  -0.013  0.3757  1.0538 -1.4697
10773TIP3    H232265   3.614   5.615   0.050 -0.7381  0.6329  0.1831
10774TIP3   OH232266   5.011   0.242   1.102 -0.2145  0.3101  0.4947
10774TIP3    H132267   5.094   0.221   1.060 -1.1242 -1.8542 -0.2753
10774TIP3    H232268   4.948   0.246   1.029 -1.0616  0.4306  1.2286
10775TIP3   OH232269   7.641   3.443   3.996  0.4849  0.2534  0.1822
10775TIP3    H132270   7.726   3.400   3.998  0.4017  0.0774 -0.0727
10775TIP3    H232271   7.657   3.525   3.948  0.7670  0.7841  1.1597
10776TIP3   OH232272   6.434   2.151   6.117  0.3731 -0.3295  0.4216
10776TIP3    H132273   6.457   2.176   6.027 -0.3524  1.4435  0.7191
10776TIP3    H232274   6.514   2.112   6.152  0.5558 -1.3939 -1.1066
10777TIP3   OH232275   6.007   3.977   5.502  0.1328  0.1449 -0.2397
10777TIP3    H132276   6.071   4.048   5.512 -0.2046  0.5135 -0.6476
10777TIP3    H232277   6.058   3.897   5.515  0.2317  0.4910  1.7406
10778TIP3   OH232278   6.202   4.155   4.101 -0.0607 -0.3484  0.1995
10778TIP3    H132279   6.266   4.225   4.116 -0.1823 -0.5504  1.8017
10778TIP3    H232280   6.127   4.199   4.063  1.2962 -0.2223 -2.4244
10779TIP3   OH232281   6.482   5.782   5.341 -0.5213 -0.1795  0.5897
10779TIP3    H132282   6.386   5.786   5.343 -0.6273  0.1127 -2.3122
10779TIP3    H232283   6.501   5.696   5.302  0.4193 -0.4302  1.5862
10780TIP3   OH232284   5.945   5.930   3.909 -0.0702 -0.0379  0.3160
10780TIP3    H132285   5.938   5.862   3.976 -0.7203 -1.9997 -1.6636
10780TIP3    H232286   5.987   5.886   3.835 -0.6038  1.6915 -1.0600
10781TIP3   OH232287   0.791   1.072   6.126 -0.6947 -0.1672 -0.1113
10781TIP3    H132288   0.711   1.039   6.166 -1.6050  2.9284  0.7448
10781TIP3    H232289   0.848   1.093   6.199 -0.2927  0.4954 -0.6040
10782TIP3   OH232290   0.973   2.475   6.158  0.1751 -0.0606 -0.3156
10782TIP3    H132291   0.978   2.423   6.078 -0.4871 -1.5230  0.5739
10782TIP3    H232292   1.059   2.463   6.199  0.1960 -0.0431 -0.3538
10783TIP3   OH232293   0.694   5.067   6.893  0.1341  0.6037 -0.3035
10783TIP3    H132294   0.786   5.058   6.868  0.0885 -0.4042 -0.1250
10783TIP3    H232295   0.648   5.088   6.812  0.6153  1.7654 -0.2785
10784TIP3   OH232296   0.307   5.442   4.901  0.0755 -0.2394 -0.0622
10784TIP3    H132297   0.295   5.451   4.806 -1.1948 -0.3177  0.0786
10784TIP3    H232298   0.219   5.424   4.934 -0.1356  3.2475  1.5087
10785TIP3   OH232299   0.587   4.798   6.060 -0.1416  0.1690 -0.4971
10785TIP3    H132300   0.568   4.716   6.106  2.3056 -0.2625 -0.2216
10785TIP3    H232301   0.571   4.779   5.968 -1.6143  0.0077 -0.2178
10786TIP3   OH232302   7.900   3.386   4.034  0.3894  0.4947 -0.0065
10786TIP3    H132303   7.957   3.463   4.032 -1.1861  1.7069  0.4048
10786TIP3    H232304   7.905   3.354   4.124  0.4593  0.5726  0.0177
10787TIP3   OH232305   8.206   1.139   5.635 -0.2795  0.3725 -0.3756
10787TIP3    H132306   8.218   1.138   5.540  1.0365 -1.3418 -0.2182
10787TIP3    H232307   8.111   1.134   5.648 -0.3426 -1.8553 -1.5888
10788TIP3   OH232308   0.616   3.380   4.705 -0.2152  0.3364  0.2758
10788TIP3    H132309   0.601   3.414   4.793 -0.9004  2.1412 -0.5030
10788TIP3    H232310   0.710   3.391   4.690 -0.3258  1.3376  0.2731
10789TIP3   OH232311   5.184   3.203   5.876 -0.0467 -0.3402  0.1182
10789TIP3    H132312   5.220   3.136   5.934  1.0397 -0.0923 -0.2614
10789TIP3    H232313   5.240   3.201   5.799 -1.4088 -0.5809 -0.8784
10790TIP3   OH232314   7.647   3.655   5.843  0.3334 -0.3277 -0.1138
10790TIP3    H132315   7.690   3.722   5.789 -2.3640  0.9834 -0.7346
10790TIP3    H232316   7.707   3.640   5.916  0.6790  3.4234  0.4720
10791TIP3   OH232317   2.081   3.681   5.991  0.0705  0.2475 -0.0148
10791TIP3    H132318   2.122   3.598   6.017  0.0821  0.3688  0.3578
10791TIP3    H232319   1.987   3.662   5.990  0.0446  0.3284  0.4479
10792TIP3   OH232320   8.354   2.111   4.453 -0.1022  0.1464 -0.0599
10792TIP3    H132321   8.438   2.088   4.414  0.5215 -1.0644  1.9204
10792TIP3    H232322   8.377   2.151   4.537 -1.5343 -0.7076  0.7468
10793TIP3   OH232323   0.550   3.690   5.963  0.0087  0.2972  0.4295
10793TIP3    H132324   0.610   3.748   5.915 -0.3545  1.8193  1.7664
10793TIP3    H232325   0.607   3.622   5.999  0.1553 -1.5529 -3.0368
10794TIP3   OH232326   3.112   3.823   6.858 -0.0000  0.1253  0.2208
10794TIP3    H132327   3.084   3.907   6.822 -0.3520 -0.4516 -0.8964
10794TIP3    H232328   3.063   3.758   6.807 -0.2373 -0.7323  1.5243
10795TIP3   OH232329   3.283   3.404   6.839  0.3199  0.1874  0.0371
10795TIP3    H132330   3.261   3.439   6.925 -0.3365  0.5412 -0.2736
10795TIP3    H232331   3.206   3.421   6.785  0.5484 -0.4530 -0.4974
10796TIP3   OH232332   6.918   1.480   5.831 -0.5143 -0.4464  0.3527
10796TIP3    H132333   6.857   1.483   5.757  0.9638 -3.3909 -1.0465
10796TIP3    H232334   6.992   1.534   5.803  0.0428 -1.5551 -0.3497
10797TIP3   OH232335   3.412   5.397   0.480 -0.0058 -0.2093 -0.5781
10797TIP3    H132336   3.450   5.389   0.393  0.4025 -0.8092 -0.3496
10797TIP3    H232337   3.405   5.491   0.495 -0.9352 -0.0975 -1.6220
10798TIP3   OH232338   1.813   3.651   6.007  0.7433 -0.4375  0.3953
10798TIP3    H132339   1.730   3.610   5.982  0.2146  1.1259 -0.5309
10798TIP3    H232340   1.792   3.745   6.011  2.3447 -0.0840  0.6913
10799TIP3   OH232341   6.006   2.091   4.484  0.1002 -0.4448 -0.0501
10799TIP3    H132342   5.966   2.088   4.397 -0.2698  0.2081  0.0928
10799TIP3    H232343   6.100   2.096   4.467 -0.0149  0.4908 -0.4286
10800TIP3   OH232344   6.511   6.925   0.377  0.9666 -0.2582 -0.6364
10800TIP3    H132345   6.556   7.000   0.415 -0.7647  1.1456 -1.2816
10800TIP3    H232346   6.562   6.902   0.299  1.8885 -0.1977 -0.0541
10801TIP3   OH232347   7.223   3.602   6.573  0.0281 -0.4887 -0.1471
10801TIP3    H132348   7.317   3.584   6.577  0.3268  1.2295  1.6922
10801TIP3    H232349   7.215   3.676   6.513 -0.1447 -0.6091 -0.2721
10802TIP3   OH232350   6.277   3.488   4.198 -0.1235  0.0373  0.3740
10802TIP3    H132351   6.355   3.490   4.144 -0.1046  0.4128  0.4174
10802TIP3    H232352   6.275   3.399   4.233  1.7354  0.7544  2.4805
10803TIP3   OH232353   5.979   2.540   5.798  0.0912 -0.8330 -0.6545
10803TIP3    H132354   5.963   2.535   5.893  1.6289 -0.6536 -0.3671
10803TIP3    H232355   6.041   2.470   5.781  1.5262  0.5117 -1.1258
10804TIP3   OH232356   5.915   1.359   4.140  0.7381  0.0587  0.2222
10804TIP3    H132357   5.891   1.274   4.104  0.7574  0.9282 -1.9635
10804TIP3    H232358   5.888   1.355   4.232 -2.1220 -1.2136 -0.6055
10805TIP3   OH232359   6.702   0.727   5.724 -0.1767  0.1503  0.4959
10805TIP3    H132360   6.648   0.799   5.690 -0.1549  0.2497  0.6691
10805TIP3    H232361   6.697   0.736   5.819  1.6659  1.3152  0.5183
10806TIP3   OH232362   2.470   6.838   1.362 -0.1352 -0.0974  0.2437
10806TIP3    H132363   2.471   6.818   1.268 -0.3964 -1.4320  0.5225
10806TIP3    H232364   2.378   6.830   1.387 -0.4035  2.2767  0.2129
10807TIP3   OH232365   7.773   2.194   6.283 -0.2154 -0.3709 -0.0266
10807TIP3    H132366   7.855   2.148   6.267  1.0804  1.7126  0.4390
10807TIP3    H232367   7.753   2.237   6.199  0.0760  0.4910  0.3362
10808TIP3   OH232368   8.117   5.388   6.512  0.0056  0.2893 -0.3993
10808TIP3    H132369   8.110   5.458   6.447 -1.1858 -0.3272 -0.9365
10808TIP3    H232370   8.182   5.328   6.476  0.2662  0.5861 -0.4248
10809TIP3   OH232371   7.927   3.719   5.341 -0.1935 -0.2164  0.0892
10809TIP3    H132372   7.943   3.758   5.254  0.1593  0.1687  0.3208
10809TIP3    H232373   7.950   3.627   5.330 -2.0543 -0.6050 -0.7487
10810TIP3   OH232374   2.937   6.614   2.109  0.4113 -1.0591 -0.1985
10810TIP3    H132375   2.865   6.675   2.093 -0.3914 -1.4463  1.7831
10810TIP3    H232376   2.967   6.588   2.022 -0.7486  0.3869 -1.0433
10811TIP3   OH232377   7.047   3.451   5.099 -0.1205  0.0368  0.2165
10811TIP3    H132378   7.013   3.361   5.101  2.5251 -1.0259  0.2869
10811TIP3    H232379   7.110   3.454   5.171  0.4375  1.7021 -0.3215
10812TIP3   OH232380   1.653   6.310   0.385 -0.5868  0.3846 -0.2149
10812TIP3    H132381   1.634   6.287   0.295  1.1309  0.5397 -0.6331
10812TIP3    H232382   1.714   6.384   0.379 -0.1262  0.1261  1.0602
10813TIP3   OH232383   8.244   4.111   5.537  0.1767  0.4472  0.1911
10813TIP3    H132384   8.265   4.199   5.567 -0.8231  0.6047  0.4561
10813TIP3    H232385   8.177   4.124   5.470 -1.5605 -0.2177  1.7518
10814TIP3   OH232386   7.054   5.052   6.834  0.0663 -0.2259 -0.2775
10814TIP3    H132387   7.040   5.116   6.764  0.6747 -1.2988 -1.3923
10814TIP3    H232388   6.976   5.061   6.890 -2.1939 -1.8678 -3.0379
10815TIP3   OH232389   7.768   3.855   6.133 -0.2226  0.4859  0.1329
10815TIP3    H132390   7.732   3.920   6.071 -0.7667 -1.0449 -1.1846
10815TIP3    H232391   7.802   3.785   6.077 -1.1438 -1.1400  1.5607
10816TIP3   OH232392   6.815   2.588   6.044  0.1852 -0.0687 -0.2976
10816TIP3    H132393   6.862   2.651   6.098 -1.2571  0.9712 -0.2295
10816TIP3    H232394   6.723   2.599   6.068 -0.3043 -0.7466 -1.7660
10817TIP3   OH232395   6.968   1.859   6.831 -0.1563 -0.5263 -0.0741
10817TIP3    H132396   7.032   1.842   6.900 -1.0603  2.3692  1.5470
10817TIP3    H232397   7.014   1.837   6.750  1.3999 -2.6289  1.3147
10818TIP3   OH232398   6.959   4.079   3.659  0.0107  0.5189  0.4095
10818TIP3    H132399   6.937   4.060   3.750  0.2779 -1.2444  0.1206
10818TIP3    H232400   6.889   4.038   3.608  0.3810  0.6617 -0.2230
10819TIP3   OH232401   7.453   0.823   3.921  0.3814 -0.4144 -0.8043
10819TIP3    H132402   7.486   0.735   3.943  1.1486 -0.2823 -1.4313
10819TIP3    H232403   7.513   0.883   3.965 -0.5352 -0.2031  0.1805
10820TIP3   OH232404   1.435   3.344   4.497  0.0542  0.1533 -0.4642
10820TIP3    H132405   1.455   3.431   4.530 -1.4493  0.1892  0.3917
10820TIP3    H232406   1.391   3.359   4.413  0.7174  0.1722 -0.8140
10821TIP3   OH232407   7.297   0.648   5.415  0.1361  0.1355  0.1018
10821TIP3    H132408   7.389   0.634   5.437  0.3457 -0.2226 -0.9810
10821TIP3    H232409   7.269   0.718   5.475  1.4169  1.0532 -0.3430
10822TIP3   OH232410   5.316   0.546   5.712 -0.3404  0.2464 -0.0428
10822TIP3    H132411   5.265   0.518   5.788  1.3473  1.4086  1.5445
10822TIP3    H232412   5.251   0.580   5.651 -1.6075  0.4186  1.3801
10823TIP3   OH232413   6.907   1.361   4.473 -0.0272  0.8403 -0.0706
10823TIP3    H132414   7.001   1.375   4.486 -0.3097  1.9166  0.8936
10823TIP3    H232415   6.881   1.432   4.414 -0.2134  0.4590 -0.4498
10824TIP3   OH232416   6.679   3.988   4.622  0.3095  0.0069 -0.1721
10824TIP3    H132417   6.671   3.898   4.655  1.8602 -0.4412 -0.9742
10824TIP3    H232418   6.668   4.043   4.700  0.1708 -0.9056  0.4645
10825TIP3   OH232419   8.364   2.848   6.619  0.4102  0.2415  0.0917
10825TIP3    H132420   8.364   2.943   6.631  0.3452  0.0690  1.4803
10825TIP3    H232421   8.293   2.817   6.675  0.8514 -0.6886  0.1378
10826TIP3   OH232422   8.002   4.719   4.275 -0.2739  0.2975 -0.2861
10826TIP3    H132423   8.075   4.701   4.334 -0.4701  0.1364 -0.0902
10826TIP3    H232424   8.042   4.725   4.188 -0.0960 -0.3084 -0.2514
10827TIP3   OH232425   5.387   4.353   4.776 -0.2532  0.2313 -0.5465
10827TIP3    H132426   5.349   4.266   4.764  0.0206  0.0633 -0.2114
10827TIP3    H232427   5.313   4.408   4.799  0.0013 -0.5203  2.1698
10828TIP3   OH232428   7.212   0.624   4.374  0.1961  0.1245  0.3227
10828TIP3    H132429   7.185   0.551   4.430  1.9207 -0.2820  0.6279
10828TIP3    H232430   7.279   0.669   4.424  0.8789  0.4900 -0.9083
10829TIP3   OH232431   7.840   1.133   5.797  0.4013  0.6851  0.3221
10829TIP3    H132432   7.757   1.086   5.800  0.2792  0.8448 -0.3761
10829TIP3    H232433   7.821   1.218   5.836  0.3148  0.6086  0.4465
10830TIP3   OH232434   5.723   4.460   4.321  0.4589 -0.7230  0.2873
10830TIP3    H132435   5.693   4.546   4.291  2.2388  0.7114  2.4073
10830TIP3    H232436   5.661   4.435   4.390 -0.1259 -1.2058 -0.4085
10831TIP3   OH232437   7.059   3.684   3.841 -0.0779  0.1758 -0.1663
10831TIP3    H132438   7.107   3.602   3.852 -1.7062 -0.7649 -0.0136
10831TIP3    H232439   7.114   3.736   3.782 -0.0132 -1.8213 -1.9037
10832TIP3   OH232440   0.096   1.624   6.749  0.4927 -0.0567 -0.1287
10832TIP3    H132441   0.025   1.572   6.713  0.4596  0.2428 -0.4977
10832TIP3    H232442   0.168   1.563   6.759  0.0666 -0.4425  0.5904
10833TIP3   OH232443   0.390   5.464   2.432  0.2868 -0.1442  0.4481
10833TIP3    H132444   0.389   5.415   2.350 -1.8713  1.7909 -0.7398
10833TIP3    H232445   0.429   5.548   2.409  2.2259 -0.5449  2.0648
10834TIP3   OH232446   6.924   4.382   4.112  0.4374  0.4767  0.8576
10834TIP3    H132447   6.896   4.314   4.052  0.6782  1.2397 -0.1296
10834TIP3    H232448   6.846   4.434   4.128  0.0547 -0.4920  2.2546
10835TIP3   OH232449   2.300   4.379   2.790  0.7039  0.2716  0.2842
10835TIP3    H132450   2.343   4.455   2.828  2.1091 -0.9250  1.1335
10835TIP3    H232451   2.345   4.304   2.828 -0.0115 -0.9860 -1.2683
10836TIP3   OH232452   7.476   4.244   5.778  1.0956  0.2482  0.2794
10836TIP3    H132453   7.419   4.300   5.831 -1.1774 -1.9290  0.1953
10836TIP3    H232454   7.512   4.303   5.712 -0.5760  1.8020  0.7195
10837TIP3   OH232455   6.816   3.921   6.541  0.2403  0.1869 -0.4142
10837TIP3    H132456   6.805   3.872   6.460  1.0820 -1.4696  0.4439
10837TIP3    H232457   6.731   3.917   6.584  0.5420 -1.3650  0.0848
10838TIP3   OH232458   7.727   1.973   5.954 -0.2303  0.3679 -0.4259
10838TIP3    H132459   7.785   2.042   5.986  0.4251 -0.7460  0.8613
10838TIP3    H232460   7.771   1.892   5.979 -1.8234 -0.5011 -0.4073
10839TIP3   OH232461   8.374   3.605   5.603 -0.3481  0.3617  0.3426
10839TIP3    H132462   8.366   3.686   5.654  1.4772 -1.2160  3.2015
10839TIP3    H232463   8.456   3.615   5.556 -0.0211  0.0751  0.8551
10840TIP3   OH232464   8.411   1.786   5.619  0.2444  0.3629  0.2054
10840TIP3    H132465   8.498   1.811   5.588 -0.2808  0.8679 -0.8693
10840TIP3    H232466   8.353   1.853   5.585 -0.3939  0.8087  2.1020
10841TIP3   OH232467   1.981   6.031   5.971 -0.2102 -0.0225  0.2145
10841TIP3    H132468   2.055   6.022   6.031  0.3649  0.1821 -0.4520
10841TIP3    H232469   1.932   5.950   5.981 -0.0445 -0.0389  0.8716
10842TIP3   OH232470   3.398   3.696   6.449  0.6167  0.6839  0.5938
10842TIP3    H132471   3.478   3.667   6.406  0.2523  1.9920 -0.9929
10842TIP3    H232472   3.419   3.695   6.542  1.6653 -1.4135  0.3682
10843TIP3   OH232473   3.175   6.467   0.015 -0.1371 -0.4949  0.2344
10843TIP3    H132474   3.122   6.542  -0.012 -0.1976 -0.2071  1.1122
10843TIP3    H232475   3.257   6.506   0.045  0.3832 -0.8999 -0.6624
10844TIP3   OH232476   0.367   4.533   6.622 -0.1811 -0.3844 -0.4679
10844TIP3    H132477   0.376   4.600   6.689 -0.7649 -2.0884  1.3976
10844TIP3    H232478   0.456   4.515   6.592 -0.1042  1.7635 -1.5734
10845TIP3   OH232479   0.946   1.526   5.880 -0.0836  0.1086  0.1850
10845TIP3    H132480   1.041   1.525   5.870 -0.1255  0.7907 -0.2959
10845TIP3    H232481   0.926   1.446   5.929  0.8120  0.3230  0.9243
10846TIP3   OH232482   0.800   2.363   6.845  0.0476  0.1324  0.2588
10846TIP3    H132483   0.878   2.402   6.884  0.1597 -0.2652  0.4365
10846TIP3    H232484   0.728   2.388   6.904  0.0811  0.2761  0.2387
10847TIP3   OH232485   6.939   2.918   5.732 -0.1617 -0.0421  0.5555
10847TIP3    H132486   6.944   2.989   5.796  1.0515 -0.6457  1.1479
10847TIP3    H232487   6.986   2.845   5.773 -0.4287 -0.8271 -0.5112
10848TIP3   OH232488   1.540   3.000   5.471  0.1024 -0.2657 -0.3177
10848TIP3    H132489   1.486   2.922   5.480 -0.7200  0.2594 -0.6139
10848TIP3    H232490   1.526   3.029   5.381 -1.0309  1.2536  0.3220
10849TIP3   OH232491   6.760   3.537   5.130  0.1260 -0.0485  0.0347
10849TIP3    H132492   6.852   3.554   5.153  0.4339  2.0314 -2.5369
10849TIP3    H232493   6.716   3.620   5.142 -0.8735 -0.3676 -1.2638
10850TIP3   OH232494   0.933   5.362   5.561  0.4680 -0.1588 -0.3439
10850TIP3    H132495   0.859   5.422   5.566  0.3674 -0.1937 -1.3098
10850TIP3    H232496   0.922   5.317   5.478  1.2093 -0.6521 -0.1849
10851TIP3   OH232497   7.873   4.970   5.111  0.1366  0.0705  0.2403
10851TIP3    H132498   7.845   4.914   5.184  0.7154  0.2642  0.6184
10851TIP3    H232499   7.847   5.059   5.138  0.4722  0.1589  0.2731
10852TIP3   OH232500   7.760   3.804   5.518  0.1067  0.8313 -0.1025
10852TIP3    H132501   7.833   3.801   5.456  0.0536  0.3150 -0.1497
10852TIP3    H232502   7.687   3.765   5.470  0.3852 -0.7183  0.6949
10853TIP3   OH232503   0.984   3.848   6.893 -0.1864  0.1838 -0.1048
10853TIP3    H132504   1.004   3.783   6.961 -0.3172  0.4878  0.2238
10853TIP3    H232505   1.068   3.887   6.871 -0.2820  0.8458  0.6544
10854TIP3   OH232506   0.224   5.134   4.912 -0.0784 -0.0937  0.1585
10854TIP3    H132507   0.149   5.187   4.939  0.2381  0.9370 -0.9645
10854TIP3    H232508   0.221   5.135   4.816  0.3264 -1.5421  0.1237
10855TIP3   OH232509   7.961   4.591   6.785 -0.0543 -0.8811 -0.0091
10855TIP3    H132510   7.912   4.509   6.799 -1.1653 -0.2253  0.0383
10855TIP3    H232511   7.921   4.652   6.847  0.6243 -0.2438 -0.2079
10856TIP3   OH232512   8.418   3.831   6.872 -0.6665  0.2569 -0.4973
10856TIP3    H132513   8.509   3.802   6.870 -0.5245  0.3302  2.4095
10856TIP3    H232514   8.423   3.926   6.867 -0.7741  0.1481 -3.2644
10857TIP3   OH232515   5.360   3.653   4.701  0.2860  0.7647  0.0483
10857TIP3    H132516   5.318   3.591   4.641  0.0171  0.4214  0.5896
10857TIP3    H232517   5.451   3.624   4.707  0.2867  0.7358 -0.1097
10858TIP3   OH232518   2.009   2.820   6.859  0.7078  0.0455 -0.3558
10858TIP3    H132519   1.961   2.756   6.806 -1.5424  0.7831  0.7083
10858TIP3    H232520   1.949   2.841   6.930  1.5737  2.9850 -0.4303
10859TIP3   OH232521   0.481   4.929   6.286 -0.2968  0.3629  0.4367
10859TIP3    H132522   0.427   5.006   6.267  0.5744  0.8885  0.0052
10859TIP3    H232523   0.518   4.905   6.201  1.0948  0.7571  0.9097
10860TIP3   OH232524   1.035   4.427   4.876  0.2959  0.5048  0.3193
10860TIP3    H132525   1.013   4.514   4.842 -2.5952  0.9847  3.1764
10860TIP3    H232526   1.084   4.443   4.956  2.3779 -0.5601 -0.7110
10861TIP3   OH232527   7.512   3.436   4.474 -0.9896  0.3897  0.0128
10861TIP3    H132528   7.515   3.496   4.549 -0.9766  1.0944 -0.5403
10861TIP3    H232529   7.585   3.463   4.419  1.2471 -2.4675  1.4617
10862TIP3   OH232530   8.020   2.976   2.351  0.1349 -0.0713  0.4919
10862TIP3    H132531   7.984   3.047   2.403 -0.1617  0.6534 -0.6944
10862TIP3    H232532   7.994   2.896   2.397 -1.3618  0.5097  0.6576
10863TIP3   OH232533   7.690   2.087   4.327  0.2362  0.5453  0.0140
10863TIP3    H132534   7.691   2.004   4.375 -1.7745  2.1952  3.0873
10863TIP3    H232535   7.598   2.100   4.304  0.7527  1.2529 -1.7009
10864TIP3   OH232536   1.446   1.483   5.950 -0.0699 -0.7966  0.0163
10864TIP3    H132537   1.477   1.514   5.865  1.3155 -1.3070  0.3302
10864TIP3    H232538   1.514   1.423   5.981  0.0200  0.2742  2.0135
10865TIP3   OH232539   0.073   2.837   6.423  0.0461 -0.1937  0.0036
10865TIP3    H132540   0.140   2.878   6.478  0.0333  1.9674 -1.4940
10865TIP3    H232541  -0.009   2.852   6.470  0.4283 -1.5160  1.1080
10866TIP3   OH232542   8.456   3.551   5.207  0.4134  0.1818  0.1702
10866TIP3    H132543   8.433   3.458   5.207  2.5859 -0.4157  2.7708
10866TIP3    H232544   8.379   3.595   5.244  0.2624 -0.8594  1.1144
10867TIP3   OH232545   1.510   3.032   3.981  0.2565  0.3010 -0.7044
10867TIP3    H132546   1.579   2.983   3.937 -0.3760 -0.3879 -0.9257
10867TIP3    H232547   1.438   3.034   3.918 -0.0870  0.6546 -0.3048
10868TIP3   OH232548   0.016   4.239   4.032 -0.7972 -0.2567 -0.1269
10868TIP3    H132549   0.085   4.224   3.968 -0.1368  0.6262  0.3670
10868TIP3    H232550  -0.057   4.276   3.981 -1.4692 -2.5596 -0.8995
10869TIP3   OH232551   0.045   3.559   6.444 -0.1132  0.2155  0.4535
10869TIP3    H132552  -0.047   3.535   6.433 -0.2306  1.7720 -2.3561
10869TIP3    H232553   0.085   3.481   6.481 -2.2936 -0.9592  0.4368
10870TIP3   OH232554   8.240   2.697   5.090  0.5022  0.0404  0.6317
10870TIP3    H132555   8.283   2.782   5.083  0.0472  0.2946  0.9013
10870TIP3    H232556   8.156   2.709   5.045  1.2859 -0.8521 -1.1189
10871TIP3   OH232557   5.914   2.622   6.191  0.2680  0.1818  0.8693
10871TIP3    H132558   5.973   2.547   6.201 -0.6276 -0.6476  0.0680
10871TIP3    H232559   5.968   2.698   6.214  1.8808 -0.4865 -0.5660
10872TIP3   OH232560   6.884   5.205   5.467  0.6573 -0.2502  0.1977
10872TIP3    H132561   6.896   5.111   5.481 -0.7451 -0.5609 -0.5476
10872TIP3    H232562   6.842   5.236   5.548 -2.8857 -1.1129 -1.2194
10873TIP3   OH232563   7.533   0.044   3.848 -0.1614  0.9257 -0.4457
10873TIP3    H132564   7.561   0.016   3.761  0.4115  1.5570 -0.4690
10873TIP3    H232565   7.438   0.040   3.845 -0.1847  1.8101 -1.3975
10874TIP3   OH232566   1.354   3.299   4.221  0.0718  0.2454  0.2178
10874TIP3    H132567   1.289   3.242   4.179  0.9984 -1.5947  1.2801
10874TIP3    H232568   1.438   3.262   4.196  0.6955  1.3072  0.7258
10875TIP3   OH232569   8.234   3.380   5.590 -0.5576 -0.0566  0.0155
10875TIP3    H132570   8.287   3.459   5.579 -1.2757  0.4405  0.0542
10875TIP3    H232571   8.280   3.329   5.655  0.7244 -0.3768 -1.1182
10876TIP3   OH232572   3.095   7.626   0.307  0.3231  0.4878  0.0266
10876TIP3    H132573   3.074   7.577   0.386  0.5637  0.0836 -0.1524
10876TIP3    H232574   3.117   7.558   0.242  0.6712  0.8307 -0.2211
10877TIP3   OH232575   1.043   6.315   5.364 -0.6321 -0.0035  0.2348
10877TIP3    H132576   1.132   6.295   5.336 -0.4945 -1.2695  1.5350
10877TIP3    H232577   0.996   6.336   5.282  0.4436 -0.9066 -0.6241
10878TIP3   OH232578   1.288   3.185   6.014  0.0392 -0.6189  0.3979
10878TIP3    H132579   1.240   3.191   5.931  2.0654 -2.2665 -0.9426
10878TIP3    H232580   1.302   3.276   6.040  0.1720 -0.0663 -1.5399
10879TIP3   OH232581   0.409   4.014   6.308  0.0748  0.0662 -0.3555
10879TIP3    H132582   0.444   4.041   6.393 -0.9859  1.4485 -0.3290
10879TIP3    H232583   0.460   4.064   6.244  0.0467 -0.0388 -0.4598
10880TIP3   OH232584   7.230   2.339   5.648 -0.5118  0.3420  0.2640
10880TIP3    H132585   7.181   2.335   5.566 -1.7269  1.1508  0.9364
10880TIP3    H232586   7.322   2.337   5.621 -0.8687 -3.0254 -0.9391
10881TIP3   OH232587   2.508   7.167   0.137 -0.1217 -0.6866 -0.1236
10881TIP3    H132588   2.559   7.107   0.083  0.8477 -0.9751  1.0833
10881TIP3    H232589   2.520   7.135   0.226 -0.1199  0.9204  0.4712
10882TIP3   OH232590   0.542   5.797   4.405 -0.3367 -0.1789  0.1996
10882TIP3    H132591   0.556   5.891   4.414 -0.3167 -0.0807 -0.8175
10882TIP3    H232592   0.454   5.782   4.438 -0.7051  0.3430 -0.5391
10883TIP3   OH232593   8.428   3.610   3.473  0.3024 -0.0705  0.1715
10883TIP3    H132594   8.369   3.646   3.407  1.5611  0.0424 -0.9181
10883TIP3    H232595   8.437   3.517   3.449  0.2864 -0.1668  0.5418
10884TIP3   OH232596   8.498   3.795   4.099  0.4404 -0.1851  0.1220
10884TIP3    H132597   8.484   3.831   4.011  2.2681  0.9417  0.2819
10884TIP3    H232598   8.429   3.835   4.152 -0.4049 -0.5386 -0.6804
10885TIP3   OH232599   7.846   5.022   4.187  0.7387  0.6678 -0.2206
10885TIP3    H132600   7.910   5.022   4.116 -0.9918 -1.8228 -1.8377
10885TIP3    H232601   7.862   4.940   4.234  0.1412  1.0713  0.7155
10886TIP3   OH232602   0.084   2.664   6.204  0.2860 -0.3753 -0.5567
10886TIP3    H132603   0.172   2.686   6.174  1.2751 -1.7441  1.2265
10886TIP3    H232604   0.078   2.705   6.291 -0.9916  0.0277 -0.8221
10887TIP3   OH232605   0.218   3.820   4.897 -0.4377  0.0178 -0.0829
10887TIP3    H132606   0.129   3.785   4.908 -0.5046 -0.4025 -1.7256
10887TIP3    H232607   0.264   3.751   4.849  1.1551 -0.3198  1.9042
10888TIP3   OH232608   7.935   0.952   2.181  0.1461  0.1171  0.4662
10888TIP3    H132609   7.982   0.873   2.207 -0.9635 -0.8110 -0.2820
10888TIP3    H232610   7.843   0.929   2.192 -0.3306 -0.0001 -3.2998
10889TIP3   OH232611   7.711   1.899   5.158  0.0175 -0.7155 -0.5271
10889TIP3    H132612   7.677   1.810   5.161  0.5222 -1.0049 -2.5728
10889TIP3    H232613   7.777   1.897   5.088  0.7944  0.9941  0.1278
10890TIP3   OH232614   0.108   3.373   5.783 -0.2933 -0.3201 -0.2218
10890TIP3    H132615   0.087   3.390   5.691 -1.2632 -0.0106  0.0471
10890TIP3    H232616   0.032   3.326   5.817 -0.3782  0.4199  0.6641
10891TIP3   OH232617   0.522   4.617   3.807  0.0848 -0.6262 -0.1598
10891TIP3    H132618   0.491   4.539   3.853 -2.8533 -0.0024 -0.9788
10891TIP3    H232619   0.565   4.583   3.729 -0.3664 -1.4704 -0.0547
10892TIP3   OH232620   7.252   6.432   5.360  0.1366 -0.2587 -0.5637
10892TIP3    H132621   7.174   6.415   5.308  0.2066 -0.6880 -0.5373
10892TIP3    H232622   7.301   6.498   5.310  0.5116 -1.1268 -1.3656
10893TIP3   OH232623   0.710   3.892   5.123 -0.6977 -0.0081 -0.0652
10893TIP3    H132624   0.692   3.917   5.213 -1.1654  1.1309 -0.4712
10893TIP3    H232625   0.798   3.926   5.106  0.2174 -1.9975  0.6057
10894TIP3   OH232626   7.072   3.800   2.023 -0.3889 -0.2750  0.8797
10894TIP3    H132627   7.033   3.810   1.936 -1.7924  0.4350  1.5652
10894TIP3    H232628   7.114   3.714   2.021  0.2687  0.0547 -0.7418
10895TIP3   OH232629   6.288   2.046   5.357 -0.1338  0.0150  0.4094
10895TIP3    H132630   6.333   2.120   5.316 -0.6383 -1.3318 -2.7334
10895TIP3    H232631   6.344   1.971   5.339 -0.7615 -0.7613  1.5866
10896TIP3   OH232632   2.235   3.551   4.909 -0.3503 -0.5413  0.0749
10896TIP3    H132633   2.322   3.562   4.869  1.4534 -1.3060  3.5534
10896TIP3    H232634   2.202   3.640   4.920  0.4305 -0.1932 -0.3641
10897TIP3   OH232635   7.334   3.749   5.023  0.0000 -0.0346  0.1820
10897TIP3    H132636   7.308   3.837   4.997 -1.0287 -0.4674 -0.3094
10897TIP3    H232637   7.269   3.692   4.981  0.7946 -1.0341  0.2961
10898TIP3   OH232638   0.090   4.885   5.598  0.7319 -0.0140 -0.1852
10898TIP3    H132639   0.039   4.813   5.633  0.6663  0.8689  1.5965
10898TIP3    H232640   0.033   4.962   5.608  1.3044  0.5021 -0.8350
10899TIP3   OH232641   0.451   5.886   5.618 -0.5174  0.1404 -0.0266
10899TIP3    H132642   0.434   5.799   5.581  1.4387  0.3520 -1.5279
10899TIP3    H232643   0.531   5.874   5.671  0.0452  1.1053 -0.6480
10900TIP3   OH232644   0.443   4.958   2.652 -0.1430 -0.3513 -0.0085
10900TIP3    H132645   0.391   4.881   2.630 -1.0267 -0.5276  2.5539
10900TIP3    H232646   0.518   4.923   2.701 -0.5475  0.4183  1.1639
10901TIP3   OH232647   2.106   7.212   1.140  0.1481 -0.1750 -0.4216
10901TIP3    H132648   2.133   7.182   1.227  0.3186 -0.7620 -0.6726
10901TIP3    H232649   2.096   7.306   1.149  3.1587  0.1802 -0.5708
10902TIP3   OH232650   7.815   3.419   4.582  0.4132  0.3872  0.7105
10902TIP3    H132651   7.905   3.406   4.553  0.5219  1.8094  0.3396
10902TIP3    H232652   7.796   3.511   4.559 -0.5003  0.6494  2.4474
10903TIP3   OH232653   0.811   2.970   6.834  0.2695 -0.1874  0.6677
10903TIP3    H132654   0.751   3.027   6.786 -0.1184 -0.3678  0.9441
10903TIP3    H232655   0.875   3.030   6.873  1.1639 -0.1081 -0.8799
10904TIP3   OH232656   7.997   2.825   5.292 -0.3445 -0.1258  0.6899
10904TIP3    H132657   7.999   2.776   5.210  0.5802  0.2275  0.4989
10904TIP3    H232658   8.032   2.911   5.270 -1.4905  0.4704  1.1400
10905TIP3   OH232659   0.194   4.850   6.514  0.8278  0.0378  0.2809
10905TIP3    H132660   0.289   4.864   6.507  0.8457  0.4593  1.3944
10905TIP3    H232661   0.163   4.921   6.569  0.1191 -1.1368  1.4077
10906TIP3   OH232662   0.704   0.841   5.550  0.3918 -0.1079  0.6691
10906TIP3    H132663   0.654   0.850   5.631 -2.2646  0.9177 -1.0304
10906TIP3    H232664   0.768   0.913   5.554 -0.3765  0.5439  1.3988
10907TIP3   OH232665   5.486   0.161   0.495  0.4538 -0.1989  0.3769
10907TIP3    H132666   5.514   0.101   0.564  3.4655  2.3130  1.4908
10907TIP3    H232667   5.499   0.248   0.532 -0.7478  1.1798 -2.2890
10908TIP3   OH232668   1.353   2.902   5.172  0.4282 -0.1973  0.3524
10908TIP3    H132669   1.339   2.996   5.175  1.9853  0.0197  0.7604
10908TIP3    H232670   1.371   2.883   5.080  1.0290  0.0371  0.4204
10909TIP3   OH232671   1.161   3.125   6.248  0.0167  0.0775 -0.4246
10909TIP3    H132672   1.226   3.134   6.318  0.1313  0.1641 -0.5414
10909TIP3    H232673   1.212   3.125   6.167 -0.1760  0.7644 -0.5530
10910TIP3   OH232674   5.251   7.765   0.371  0.3497 -0.1427  0.0253
10910TIP3    H132675   5.345   7.769   0.386  0.5700 -0.8906 -1.1087
10910TIP3    H232676   5.240   7.699   0.302 -0.8834  1.0054 -0.9031
10911TIP3   OH232677   1.248   3.442   6.126 -0.1933 -0.2248  0.5731
10911TIP3    H132678   1.195   3.435   6.205  0.8259 -0.4559  1.2429
10911TIP3    H232679   1.322   3.497   6.150 -1.1538  1.7924 -0.9295
10912TIP3   OH232680   0.441   4.480   4.972  0.1348 -0.0207  0.0970
10912TIP3    H132681   0.360   4.509   5.014  0.4053 -1.6725  1.7822
10912TIP3    H232682   0.411   4.425   4.899 -0.2563 -0.0335  0.2658
10913TIP3   OH232683   5.059   6.719   0.250  0.6913 -0.2736  0.1609
10913TIP3    H132684   5.084   6.811   0.238  3.5422 -0.9152  0.9378
10913TIP3    H232685   5.113   6.671   0.187  1.2749 -1.6848  1.6989
10914TIP3   OH232686   7.885   5.258   4.900  0.4598  0.4072 -0.1248
10914TIP3    H132687   7.926   5.173   4.882 -0.2402  0.0144  0.1037
10914TIP3    H232688   7.796   5.236   4.930  1.1150  1.0944  2.4301
10915TIP3   OH232689   7.238   3.537   4.686  0.1124 -0.3613  0.3486
10915TIP3    H132690   7.235   3.498   4.599 -0.9731 -0.1926  0.3095
10915TIP3    H232691   7.328   3.568   4.695  0.2832 -0.5622 -0.6351
10916TIP3   OH232692   2.597   7.679   0.136 -0.5561 -0.0549 -0.0641
10916TIP3    H132693   2.661   7.727   0.084 -1.0405  0.9249  0.2317
10916TIP3    H232694   2.570   7.607   0.080 -0.2874  0.3788 -0.7628
10917TIP3   OH232695   0.367   2.198   5.805 -0.5126  0.1857  0.1098
10917TIP3    H132696   0.404   2.284   5.782 -0.9510  0.4885  0.5250
10917TIP3    H232697   0.334   2.209   5.894  1.8588 -1.2083  1.2036
10918TIP3   OH232698   8.404   3.278   5.164 -0.3643  0.0356  0.3877
10918TIP3    H132699   8.366   3.301   5.079 -0.5783  0.6156  0.6407
10918TIP3    H232700   8.474   3.216   5.142 -1.4254 -1.0258 -0.0902
10919TIP3   OH232701   0.974   0.393   5.995 -0.3381  0.0150  0.4008
10919TIP3    H132702   0.996   0.358   6.082  0.5244 -2.9181 -0.9265
10919TIP3    H232703   0.936   0.319   5.949  0.5622  1.1284 -2.2237
10920TIP3   OH232704   2.570   7.072   0.392 -0.1131 -0.1343 -0.4621
10920TIP3    H132705   2.504   7.076   0.462 -1.2055  1.6208 -1.5566
10920TIP3    H232706   2.652   7.091   0.437 -0.6125 -0.3310  0.5675
10921TIP3   OH232707   1.076   7.763   1.750 -0.5838 -0.5961  0.2725
10921TIP3    H132708   1.141   7.831   1.733 -1.0320 -0.0464  0.7600
10921TIP3    H232709   1.012   7.772   1.679  1.1217 -2.6963 -1.6007
10922TIP3   OH232710   8.298   1.780   6.128  0.5849  0.5455  0.5092
10922TIP3    H132711   8.351   1.857   6.104 -0.4387  1.0426 -0.1899
10922TIP3    H232712   8.318   1.716   6.059  0.1651  0.7879  0.1595
10923TIP3   OH232713   1.389   2.619   5.974 -0.2893  0.1824  0.1189
10923TIP3    H132714   1.474   2.584   6.000  0.0429  0.9258  0.0532
10923TIP3    H232715   1.395   2.713   5.993 -0.3202  0.6119 -1.8898
10924TIP3   OH232716   7.222   4.483   6.215 -0.2384 -0.1051 -0.1450
10924TIP3    H132717   7.315   4.498   6.232  0.1131  0.2673 -2.2917
10924TIP3    H232718   7.178   4.558   6.253  0.3395 -0.2436  0.8141
10925TIP3   OH232719   0.878   3.279   5.168  0.6300  0.2414 -0.5923
10925TIP3    H132720   0.828   3.358   5.187  0.7955  0.1074  0.4623
10925TIP3    H232721   0.898   3.284   5.075 -2.6203 -0.4471 -1.3870
10926TIP3   OH232722   8.269   4.016   5.187 -0.6835 -0.0384  0.2602
10926TIP3    H132723   8.240   4.107   5.181 -0.4104 -0.0844 -2.0339
10926TIP3    H232724   8.223   3.971   5.116  1.6254 -1.0236 -0.6381
10927TIP3   OH232725   7.550   3.161   4.851  0.1424  0.3650 -0.5685
10927TIP3    H132726   7.641   3.189   4.849  0.6124 -1.0262  0.3202
10927TIP3    H232727   7.543   3.096   4.781  0.4754 -1.3271  0.9266
10928TIP3   OH232728   7.008   3.241   4.789  0.3896  0.5997 -0.4148
10928TIP3    H132729   6.996   3.209   4.878  1.4880 -0.1309 -0.5158
10928TIP3    H232730   7.103   3.239   4.775  0.2350  0.7805 -1.5746
10929TIP3   OH232731   8.231   4.674   3.124 -0.1698 -0.0005  0.3126
10929TIP3    H132732   8.154   4.627   3.092  0.9738 -1.1847 -0.7590
10929TIP3    H232733   8.196   4.742   3.182 -2.1010  0.3619 -1.2339
10930TIP3   OH232734   7.952   4.396   5.961 -0.1245  0.0988  0.7989
10930TIP3    H132735   7.915   4.474   6.003  0.1042  0.0200  1.1476
10930TIP3    H232736   7.932   4.407   5.868 -0.3422  0.4363  0.8849
10931TIP3   OH232737   0.615   4.453   6.545 -0.1801 -0.2293 -0.4043
10931TIP3    H132738   0.626   4.455   6.450 -2.5631  0.3036 -0.6836
10931TIP3    H232739   0.656   4.370   6.572 -1.3743 -1.4109 -2.1509
10932TIP3   OH232740   8.469   4.600   6.901 -0.3951 -0.1356  0.4211
10932TIP3    H132741   8.390   4.644   6.870 -0.4013  0.6614  1.5615
10932TIP3    H232742   8.540   4.656   6.872 -0.3479  0.0941  0.9758
10933TIP3   OH232743   0.392   6.150   4.712 -0.2715  0.7168 -0.3151
10933TIP3    H132744   0.298   6.160   4.697 -0.4563  0.2190  0.5013
10933TIP3    H232745   0.403   6.060   4.742  0.1862  1.4197  1.6772
10934TIP3   OH232746   1.043   2.439   4.933  0.1901 -0.7491 -0.1451
10934TIP3    H132747   0.980   2.503   4.967 -1.0161 -1.7962 -0.3575
10934TIP3    H232748   1.004   2.410   4.850  0.3765 -2.2579  0.2811
10935TIP3   OH232749   0.574   3.281   5.921 -0.0354 -0.4608 -0.9221
10935TIP3    H132750   0.659   3.239   5.935 -0.2747 -0.6843 -0.1483
10935TIP3    H232751   0.517   3.243   5.987 -1.0062 -1.0502 -2.0721
10936TIP3   OH232752   8.327   3.154   5.446  0.3470 -0.2755 -0.1783
10936TIP3    H132753   8.306   3.207   5.369 -1.3389 -2.0905 -1.0342
10936TIP3    H232754   8.252   3.166   5.504  1.2594  0.4691  0.8781
10937TIP3   OH232755   0.622   2.605   6.803  0.0599  0.3572 -0.3640
10937TIP3    H132756   0.619   2.668   6.875 -0.4307  1.2174 -1.1251
10937TIP3    H232757   0.713   2.605   6.774  0.1260  0.4865 -0.1564
10938TIP3   OH232758   0.877   3.202   5.549  0.0753 -0.2045  0.3002
10938TIP3    H132759   0.783   3.222   5.547 -0.1916 -1.4513 -0.0884
10938TIP3    H232760   0.885   3.130   5.611  1.0717  1.3044  1.9644
10939TIP3   OH232761   0.307   4.780   4.259 -0.0119 -0.0210  0.4173
10939TIP3    H132762   0.269   4.739   4.336  1.2139 -0.7637  0.6476
10939TIP3    H232763   0.386   4.729   4.241  0.1806  0.6777 -0.8119
10940TIP3   OH232764   7.053   2.347   3.999  0.2040  0.1921 -0.0634
10940TIP3    H132765   7.102   2.429   4.007 -1.5724  1.2514  0.1997
10940TIP3    H232766   7.000   2.359   3.920 -1.3711  0.0375  0.9384
10941TIP3   OH232767   1.030   3.426   2.670 -0.2652 -0.3824  0.0729
10941TIP3    H132768   1.043   3.487   2.743  0.6427 -2.1700  1.4298
10941TIP3    H232769   1.113   3.425   2.624  0.1189 -1.5273  0.7819
10942TIP3   OH232770   3.328   6.263   5.684  0.1148  0.1820 -0.4596
10942TIP3    H132771   3.296   6.245   5.595 -0.4773 -0.8560 -0.0405
10942TIP3    H232772   3.266   6.326   5.719  1.0935  1.6114 -1.2399
10943TIP3   OH232773   7.468   0.868   0.372 -0.5303 -0.2087 -0.2602
10943TIP3    H132774   7.414   0.913   0.438 -0.9221 -0.1681 -0.6057
10943TIP3    H232775   7.406   0.811   0.327 -0.3362  0.0594 -0.8641
10944TIP3   OH232776   5.008   0.258   3.818  0.6077  0.1515  0.6535
10944TIP3    H132777   5.092   0.227   3.785  1.2854  1.3755  1.1833
10944TIP3    H232778   4.994   0.207   3.898  1.4430  0.7831  1.2153
10945TIP3   OH232779   0.758   4.036   4.493 -0.1864 -0.5480  0.4744
10945TIP3    H132780   0.701   4.017   4.418 -0.7375  1.2082  0.4072
10945TIP3    H232781   0.837   4.073   4.453 -0.6736  0.8413  0.7566
10946TIP3   OH232782   0.912   4.637   4.744  0.2782  0.0653 -0.7373
10946TIP3    H132783   0.897   4.709   4.806  0.0367  0.1586 -0.9036
10946TIP3    H232784   0.837   4.641   4.684  0.1522 -0.4557 -0.6188
10947TIP3   OH232785   8.368   5.637   6.950 -0.4962 -0.0846 -0.1305
10947TIP3    H132786   8.337   5.626   6.860 -0.2382 -0.7896 -0.1371
10947TIP3    H232787   8.449   5.586   6.954 -0.4259  0.0721  0.4549
10948TIP3   OH232788   6.031   2.211   0.835 -0.5049  0.0433  0.6982
10948TIP3    H132789   6.058   2.300   0.812 -0.5333 -0.5349 -1.6818
10948TIP3    H232790   6.037   2.162   0.753 -1.2947 -1.9597  1.8021
10949TIP3   OH232791   1.190   4.266   6.709 -0.5230 -0.0141  0.0432
10949TIP3    H132792   1.259   4.259   6.775 -1.8631 -0.5080  1.4312
10949TIP3    H232793   1.135   4.339   6.740 -0.7783  0.2037 -0.9050
10950TIP3   OH232794   1.707   2.921   6.063  0.1004 -0.6874 -0.4063
10950TIP3    H132795   1.754   2.953   5.986  2.6893 -0.0104  1.3860
10950TIP3    H232796   1.709   2.826   6.054  2.7246 -0.7291  0.0756
10951TIP3   OH232797   5.550   6.072   0.885  0.5860  0.1101  0.1288
10951TIP3    H132798   5.543   6.074   0.789  1.3193 -1.2163  0.0333
10951TIP3    H232799   5.515   5.986   0.910  0.9859  0.1947  0.9975
10952TIP3   OH232800   0.149   2.995   6.188  0.4022 -0.2008 -0.3129
10952TIP3    H132801   0.205   2.922   6.216 -0.9370 -0.8821  0.6451
10952TIP3    H232802   0.082   3.001   6.256 -1.3646 -0.1594 -2.0231
10953TIP3   OH232803   1.284   3.806   5.938  0.6184  0.0227 -0.2818
10953TIP3    H132804   1.361   3.855   5.967  1.4493 -1.3717 -0.0741
10953TIP3    H232805   1.241   3.779   6.019 -0.7211  1.7629 -0.4049
10954TIP3   OH232806   1.263   3.730   6.825 -0.0980  0.1122  0.2131
10954TIP3    H132807   1.234   3.772   6.744  1.2666  0.6571 -0.0119
10954TIP3    H232808   1.188   3.679   6.855 -0.6290 -0.0529 -1.3749
10955TIP3   OH232809   6.265   0.272   0.070  0.4534  0.0053  0.1927
10955TIP3    H132810   6.339   0.236   0.020 -1.7165 -1.8289 -1.7934
10955TIP3    H232811   6.245   0.204   0.134  0.2273  0.3446  0.4835
10956TIP3   OH232812   0.670   4.360   6.232 -0.7784  0.4566  0.3800
10956TIP3    H132813   0.687   4.288   6.294  1.2229  1.1257  0.6452
10956TIP3    H232814   0.719   4.434   6.268  0.9558  0.6759 -2.3483
10957TIP3   OH232815   1.388   6.186   1.036 -0.1471  0.6059  0.0569
10957TIP3    H132816   1.383   6.253   0.968  0.9002 -0.1985 -0.8182
10957TIP3    H232817   1.338   6.223   1.109  1.5887  2.9335  0.1040
10958TIP3   OH232818   8.240   4.872   5.014  0.0142 -0.2443 -0.0853
10958TIP3    H132819   8.232   4.916   4.929 -4.1635  0.9062  0.8117
10958TIP3    H232820   8.272   4.939   5.073  1.5778 -0.6705 -0.4350
10959TIP3   OH232821   4.629   0.442   0.653 -0.2720  0.0288 -0.1159
10959TIP3    H132822   4.596   0.440   0.564 -0.7316  0.3127  0.0459
10959TIP3    H232823   4.707   0.497   0.649 -0.1267 -0.1996 -0.3977
10960TIP3   OH232824   2.761   1.338   6.026  0.2325 -0.2441 -0.2569
10960TIP3    H132825   2.824   1.306   6.090 -1.8772 -2.2013  0.9532
10960TIP3    H232826   2.689   1.373   6.079  0.2626  1.9413 -1.5924
10961TIP3   OH232827   2.034   6.180   2.245 -0.0872  0.3933 -0.0408
10961TIP3    H132828   2.072   6.096   2.272  0.9245  0.4727 -1.1768
10961TIP3    H232829   2.081   6.203   2.165 -0.9790  1.6148 -0.2289
10962TIP3   OH232830   1.242   4.335   5.763  0.1862 -0.0520 -0.1323
10962TIP3    H132831   1.305   4.375   5.823  0.1459 -1.7424  1.0604
10962TIP3    H232832   1.250   4.241   5.779 -1.3348 -0.3929 -1.2951
10963TIP3   OH232833   3.405   6.516   0.311 -0.0954  0.1755 -0.1970
10963TIP3    H132834   3.343   6.567   0.258  1.6521  2.3759 -0.1929
10963TIP3    H232835   3.372   6.524   0.400  0.6484  2.0721 -0.0732
10964TIP3   OH232836   4.242   7.001   0.228 -0.2435  0.5222 -0.3735
10964TIP3    H132837   4.147   6.991   0.227 -0.3361  1.5223 -1.7839
10964TIP3    H232838   4.275   6.926   0.179 -0.2568 -0.1147  0.5631
10965TIP3   OH232839   3.325   8.015   1.785  0.0602 -0.0478  0.1055
10965TIP3    H132840   3.409   7.970   1.780  0.8320  1.1909  1.7557
10965TIP3    H232841   3.261   7.949   1.757  1.6125 -0.7785 -1.8830
10966TIP3   OH232842   1.418   7.009   5.097 -0.4820 -0.2749  0.2315
10966TIP3    H132843   1.427   7.018   5.002 -0.4149 -0.4710  0.2192
10966TIP3    H232844   1.481   7.072   5.133  0.4214 -1.1213  0.1476
10967TIP3   OH232845   0.824   5.236   5.329  0.2552  0.0631 -0.0010
10967TIP3    H132846   0.778   5.184   5.263 -0.2850 -0.9431  1.1467
10967TIP3    H232847   0.819   5.326   5.296 -1.2436 -0.2388 -0.6374
10968TIP3   OH232848   0.244   2.918   6.624 -0.4143  0.2001  0.0092
10968TIP3    H132849   0.315   2.889   6.568 -0.3416  1.8779 -0.7935
10968TIP3    H232850   0.266   3.008   6.647 -0.6132 -0.3301  2.4592
10969TIP3   OH232851   7.333   0.627   0.056 -0.6522  0.0494 -0.1664
10969TIP3    H132852   7.428   0.614   0.046 -0.3720  1.9588 -0.1901
10969TIP3    H232853   7.306   0.663  -0.029 -1.3450 -0.1891 -0.0429
10970TIP3   OH232854   0.912   5.225   4.881  0.3620 -0.5674  0.0561
10970TIP3    H132855   0.904   5.279   4.802  3.0123  0.5511  0.4972
10970TIP3    H232856   0.959   5.147   4.851 -2.1147 -1.9931 -0.2563
10971TIP3   OH232857   1.158   1.412   0.370 -0.1555 -0.8448  0.0591
10971TIP3    H132858   1.093   1.397   0.302  0.9594  1.1643 -1.5266
10971TIP3    H232859   1.233   1.358   0.344 -0.3672 -1.4319  0.6594
10972TIP3   OH232860   2.940   7.742   0.815  0.4578  0.1251 -0.0852
10972TIP3    H132861   2.961   7.703   0.900  0.2672  0.3837  0.0814
10972TIP3    H232862   2.893   7.673   0.769 -0.5085  0.3895  0.4811
10973TIP3   OH232863   2.377   5.729   5.767  0.3729 -0.6054 -0.1024
10973TIP3    H132864   2.311   5.700   5.831  0.1611 -1.4292 -0.6761
10973TIP3    H232865   2.427   5.649   5.747  1.0634 -0.1422 -0.2353
10974TIP3   OH232866   2.021   6.622   1.576  0.0615 -0.1176 -0.2030
10974TIP3    H132867   2.013   6.531   1.548  1.4610 -0.9520  1.9929
10974TIP3    H232868   2.002   6.619   1.670 -0.7028  1.9989 -0.2738
10975TIP3   OH232869   7.526   5.512   5.194 -0.3507  0.6716  0.3319
10975TIP3    H132870   7.536   5.606   5.176  1.8391  0.2093 -1.1346
10975TIP3    H232871   7.458   5.483   5.133  0.0898  1.0197 -0.3394
10976TIP3   OH232872   0.455   4.638   5.789  0.1026  0.3277 -0.5355
10976TIP3    H132873   0.484   4.729   5.797 -1.1377  0.4982  2.7967
10976TIP3    H232874   0.359   4.643   5.793  0.0721 -1.2895  2.8063
10977TIP3   OH232875   0.541   3.067   5.036  0.7433  0.6021  0.3129
10977TIP3    H132876   0.614   3.033   5.089  1.0073 -1.5469 -1.3514
10977TIP3    H232877   0.466   3.065   5.094  1.0607 -1.5983  0.6903
10978TIP3   OH232878   2.241   5.641   6.402  0.5571  0.2482 -0.1652
10978TIP3    H132879   2.248   5.732   6.433 -0.3165  0.2952 -0.1028
10978TIP3    H232880   2.149   5.619   6.414  0.5938 -0.3584 -0.9924
10979TIP3   OH232881   2.496   6.925   4.314 -0.5567 -0.5829 -0.2103
10979TIP3    H132882   2.511   6.928   4.408 -1.3761 -0.2365 -0.0865
10979TIP3    H232883   2.483   6.833   4.294 -1.1620 -0.5740  0.1397
10980TIP3   OH232884   3.005   0.965   2.004  0.0619  0.0643 -0.4638
10980TIP3    H132885   2.959   0.893   1.962  1.7921 -1.3633  0.0288
10980TIP3    H232886   2.960   0.976   2.088 -0.4160 -0.2145 -0.6795
10981TIP3   OH232887   1.737   6.819   6.265 -0.5602  0.1257 -0.1116
10981TIP3    H132888   1.770   6.909   6.261 -1.2770  0.4818  1.3252
10981TIP3    H232889   1.642   6.829   6.273 -0.6135 -0.7486  0.4143
10982TIP3   OH232890   8.136   4.511   5.496 -0.3902 -0.6386  0.2496
10982TIP3    H132891   8.062   4.477   5.546 -0.4258 -1.1738 -0.1554
10982TIP3    H232892   8.160   4.439   5.438  0.8239 -0.6786  0.7930
10983TIP3   OH232893   7.744   1.036   0.056  0.1156  0.2586 -0.7277
10983TIP3    H132894   7.673   0.997   0.107  0.6214 -0.2091 -0.3834
10983TIP3    H232895   7.817   0.976   0.066  0.0365 -0.1472 -2.5077
10984TIP3   OH232896   8.055   5.536   5.127 -0.0131  0.0603  0.2434
10984TIP3    H132897   7.970   5.521   5.167  0.6302  0.2228  1.6923
10984TIP3    H232898   8.037   5.536   5.033 -1.5701 -0.1209  0.5220
10985TIP3   OH232899   1.696   5.131   5.014  0.1185 -0.1312  0.0277
10985TIP3    H132900   1.760   5.157   4.948  1.2762  0.4918  1.3705
10985TIP3    H232901   1.703   5.036   5.019 -1.2465 -0.3646 -2.0076
10986TIP3   OH232902   0.150   1.610   1.362  0.1239 -0.1419 -0.6295
10986TIP3    H132903   0.225   1.670   1.368  0.8360 -0.7881 -2.6009
10986TIP3    H232904   0.091   1.652   1.300 -0.2237 -0.6077 -0.6135
10987TIP3   OH232905   7.755   3.506   2.638  0.8124 -0.0963 -0.4203
10987TIP3    H132906   7.726   3.549   2.718 -0.0846 -0.2071 -0.6776
10987TIP3    H232907   7.850   3.507   2.643  0.7528 -1.3926  1.3493
10988TIP3   OH232908   2.065   4.300   6.899  0.2057  0.0435  0.0351
10988TIP3    H132909   2.089   4.238   6.829  0.3502  0.0571  0.0722
10988TIP3    H232910   2.148   4.336   6.929  0.1555 -0.0744  0.3184
10989TIP3   OH232911   1.515   6.503   6.290 -0.4864  0.4205 -0.2510
10989TIP3    H132912   1.569   6.432   6.255 -0.3670  1.1830 -1.6632
10989TIP3    H232913   1.483   6.470   6.374 -0.4242 -1.2998 -0.8869
10990TIP3   OH232914   8.507   3.998   5.639  0.6089  0.3602 -0.3772
10990TIP3    H132915   8.481   3.941   5.712 -0.4969  0.1907 -0.8916
10990TIP3    H232916   8.426   4.013   5.591  1.2981  0.6593 -1.4500
10991TIP3   OH232917   4.846   5.500   1.177 -0.0658  0.2456  0.6221
10991TIP3    H132918   4.937   5.496   1.208 -0.2049 -1.7131  0.8722
10991TIP3    H232919   4.845   5.571   1.113  1.7933 -0.1214  0.1613
10992TIP3   OH232920   1.657   4.822   3.322 -0.5721  0.1173 -0.0154
10992TIP3    H132921   1.707   4.902   3.307 -0.5073 -0.0302 -0.5641
10992TIP3    H232922   1.631   4.792   3.235  0.7451 -1.3166  0.0678
10993TIP3   OH232923   7.988   3.672   6.867  0.4476  0.2649  0.6710
10993TIP3    H132924   8.052   3.681   6.797 -0.5130  0.6612 -0.1704
10993TIP3    H232925   7.972   3.577   6.874 -0.1160  0.2814 -0.2661
10994TIP3   OH232926   3.918   7.390   1.517  0.6308 -0.6954 -0.3513
10994TIP3    H132927   3.890   7.377   1.426  2.0347  0.6211 -0.9955
10994TIP3    H232928   3.848   7.351   1.569 -1.3648  0.6441 -1.9512
10995TIP3   OH232929   3.996   3.774   5.925  0.3374 -0.3038  0.6454
10995TIP3    H132930   4.032   3.828   5.855 -1.8035  0.0394 -0.2181
10995TIP3    H232931   3.936   3.832   5.972 -1.5152 -1.7278  0.0859
10996TIP3   OH232932   4.441   7.095   0.608 -0.1786  0.6157 -0.1412
10996TIP3    H132933   4.483   7.173   0.644  1.1729  0.1864 -0.7359
10996TIP3    H232934   4.348   7.115   0.607 -0.0187  1.4435  1.5744
10997TIP3   OH232935   0.283   3.457   6.840 -0.2598  0.4164  0.6112
10997TIP3    H132936   0.339   3.532   6.818 -1.0588  0.6589 -0.6036
10997TIP3    H232937   0.194   3.488   6.825 -0.5669 -0.9751 -0.5144
10998TIP3   OH232938   4.909   7.954   1.200 -0.3063 -0.2015 -0.0095
10998TIP3    H132939   4.991   7.925   1.159  0.7329  1.4190  0.8526
10998TIP3    H232940   4.841   7.905   1.155  0.9982 -0.2269 -2.0274
10999TIP3   OH232941   3.375   6.966   0.134  0.2620  0.5956  0.2689
10999TIP3    H132942   3.377   7.040   0.194  1.1455  1.3605 -0.6700
10999TIP3    H232943   3.356   7.005   0.048  1.9320 -0.0941 -0.4387
11000TIP3   OH232944   4.076   8.015   2.495  0.0521 -0.0507 -0.7360
11000TIP3    H132945   4.098   8.015   2.588 -0.3635  1.3309 -0.6332
11000TIP3    H232946   3.981   8.000   2.494  0.0269  0.1262 -0.9322
11001TIP3   OH232947   0.788   4.230   6.811 -0.2633 -0.2148  0.0055
11001TIP3    H132948   0.827   4.304   6.858 -0.4948 -0.6051  0.8225
11001TIP3    H232949   0.811   4.245   6.719  1.7276 -0.4069  0.4560
11002TIP3   OH232950   0.359   5.117   6.047 -0.8902 -0.2509  0.1761
11002TIP3    H132951   0.308   5.049   6.003  0.6897 -1.4074  0.0672
11002TIP3    H232952   0.422   5.146   5.981 -0.9221  0.6447  0.5309
11003TIP3   OH232953   1.789   5.078   6.414  0.9839 -0.0411 -0.4528
11003TIP3    H132954   1.789   5.130   6.334  1.4609  0.4277 -0.1484
11003TIP3    H232955   1.764   4.990   6.385  0.5357  0.2709 -1.0188
11004TIP3   OH232956   7.629   0.421   3.496  0.7405 -0.3351  0.1755
11004TIP3    H132957   7.596   0.385   3.579 -0.9281  0.3973 -0.1559
11004TIP3    H232958   7.557   0.409   3.434  0.3150  2.9910 -0.0858
11005TIP3   OH232959   1.181   4.377   5.516 -0.2818 -0.0122 -0.5543
11005TIP3    H132960   1.194   4.469   5.492  1.5971 -0.6143 -2.0228
11005TIP3    H232961   1.238   4.363   5.592  1.6334 -0.6345 -2.0598
11006TIP3   OH232962   1.869   0.391   1.354 -0.3801  0.0177 -0.2534
11006TIP3    H132963   1.912   0.349   1.428 -0.0107 -1.8238 -1.4839
11006TIP3    H232964   1.814   0.459   1.393 -0.9662 -1.5790  1.7662
11007TIP3   OH232965   2.107   3.676   6.563 -0.4922 -0.4630 -0.3630
11007TIP3    H132966   2.179   3.613   6.559  0.6077  0.7921 -0.7201
11007TIP3    H232967   2.146   3.756   6.599 -1.6633  0.3000 -0.7343
11008TIP3   OH232968   1.885   6.171   6.805  0.4194  0.3645  0.2358
11008TIP3    H132969   1.898   6.253   6.757  1.3232  0.2906  0.3549
11008TIP3    H232970   1.858   6.109   6.738  1.1337  0.4020 -0.0856
11009TIP3   OH232971   0.890   3.115   6.238 -0.4761  0.0597  0.2158
11009TIP3    H132972   0.980   3.129   6.267 -0.5172  0.6960  0.0477
11009TIP3    H232973   0.883   3.021   6.224 -0.2109 -0.1407  1.4513
11010TIP3   OH232974   0.738   5.540   6.843  0.1470 -0.0078 -0.1398
11010TIP3    H132975   0.793   5.485   6.787  0.1878  0.8070 -0.9253
11010TIP3    H232976   0.693   5.478   6.901  0.6270 -0.8163 -0.6144
11011TIP3   OH232977   8.205   3.836   5.637  0.2317  0.4402 -0.6224
11011TIP3    H132978   8.209   3.921   5.592 -1.3524  1.4495  1.0309
11011TIP3    H232979   8.215   3.858   5.730 -2.2660 -0.8999  0.0263
11012TIP3   OH232980   7.266   1.611   0.669  0.1686  0.1895 -0.3646
11012TIP3    H132981   7.240   1.634   0.580 -1.2658 -1.1977 -0.3310
11012TIP3    H232982   7.286   1.517   0.665 -2.4272 -0.4758  1.3152
11013TIP3   OH232983   6.679   1.300   1.934 -0.2453 -0.1316 -0.0019
11013TIP3    H132984   6.610   1.234   1.925  0.2452 -0.5677 -0.6699
11013TIP3    H232985   6.745   1.257   1.988 -0.6214  0.3872  0.8698
11014TIP3   OH232986   7.584   1.528   0.491  0.7860 -0.0691  0.1547
11014TIP3    H132987   7.650   1.596   0.507  1.2556 -0.2602 -0.9320
11014TIP3    H232988   7.510   1.575   0.454  1.7798 -0.3651 -2.2944
11015TIP3   OH232989   2.891   7.686   2.548 -0.9870 -0.2703 -0.1360
11015TIP3    H132990   2.875   7.680   2.642  0.4973 -0.7884  0.0883
11015TIP3    H232991   2.981   7.718   2.540 -1.8980  2.0867 -1.3933
11016TIP3   OH232992   1.424   4.160   5.509  0.0862  0.2202  0.6112
11016TIP3    H132993   1.518   4.177   5.513  0.3637 -1.1669  0.3942
11016TIP3    H232994   1.401   4.132   5.598 -0.1668  0.7868  0.7229
11017TIP3   OH232995   0.171   4.622   5.853  0.0526 -0.4503 -0.2698
11017TIP3    H132996   0.171   4.621   5.949  1.2636 -0.6174 -0.2692
11017TIP3    H232997   0.107   4.555   5.828  0.1303 -0.7841  0.4200
11018TIP3   OH232998   8.225   5.681   4.723 -0.2432 -0.6534 -0.4147
11018TIP3    H132999   8.306   5.640   4.753  0.3384 -0.2631 -1.4185
11018TIP3    H233000   8.189   5.620   4.659  0.1819 -0.0049 -1.2783
11019TIP3   OH233001   8.387   0.061   0.076  0.0566 -0.1088 -0.2063
11019TIP3    H133002   8.433   0.003   0.136  0.9085  0.2868 -0.4705
11019TIP3    H233003   8.295   0.055   0.102  0.3386 -0.4267  0.7245
11020TIP3   OH233004   1.773   4.738   6.622  0.0813  0.0710  0.1096
11020TIP3    H133005   1.845   4.777   6.672  1.6178 -3.0747  0.4649
11020TIP3    H233006   1.803   4.742   6.531 -0.7416  1.6654 -0.1146
11021TIP3   OH233007   0.960   3.583   5.656  0.3535  0.5988 -0.1373
11021TIP3    H133008   1.029   3.523   5.628  0.3126  0.9876 -1.0788
11021TIP3    H233009   0.910   3.533   5.721  2.4138  0.8459  1.6845
11022TIP3   OH233010   0.883   2.856   6.239 -0.5611 -0.1697  0.1401
11022TIP3    H133011   0.935   2.857   6.319 -1.0887  0.8065  0.4788
11022TIP3    H233012   0.799   2.818   6.266  0.6999 -3.9164 -0.8901
11023TIP3   OH233013   5.638   1.067   1.010 -0.1309 -0.1404 -0.0019
11023TIP3    H133014   5.692   1.084   1.087  0.5031  0.5322 -0.5758
11023TIP3    H233015   5.701   1.045   0.941 -0.7259 -1.2301 -0.1950
11024TIP3   OH233016   7.395   1.064   0.805 -0.4633 -0.0109  0.0447
11024TIP3    H133017   7.349   1.133   0.853  0.1755  0.2602  0.2799
11024TIP3    H233018   7.366   0.983   0.845 -0.4575  0.1792  0.4332
11025TIP3   OH233019   1.006   2.991   0.865 -0.1937 -0.2542 -0.1089
11025TIP3    H133020   0.983   3.065   0.922  0.7265 -0.0651  0.0303
11025TIP3    H233021   0.984   3.021   0.777 -1.6527 -0.5584  0.1442
11026TIP3   OH233022   0.836   2.400   4.412 -0.2312 -0.3235  0.1488
11026TIP3    H133023   0.816   2.367   4.325  2.5520  0.4966 -0.8673
11026TIP3    H233024   0.759   2.452   4.437 -0.8923 -0.2409 -1.9969
11027TIP3   OH233025   7.559   0.812   1.744  0.2610 -0.2562  0.1299
11027TIP3    H133026   7.591   0.842   1.659 -0.5443 -0.1416 -0.1380
11027TIP3    H233027   7.627   0.753   1.776 -0.0347 -1.3464 -1.1987
11028TIP3   OH233028   0.601   4.874   5.759  0.5144 -0.4883  0.0988
11028TIP3    H133029   0.696   4.882   5.747  0.1407  0.1127 -2.8845
11028TIP3    H233030   0.564   4.945   5.706 -1.5858 -0.1394  1.9615
11029TIP3   OH233031   6.816   2.569   0.607  0.1836 -0.3569  0.1827
11029TIP3    H133032   6.739   2.512   0.609 -0.8692  1.0524  0.3102
11029TIP3    H233033   6.819   2.602   0.517  1.9227 -2.1051 -0.4393
11030TIP3   OH233034   1.515   4.700   6.071 -0.2013 -0.0858  0.2043
11030TIP3    H133035   1.485   4.700   6.162 -1.0478  1.5536 -0.0486
11030TIP3    H233036   1.603   4.738   6.075 -0.6646  0.9933  0.2179
11031TIP3   OH233037   0.801   3.155   5.953 -0.2822 -0.2438  0.4032
11031TIP3    H133038   0.858   3.111   5.889 -0.8720 -0.7618  0.2233
11031TIP3    H233039   0.844   3.141   6.037  0.0935 -0.2400  0.2147
11032TIP3   OH233040   0.729   5.550   5.549 -0.5735  0.1356 -0.2117
11032TIP3    H133041   0.637   5.528   5.537 -0.7580  0.3466  0.8000
11032TIP3    H233042   0.737   5.574   5.641  0.7676 -1.2182  0.0597
11033TIP3   OH233043   2.995   7.387   5.632 -0.0493  0.1861  0.2253
11033TIP3    H133044   2.934   7.350   5.568 -0.9659 -0.6236  1.5398
11033TIP3    H233045   3.082   7.368   5.596 -0.5171  3.0003 -2.6033
11034TIP3   OH233046   5.673   2.962   5.540 -0.3245 -0.1287 -0.0915
11034TIP3    H133047   5.617   3.038   5.525 -1.0080 -0.5677  0.2216
11034TIP3    H233048   5.679   2.956   5.635 -0.2561 -0.4581 -0.1187
11035TIP3   OH233049   1.768   6.498   5.847 -0.2372  0.5127  0.3467
11035TIP3    H133050   1.809   6.418   5.880 -2.3403 -0.8887 -0.3521
11035TIP3    H233051   1.748   6.549   5.925 -1.2768 -0.8439  0.9795
11036TIP3   OH233052   2.010   5.121   5.452 -0.2541 -0.2842  0.5724
11036TIP3    H133053   2.090   5.163   5.420 -0.2842  0.7965  1.8598
11036TIP3    H233054   1.955   5.113   5.375  0.9445 -0.6857 -0.2589
11037TIP3   OH233055   6.783   2.476   0.098  0.2411  0.2921 -0.4432
11037TIP3    H133056   6.705   2.424   0.079 -0.6033  0.0309  3.3663
11037TIP3    H233057   6.851   2.411   0.117  0.4694  0.5531 -0.3641
11038TIP3   OH233058   8.451   3.879   3.840  0.0669  0.7612  0.2376
11038TIP3    H133059   8.367   3.925   3.838 -0.1874  0.2696 -0.6931
11038TIP3    H233060   8.478   3.875   3.749  1.7741  2.0972  0.6591
11039TIP3   OH233061   8.151   5.304   5.271 -0.2563  0.0655  0.6856
11039TIP3    H133062   8.117   5.373   5.214 -0.6968 -0.7954 -0.1094
11039TIP3    H233063   8.072   5.263   5.308 -0.0036 -0.1524  0.9884
11040TIP3   OH233064   7.796   3.857   4.159  0.5863  0.6655 -0.4131
11040TIP3    H133065   7.819   3.911   4.235 -0.1357 -1.5045  1.4375
11040TIP3    H233066   7.880   3.826   4.125  1.1085  4.2130 -2.5241
11041TIP3   OH233067   8.220   5.504   5.694 -0.4554  0.1683  0.1503
11041TIP3    H133068   8.216   5.524   5.601 -1.3925 -0.9729 -0.0568
11041TIP3    H233069   8.167   5.573   5.735  0.9606  1.3938 -0.0216
11042TIP3   OH233070   0.159   4.003   5.110 -0.0807  0.1236 -0.0236
11042TIP3    H133071   0.181   3.947   5.036 -0.2489 -1.4971  1.1100
11042TIP3    H233072   0.204   4.086   5.092  1.6525 -0.9764 -0.8844
11043TIP3   OH233073   4.277   7.263   1.277  0.0615  0.1580  0.0868
11043TIP3    H133074   4.266   7.293   1.186  0.1698 -1.4646 -0.4690
11043TIP3    H233075   4.205   7.203   1.292  1.1638 -1.1001  0.4306
11044TIP3   OH233076   1.599   4.408   5.201  0.4140  0.2514 -0.3589
11044TIP3    H133077   1.618   4.361   5.120  0.6572 -0.3934  0.0656
11044TIP3    H233078   1.512   4.375   5.227  0.9390 -0.5855  0.3706
11045TIP3   OH233079   1.325   7.122   4.510 -0.0476 -0.0304  0.1117
11045TIP3    H133080   1.281   7.163   4.585  0.1420 -1.3289  0.9495
11045TIP3    H233081   1.406   7.171   4.500 -0.3734  0.5646  0.3434
11046TIP3   OH233082   1.163   4.652   5.791  0.1675 -0.3019 -0.2308
11046TIP3    H133083   1.243   4.600   5.787 -0.1217 -0.7487 -0.2568
11046TIP3    H233084   1.095   4.594   5.755 -0.0512  0.2900 -0.7831
11047TIP3   OH233085   0.699   6.262   6.026  0.3087  0.6098 -0.8104
11047TIP3    H133086   0.733   6.206   5.956 -1.7142 -1.0179 -0.5466
11047TIP3    H233087   0.654   6.333   5.980 -0.4810 -0.1154 -1.1652
11048TIP3   OH233088   0.122   3.103   5.053 -0.0614 -0.5210 -0.2210
11048TIP3    H133089   0.189   3.152   5.101 -0.6649  0.0828  0.0251
11048TIP3    H233090   0.100   3.160   4.979 -0.9133 -0.3212  0.1763
11049TIP3   OH233091   2.652   7.808   1.281  0.0733 -0.1264  0.2276
11049TIP3    H133092   2.649   7.842   1.370 -2.8826 -1.5676  0.7553
11049TIP3    H233093   2.741   7.776   1.270  0.9287  1.5037  2.0938
11050TIP3   OH233094   0.287   0.078   0.112  0.4683  0.1462 -0.0805
11050TIP3    H133095   0.216   0.104   0.170 -0.1840 -1.6990 -0.0197
11050TIP3    H233096   0.308  -0.012   0.138  2.9164  0.7113 -0.0185
11051TIP3   OH233097   0.275   0.691   1.143  0.1335 -0.1695  0.0246
11051TIP3    H133098   0.222   0.768   1.163 -1.0466 -1.2139  1.0091
11051TIP3    H233099   0.231   0.620   1.190  1.8930 -1.2137  0.0974
11052TIP3   OH233100   8.155   0.061   0.828 -0.6077  0.2605  0.1686
11052TIP3    H133101   8.221   0.065   0.759 -0.7797  0.4180  0.0125
11052TIP3    H233102   8.107   0.143   0.820 -1.5871 -0.3589 -0.4929
11053TIP3   OH233103   7.778   4.967   5.855  0.4877  0.3616 -0.0043
11053TIP3    H133104   7.805   5.053   5.824  0.9204  0.3104  0.2229
11053TIP3    H233105   7.805   4.965   5.947  1.3878 -0.3868 -0.2769
11054TIP3   OH233106   6.576   1.711   6.866 -1.0719  0.0826  0.3067
11054TIP3    H133107   6.498   1.663   6.893 -0.3028 -1.1435  0.4321
11054TIP3    H233108   6.632   1.712   6.944 -0.3240 -0.4022 -0.2136
11055TIP3   OH233109   0.344   1.666   0.596  0.0540 -0.9028 -0.1611
11055TIP3    H133110   0.407   1.595   0.583 -1.3218 -2.5957  2.0593
11055TIP3    H233111   0.391   1.745   0.569  1.0777 -2.7588 -4.2670
11056TIP3   OH233112   5.426   0.912   2.561  0.2102  0.2836  0.5858
11056TIP3    H133113   5.396   0.857   2.488 -0.0074 -0.7558  1.4451
11056TIP3    H233114   5.509   0.872   2.588  1.7353  2.3315 -0.8884
11057TIP3   OH233115   8.407   4.153   6.889  1.1149 -0.2047 -0.1040
11057TIP3    H133116   8.314   4.171   6.877  0.9419 -1.5644 -0.9776
11057TIP3    H233117   8.451   4.207   6.824  0.6853 -1.9978 -1.9470
11058TIP3   OH233118   8.407   6.056   4.895  0.6372 -0.0442 -0.3996
11058TIP3    H133119   8.352   6.030   4.968  1.8176 -1.7927 -0.1098
11058TIP3    H233120   8.406   5.981   4.836  0.0426  1.1810 -1.9974
11059TIP3   OH233121   6.791   1.736   1.158  0.3919  0.1987 -0.3951
11059TIP3    H133122   6.719   1.799   1.166 -0.4496 -0.5930 -1.6161
11059TIP3    H233123   6.865   1.788   1.128 -0.2536  0.6410 -1.2188
11060TIP3   OH233124   1.175   2.779   0.901 -0.0159 -0.5374 -0.2352
11060TIP3    H133125   1.211   2.724   0.831 -0.1893 -0.5824 -0.2884
11060TIP3    H233126   1.131   2.851   0.855  0.0243 -0.4698 -0.1690
11061TIP3   OH233127   0.246   4.107   3.892 -0.4610  0.2165 -0.2059
11061TIP3    H133128   0.246   4.069   3.804 -1.0927 -0.8095  0.2193
11061TIP3    H233129   0.226   4.033   3.949 -2.8155  1.3663  0.5536
11062TIP3   OH233130   5.456   7.519   0.675  0.3239  0.2056 -0.1103
11062TIP3    H133131   5.435   7.538   0.766  1.0491 -0.2252  0.1522
11062TIP3    H233132   5.392   7.453   0.648 -0.4574  0.9941 -0.1890
11063TIP3   OH233133   1.508   4.752   6.732 -0.2043  0.0029  0.0407
11063TIP3    H133134   1.459   4.702   6.667  0.8388  0.1061 -0.8518
11063TIP3    H233135   1.595   4.763   6.692 -0.2926  2.1671  0.4005
11064TIP3   OH233136   8.003   1.463   1.454 -0.4022  0.5015 -0.1964
11064TIP3    H133137   8.089   1.431   1.425 -0.3744  0.1954  0.2262
11064TIP3    H233138   8.023   1.529   1.520 -0.5296 -1.4693  1.8797
11065TIP3   OH233139   1.791   5.148   6.151 -0.2779 -0.0812 -0.3563
11065TIP3    H133140   1.787   5.085   6.079 -1.2612  0.7639 -1.0538
11065TIP3    H233141   1.882   5.178   6.151  0.2891 -1.7325  0.1990
11066TIP3   OH233142   3.499   7.709   0.070 -0.1339  0.4989  0.0837
11066TIP3    H133143   3.479   7.733   0.161  2.4785  0.3837  0.7291
11066TIP3    H233144   3.525   7.792   0.029 -1.8076  0.6404 -0.7190
11067TIP3   OH233145   2.821   3.387   6.427 -0.2633 -0.2294 -0.2039
11067TIP3    H133146   2.753   3.382   6.494  0.2431  1.1878  0.4207
11067TIP3    H233147   2.780   3.350   6.349 -0.9291 -1.6925  0.8150
11068TIP3   OH233148   5.813   1.494   0.201 -0.0354  0.4829  0.2990
11068TIP3    H133149   5.803   1.476   0.108 -0.2843  0.8593  0.2529
11068TIP3    H233150   5.795   1.411   0.244 -0.5248  0.4550  0.0454
11069TIP3   OH233151   5.139   1.141   0.021  0.4252 -0.3790 -0.2231
11069TIP3    H133152   5.075   1.147   0.091  0.5576  0.7543 -0.1989
11069TIP3    H233153   5.222   1.125   0.065  0.3413 -0.7331 -0.1906
11070TIP3   OH233154   5.254   0.384   2.142  0.2797  0.4957 -0.3824
11070TIP3    H133155   5.271   0.373   2.049 -1.5263  1.1221 -0.8123
11070TIP3    H233156   5.228   0.297   2.173  2.1478 -0.0107 -0.1497
11071TIP3   OH233157   5.622   0.709   2.622 -0.0115 -0.1049 -0.5050
11071TIP3    H133158   5.637   0.614   2.628 -1.2637 -0.2313  1.1433
11071TIP3    H233159   5.709   0.746   2.604  1.0931 -1.3412  1.9393
11072TIP3   OH233160   4.426   1.662   2.299 -0.0390  0.2765 -0.6214
11072TIP3    H133161   4.409   1.624   2.386  1.7513  2.6583  0.8507
11072TIP3    H233162   4.341   1.692   2.269 -0.7149 -0.7276  0.2307
11073TIP3   OH233163   3.294   6.193   0.039  0.1898 -0.1814  0.4616
11073TIP3    H133164   3.296   6.285   0.066  0.6822  0.4282 -1.5413
11073TIP3    H233165   3.267   6.145   0.117 -0.3653  1.7021  1.4483
11074TIP3   OH233166   3.511   7.415   6.616 -0.2678  0.4318 -0.2361
11074TIP3    H133167   3.601   7.392   6.639 -0.0478  2.4827  1.0970
11074TIP3    H233168   3.466   7.331   6.606  1.8450 -0.6115 -1.1734
11075TIP3   OH233169   1.945   4.427   6.480 -0.5212 -0.0160 -0.0822
11075TIP3    H133170   2.014   4.456   6.539 -0.1872 -0.8519 -0.0524
11075TIP3    H233171   1.863   4.442   6.528 -0.2155 -1.3395  0.8877
11076TIP3   OH233172   2.193   4.953   5.192 -0.0260 -0.1895 -0.6386
11076TIP3    H133173   2.191   4.913   5.279 -0.2688 -0.5209 -0.7965
11076TIP3    H233174   2.239   4.889   5.137  1.8070  0.8466 -0.3350
11077TIP3   OH233175   0.478   4.515   6.095  0.7081  0.0648  0.2726
11077TIP3    H133176   0.461   4.460   6.018  0.6742  0.7261 -0.1915
11077TIP3    H233177   0.541   4.464   6.147  1.7880  0.2192 -0.8623
11078TIP3   OH233178   3.459   4.204   6.502 -0.0366 -0.3642  0.1595
11078TIP3    H133179   3.532   4.220   6.443  0.4191 -1.4662  0.4030
11078TIP3    H233180   3.397   4.274   6.484 -0.7541 -1.7020 -2.9916
11079TIP3   OH233181   5.982  -0.027   0.155  0.9401 -0.1832 -0.9393
11079TIP3    H133182   6.003   0.060   0.187 -1.4970  0.3595 -0.7292
11079TIP3    H233183   6.027  -0.033   0.070  0.8720  1.3881 -1.0947
11080TIP3   OH233184   1.586   6.052   5.049 -0.1506 -0.1160 -0.4185
11080TIP3    H133185   1.507   6.104   5.038 -0.9373 -1.5216 -1.5754
11080TIP3    H233186   1.586   5.992   4.974  1.0305 -1.3900  0.5784
11081TIP3   OH233187   7.040   1.224   0.729  0.0563  0.0055  0.1456
11081TIP3    H133188   7.048   1.209   0.635 -1.9326  0.7911 -0.1606
11081TIP3    H233189   6.994   1.307   0.737 -2.4908 -1.4796  1.7720
11082TIP3   OH233190   7.018   0.614   0.671 -0.1269 -0.5746  0.2611
11082TIP3    H133191   7.017   0.538   0.729  0.8254 -1.1175 -0.4230
11082TIP3    H233192   7.103   0.611   0.629 -0.6986 -0.0172 -0.9550
11083TIP3   OH233193   7.014   2.170   0.823 -0.2377 -0.2236  0.3475
11083TIP3    H133194   7.039   2.262   0.821  1.0893 -0.5772 -0.0498
11083TIP3    H233195   7.007   2.149   0.916  3.2309 -0.6865  0.5695
11084TIP3   OH233196   7.483   0.536   0.420 -0.7926 -0.1141  0.4317
11084TIP3    H133197   7.520   0.503   0.338  0.0942  0.7030  0.4897
11084TIP3    H233198   7.458   0.458   0.468  1.3475 -0.7392  0.6142
11085TIP3   OH233199   2.100   5.214   6.591  0.0045  0.4977 -0.3532
11085TIP3    H133200   2.027   5.158   6.567  0.0850  1.2653 -2.5688
11085TIP3    H233201   2.060   5.293   6.627 -0.1661 -0.0865  0.7576
11086TIP3   OH233202   3.310   4.681   5.785 -0.2578  0.2131  0.2384
11086TIP3    H133203   3.372   4.612   5.762 -0.3731 -0.8345  2.8609
11086TIP3    H233204   3.227   4.653   5.747  0.4484  0.6864 -1.6922
11087TIP3   OH233205   5.413   7.314   1.532 -0.1873 -0.6876  0.3273
11087TIP3    H133206   5.416   7.294   1.439  2.1726  1.3549 -0.0640
11087TIP3    H233207   5.480   7.258   1.571 -0.0761 -0.3799  0.5795
11088TIP3   OH233208   4.880   5.901   0.765 -0.5184 -0.1184 -0.0700
11088TIP3    H133209   4.940   5.914   0.839  1.1389  4.8917 -2.0895
11088TIP3    H233210   4.799   5.943   0.793 -0.5550 -0.0133 -0.3376
11089TIP3   OH233211   2.474   5.337   5.085  0.2531  0.0336 -0.1475
11089TIP3    H133212   2.389   5.297   5.100 -0.1956  1.1134  0.2685
11089TIP3    H233213   2.536   5.264   5.087 -0.8585 -1.0139 -2.3734
11090TIP3   OH233214   0.187   1.222   0.582 -0.2011  0.5306  0.4667
11090TIP3    H133215   0.212   1.308   0.615  0.7801  0.1259  0.7937
11090TIP3    H233216   0.110   1.238   0.528  1.0666  1.8631 -0.9799
11091TIP3   OH233217   4.895   7.114   0.853 -0.2684 -0.2466 -0.1047
11091TIP3    H133218   4.901   7.205   0.882 -1.2948 -0.4426  0.7355
11091TIP3    H233219   4.973   7.072   0.889 -0.9718 -0.2350  1.4694
11092TIP3   OH233220   7.734   0.320   1.538 -0.0552 -0.8068 -0.9070
11092TIP3    H133221   7.654   0.374   1.535  0.3289 -0.0688  0.9606
11092TIP3    H233222   7.703   0.231   1.525 -1.3130 -0.6073  0.5503
11093TIP3   OH233223   2.809   2.149   4.675 -0.1433 -0.0967  0.7135
11093TIP3    H133224   2.895   2.192   4.686 -0.2072  0.1079  0.4258
11093TIP3    H233225   2.808   2.081   4.742  0.9209 -1.1866 -0.3288
11094TIP3   OH233226   3.137   5.881   6.669  0.4779  0.1499  0.1192
11094TIP3    H133227   3.068   5.900   6.606  0.7052  2.9954  0.6520
11094TIP3    H233228   3.092   5.845   6.745 -0.2022  0.2183 -0.2536
11095TIP3   OH233229   1.154   4.518   4.611  0.2707  0.6418 -0.0951
11095TIP3    H133230   1.142   4.447   4.548  0.2282  0.7408 -0.2000
11095TIP3    H233231   1.066   4.542   4.637  0.3135  0.1832  0.4763
11096TIP3   OH233232   1.342   7.077   6.789  0.3803 -0.4337 -0.2880
11096TIP3    H133233   1.322   7.004   6.731  2.3495 -0.5114 -0.8841
11096TIP3    H233234   1.422   7.115   6.753  1.2659 -0.0773  1.9977
11097TIP3   OH233235   4.750   7.858   0.349  0.1561  0.1584  0.1412
11097TIP3    H133236   4.782   7.793   0.412  1.8257  1.6603  0.8767
11097TIP3    H233237   4.696   7.917   0.400  0.5683  0.7067 -0.0476
11098TIP3   OH233238   0.252   5.146   4.625  0.1908  0.0003  0.1337
11098TIP3    H133239   0.277   5.081   4.558 -0.5929  0.8978 -1.0520
11098TIP3    H233240   0.287   5.229   4.592 -1.3095  0.6682  0.1853
11099TIP3   OH233241   0.658   1.782   5.947  0.8378  0.6530 -0.1394
11099TIP3    H133242   0.598   1.797   6.021  1.0723 -0.6530  0.3155
11099TIP3    H233243   0.600   1.776   5.871  0.1911 -2.3495  0.5266
11100TIP3   OH233244   1.993   4.837   6.741  0.3505 -0.2370  0.2190
11100TIP3    H133245   2.001   4.873   6.829  0.2640  1.8364 -0.5745
11100TIP3    H233246   2.077   4.858   6.699  0.9101 -2.3980  0.2010
11101TIP3   OH233247   1.665   4.278   5.577  0.2050 -0.1076  0.1496
11101TIP3    H133248   1.722   4.353   5.591  1.3094 -1.0006  0.4541
11101TIP3    H233249   1.685   4.218   5.648 -1.6588 -0.1142  0.7032
11102TIP3   OH233250   3.039   4.577   0.254  0.2144 -0.2169 -0.2819
11102TIP3    H133251   3.004   4.490   0.237 -0.7753  0.4380 -1.6832
11102TIP3    H233252   2.975   4.637   0.216 -0.2967  1.2298  2.6770
11103TIP3   OH233253   2.225   7.532   0.329 -0.2439  0.3846  0.1103
11103TIP3    H133254   2.256   7.540   0.420  1.6448  0.4835 -0.5275
11103TIP3    H233255   2.198   7.621   0.305 -5.8377 -0.4750  2.2631
11104TIP3   OH233256   0.473   4.733   6.760  0.0100 -0.5711 -0.0619
11104TIP3    H133257   0.511   4.719   6.673  1.3653  0.4294  0.3754
11104TIP3    H233258   0.547   4.751   6.817 -0.9531 -0.3807  1.1519
11105TIP3   OH233259   0.865   4.848   5.732 -0.2210  0.0743  0.1851
11105TIP3    H133260   0.857   4.760   5.770  0.8845  0.0285  0.3174
11105TIP3    H233261   0.928   4.837   5.660 -0.0991  0.7579  0.1901
11106TIP3   OH233262   6.879   1.691   0.185  0.6969  0.4658 -0.1047
11106TIP3    H133263   6.933   1.655   0.115  2.0946  1.3013  0.5168
11106TIP3    H233264   6.805   1.732   0.140  0.1332 -1.3719 -0.9168
11107TIP3   OH233265   5.289   7.962   1.859  0.7915  0.5430 -0.1209
11107TIP3    H133266   5.243   7.908   1.923  1.3531  0.5442  0.2942
11107TIP3    H233267   5.220   8.009   1.812  0.4007  1.1654  1.0407
11108TIP3   OH233268   6.102   0.246   0.978  0.3819  0.0216  0.4310
11108TIP3    H133269   6.053   0.326   1.000  1.3408  0.3287  1.4783
11108TIP3    H233270   6.072   0.182   1.042  1.8373  0.4036  1.5224
11109TIP3   OH233271   7.036   2.415   0.601  0.1546  0.1044 -0.1840
11109TIP3    H133272   6.961   2.474   0.606  0.3430  0.3123  0.2135
11109TIP3    H233273   7.008   2.345   0.541 -1.1001 -0.9044  1.5517
11110TIP3   OH233274   6.342   1.142   0.714  0.0905 -0.2821  0.5059
11110TIP3    H133275   6.374   1.061   0.676  0.8445 -0.6405  1.8522
11110TIP3    H233276   6.421   1.196   0.726 -0.6742  1.6934 -2.7074
11111TIP3   OH233277   0.435   4.259   6.755  0.3992 -0.1596 -0.8245
11111TIP3    H133278   0.495   4.270   6.828  0.3325  0.6220 -0.8742
11111TIP3    H233279   0.406   4.348   6.734 -1.2476 -0.5738 -0.3950
11112TIP3   OH233280   7.056   0.071   0.272 -0.7160 -0.0967  0.2903
11112TIP3    H133281   7.045  -0.001   0.209 -0.9189  1.8875 -2.0288
11112TIP3    H233282   6.972   0.077   0.316 -1.0172 -0.6694 -0.1920
11113TIP3   OH233283   7.310   1.329   0.682 -0.6846 -0.5229 -0.3261
11113TIP3    H133284   7.243   1.270   0.646 -0.4603 -0.5321 -0.7326
11113TIP3    H233285   7.393   1.295   0.648 -0.3886 -1.0015  0.8456
11114TIP3   OH233286   2.421   7.108   0.605  0.1466 -0.3988  0.3916
11114TIP3    H133287   2.372   7.028   0.625  0.5745 -1.0631 -1.0997
11114TIP3    H233288   2.425   7.156   0.687 -0.3838 -1.7818  1.2326
11115TIP3   OH233289   1.668   3.065   6.733 -0.0882  0.6290 -0.4988
11115TIP3    H133290   1.753   3.025   6.715  0.2998  0.2961  1.8469
11115TIP3    H233291   1.657   3.130   6.664  2.4605  1.2344 -0.3995
11116TIP3   OH233292   1.280   2.462   5.771 -0.2430  0.3905 -0.2535
11116TIP3    H133293   1.336   2.514   5.828  0.3597 -2.4399  1.8672
11116TIP3    H233294   1.340   2.421   5.708 -0.2458 -0.5413  0.3402
11117TIP3   OH233295   3.621   6.238   1.408  0.4668  0.4793 -0.1985
11117TIP3    H133296   3.566   6.310   1.378 -0.6726 -1.1607 -2.1197
11117TIP3    H233297   3.594   6.224   1.499 -1.7717  0.1760 -0.8921
11118TIP3   OH233298   0.728   2.541   5.244 -0.0786 -0.8077  0.0751
11118TIP3    H133299   0.668   2.479   5.286  0.0157 -0.1760  1.1696
11118TIP3    H233300   0.739   2.611   5.309 -1.5332  1.2223 -1.8067
11119TIP3   OH233301   5.630   0.493   0.260 -0.2377  0.2206  0.0688
11119TIP3    H133302   5.557   0.432   0.263 -0.3144  0.2919 -0.2788
11119TIP3    H233303   5.630   0.526   0.170  0.8241 -0.5293 -0.2192
11120TIP3   OH233304   2.200   3.884   5.494  0.3436 -0.0532  0.0039
11120TIP3    H133305   2.292   3.856   5.495  0.6253  0.7458 -2.2534
11120TIP3    H233306   2.163   3.844   5.573  2.5857 -0.5045  0.8705
11121TIP3   OH233307   3.171   5.499   5.364 -0.1953  0.3130  0.1699
11121TIP3    H133308   3.264   5.518   5.378 -0.2217 -0.9554  2.2283
11121TIP3    H233309   3.163   5.489   5.269  1.4766  1.8612 -0.1772
11122TIP3   OH233310   3.123   3.152   6.714  0.0068 -0.1307  0.3547
11122TIP3    H133311   3.081   3.237   6.702  0.8830 -0.1031 -2.9232
11122TIP3    H233312   3.074   3.092   6.658  2.9559 -0.5123 -1.9613
11123TIP3   OH233313   0.898   2.040   6.566 -0.0164  0.0420 -0.1188
11123TIP3    H133314   0.885   2.032   6.471  0.9232 -1.4064 -0.1399
11123TIP3    H233315   0.842   2.113   6.592 -0.4654  0.2971 -1.7534
11124TIP3   OH233316   1.625   6.043   6.293  0.1985 -0.4899 -0.1821
11124TIP3    H133317   1.554   5.993   6.334 -1.1507 -0.2666 -2.1671
11124TIP3    H233318   1.705   5.997   6.318 -0.6865 -1.1249  1.5679
11125TIP3   OH233319   2.214   1.507   1.720 -0.5986  0.2716  0.3257
11125TIP3    H133320   2.285   1.450   1.691 -0.8338 -0.8440  1.8579
11125TIP3    H233321   2.242   1.595   1.695  1.0110 -0.2207  0.3126
11126TIP3   OH233322   5.484   5.432   0.696 -0.3346  0.4134  0.2631
11126TIP3    H133323   5.554   5.479   0.652  1.5708 -2.6446 -0.0677
11126TIP3    H233324   5.525   5.392   0.773 -1.9959 -0.3664  0.7804
11127TIP3   OH233325   6.269   0.039   0.261 -0.1293 -0.1030 -0.0360
11127TIP3    H133326   6.251  -0.043   0.308  0.1906  0.2589  0.7127
11127TIP3    H233327   6.259   0.108   0.326  0.5661  0.3861 -0.4400
11128TIP3   OH233328   1.951   4.148   4.911  0.2480 -0.0999  0.2226
11128TIP3    H133329   2.038   4.108   4.906  0.7521  1.0229 -0.1747
11128TIP3    H233330   1.965   4.229   4.959 -0.8266 -0.5395  1.3095
11129TIP3   OH233331   3.227   5.062   3.471 -0.0417  0.1280 -0.2024
11129TIP3    H133332   3.272   4.991   3.516  0.2149  0.7664  0.5695
11129TIP3    H233333   3.284   5.085   3.398  0.0609 -0.2046 -0.2240
11130TIP3   OH233334   1.247   5.111   5.472  0.6451  0.6066 -0.0935
11130TIP3    H133335   1.259   5.205   5.480  0.0052  0.6123  0.9271
11130TIP3    H233336   1.281   5.089   5.385 -0.2184  1.9459 -0.7811
11131TIP3   OH233337   0.774   1.200   0.108  0.1003  0.2757  0.8260
11131TIP3    H133338   0.717   1.218   0.183 -0.1758 -0.8883  0.9152
11131TIP3    H233339   0.823   1.281   0.094 -1.2374  1.1296  1.0482
11132TIP3   OH233340   1.196   4.008   6.735  0.0238 -0.1487 -0.1037
11132TIP3    H133341   1.203   4.103   6.724 -1.4416 -0.0979 -0.7256
11132TIP3    H233342   1.276   3.974   6.695 -0.4949  0.6989 -1.9241
11133TIP3   OH233343   2.362   2.026   5.940  0.1625  0.0298  0.5346
11133TIP3    H133344   2.327   1.980   5.864  0.2902  0.0752  0.4476
11133TIP3    H233345   2.455   2.002   5.942  0.1431 -0.0321  0.7213
11134TIP3   OH233346   2.805   6.004   6.056  0.6789  0.5008  0.0780
11134TIP3    H133347   2.790   5.999   5.961 -0.9984  0.9576  0.3058
11134TIP3    H233348   2.763   6.086   6.082  0.6110  0.0730  1.3138
11135TIP3   OH233349   1.581   4.786   5.362 -0.2716  0.1816  0.0747
11135TIP3    H133350   1.576   4.846   5.436 -1.6254 -1.8002  1.6459
11135TIP3    H233351   1.493   4.785   5.326 -0.0782 -0.3219 -0.3929
11136TIP3   OH233352   2.602   5.916   4.867  0.0118  0.5546  0.0173
11136TIP3    H133353   2.567   5.974   4.934 -0.1697 -1.0790  1.3878
11136TIP3    H233354   2.652   5.850   4.916  1.9102  0.7061 -1.6215
11137TIP3   OH233355   5.356   3.876   5.924  0.3603 -0.2756 -0.2566
11137TIP3    H133356   5.281   3.856   5.868  0.4714 -0.0389 -0.4862
11137TIP3    H233357   5.317   3.920   6.001  0.1372 -1.1936  0.1609
11138TIP3   OH233358   4.802   3.327   4.864 -0.2125 -0.0919  0.1753
11138TIP3    H133359   4.746   3.349   4.789 -1.9826 -2.0378  0.8817
11138TIP3    H233360   4.774   3.387   4.933 -1.6695 -1.2707  0.6221
11139TIP3   OH233361   3.232   2.605   6.196 -0.1935  0.4283 -0.0055
11139TIP3    H133362   3.259   2.687   6.156  1.6365  0.1042  0.5296
11139TIP3    H233363   3.308   2.547   6.188 -1.2345 -1.0072  0.1979
11140TIP3   OH233364   4.748   4.908   5.311 -0.2700  0.5699 -0.2088
11140TIP3    H133365   4.808   4.860   5.369  1.1029  1.7065 -0.6412
11140TIP3    H233366   4.661   4.877   5.336  0.3920 -0.0730  1.4249
11141TIP3   OH233367   1.911   4.719   5.941 -0.3749 -0.2277  0.1544
11141TIP3    H133368   1.978   4.723   6.009 -0.1266 -2.4707  0.0809
11141TIP3    H233369   1.960   4.706   5.860 -0.6827  2.2441 -0.4687
11142TIP3   OH233370   3.084   4.584   6.848  0.8115 -0.3142 -0.2765
11142TIP3    H133371   3.170   4.592   6.889  0.4695  0.8560  0.2278
11142TIP3    H233372   3.098   4.616   6.759  0.8179  0.2495 -0.0767
11143TIP3   OH233373   4.404   3.387   6.522  0.2153  0.3304 -0.3503
11143TIP3    H133374   4.467   3.386   6.594  0.4369  2.8240 -0.4722
11143TIP3    H233375   4.331   3.333   6.553 -0.3411  2.5286  2.4001
11144TIP3   OH233376   3.609   7.612   1.683 -0.4814  0.3928  0.5632
11144TIP3    H133377   3.606   7.689   1.625  0.1682  0.9345  1.2355
11144TIP3    H233378   3.679   7.632   1.746 -0.1888 -0.8285  0.6402
11145TIP3   OH233379   4.205   7.169   4.592  0.0914  0.2464  0.2896
11145TIP3    H133380   4.193   7.091   4.539  3.2806 -1.7865  2.3624
11145TIP3    H233381   4.118   7.188   4.628 -0.9585 -1.6076 -1.2119
11146TIP3   OH233382   2.535   3.700   6.376  0.1643  0.3357  0.1333
11146TIP3    H133383   2.483   3.638   6.325 -0.4549  1.9514 -1.2297
11146TIP3    H233384   2.532   3.665   6.465 -1.5634 -0.7113 -0.3004
11147TIP3   OH233385   4.166   2.936   6.518 -0.4204  0.0948  0.1235
11147TIP3    H133386   4.242   2.973   6.563 -1.3801  2.6219 -0.2860
11147TIP3    H233387   4.103   2.919   6.589 -0.6198  0.8137  0.1154
11148TIP3   OH233388   3.392   5.709   5.094 -0.5636 -0.2329  0.4437
11148TIP3    H133389   3.382   5.620   5.060 -1.5136  0.3959 -0.9836
11148TIP3    H233390   3.303   5.744   5.096 -0.1812  0.7189  0.8754
11149TIP3   OH233391   0.674   0.667   1.296 -0.4622  0.5067  0.4623
11149TIP3    H133392   0.746   0.723   1.325 -0.0611  0.9058 -1.2567
11149TIP3    H233393   0.609   0.729   1.262 -0.6342  0.0120 -0.1105
11150TIP3   OH233394   0.651   2.252   5.983  0.3664  0.2031  0.0134
11150TIP3    H133395   0.734   2.239   6.028  1.0166  1.7919 -0.6785
11150TIP3    H233396   0.647   2.182   5.918  1.9397  1.0360 -1.0283
11151TIP3   OH233397   4.798   5.650   5.052  0.0471  0.3956 -0.9244
11151TIP3    H133398   4.803   5.557   5.074  0.8664  0.6792  0.1574
11151TIP3    H233399   4.886   5.672   5.022 -0.7084  0.3367 -3.2213
11152TIP3   OH233400   5.097   1.497   5.011 -0.3085 -0.1539 -0.3075
11152TIP3    H133401   5.170   1.448   4.973  0.2161  1.4572 -1.4475
11152TIP3    H233402   5.104   1.482   5.105  0.5056 -1.3232 -0.5387
11153TIP3   OH233403   5.759   7.846   0.157 -0.0698  0.1423 -0.1690
11153TIP3    H133404   5.802   7.848   0.071  0.5482  0.9464  0.1513
11153TIP3    H233405   5.830   7.830   0.219 -0.4654 -0.1162  0.2221
11154TIP3   OH233406   1.911   6.762   5.742 -0.3368  0.1142  0.4186
11154TIP3    H133407   1.905   6.742   5.649 -1.8459 -0.0930  0.5561
11154TIP3    H233408   1.922   6.677   5.785 -0.2949  0.1537  0.4878
11155TIP3   OH233409   5.013   5.721   5.361  0.3701  0.7064  0.2174
11155TIP3    H133410   4.946   5.656   5.340 -0.4285  2.4361 -2.8062
11155TIP3    H233411   4.982   5.764   5.441 -0.6212 -0.5168  0.4998
11156TIP3   OH233412   3.309   5.449   5.639  0.4990  0.0031  0.0819
11156TIP3    H133413   3.355   5.415   5.562  2.0311  0.4549  0.7860
11156TIP3    H233414   3.315   5.544   5.630  0.0979  0.0623  0.4286
11157TIP3   OH233415   8.203   1.340   1.315 -0.3527 -0.4506 -0.4113
11157TIP3    H133416   8.212   1.253   1.353  0.7169 -0.5953 -0.9657
11157TIP3    H233417   8.244   1.333   1.229 -0.2104  0.6086 -0.4370
11158TIP3   OH233418   0.940   4.097   6.057  0.0706  0.6352 -0.4250
11158TIP3    H133419   0.887   4.037   6.110 -0.5462  0.9314 -0.7063
11158TIP3    H233420   0.876   4.151   6.011  0.6377  2.0182  0.3891
11159TIP3   OH233421   6.560   4.026   6.336 -0.0327  0.0724 -0.2385
11159TIP3    H133422   6.554   3.982   6.421 -1.2765  2.4848  0.9680
11159TIP3    H233423   6.476   4.007   6.294 -0.0338  0.1788 -0.2821
11160TIP3   OH233424   4.074   3.966   5.735  0.8305 -0.0143  0.1033
11160TIP3    H133425   4.046   4.034   5.673 -1.8825  0.4331  1.7458
11160TIP3    H233426   4.138   4.010   5.791  2.0353  0.0466 -1.2785
11161TIP3   OH233427   8.133   0.605   0.434  0.2604  0.8175 -0.5021
11161TIP3    H133428   8.106   0.693   0.460  0.6503  0.0697  2.5650
11161TIP3    H233429   8.058   0.549   0.456  1.2058 -0.0742  0.4880
11162TIP3   OH233430   2.705   4.575   6.251 -0.5662  0.8376  0.1042
11162TIP3    H133431   2.755   4.626   6.188  1.0070 -0.6290  0.1361
11162TIP3    H233432   2.770   4.522   6.297 -2.0490 -0.5037  0.7228
11163TIP3   OH233433   0.576   4.066   6.095 -0.2583 -0.7564  0.4944
11163TIP3    H133434   0.598   4.039   6.006  1.4831  0.9715  0.3641
11163TIP3    H233435   0.536   4.152   6.085 -0.2090 -0.6288  1.3613
11164TIP3   OH233436   0.226   2.319   1.062  0.1379 -0.3789 -0.3060
11164TIP3    H133437   0.260   2.281   1.143  3.3058  1.4549 -0.6997
11164TIP3    H233438   0.158   2.380   1.090 -0.0518 -1.0990  0.8289
11165TIP3   OH233439   1.847   4.418   5.959  0.0215  0.5514 -0.1463
11165TIP3    H133440   1.831   4.505   5.995 -0.8609  0.4513 -0.2925
11165TIP3    H233441   1.943   4.409   5.961  0.0596  1.0319  1.0224
11166TIP3   OH233442   2.905   3.984   6.126  0.2923 -0.6035  0.7826
11166TIP3    H133443   2.908   3.888   6.129  0.6063 -0.6221 -0.2424
11166TIP3    H233444   2.883   4.005   6.035  0.4818  0.3087  0.9437
11167TIP3   OH233445   0.646   0.231   0.488 -0.7572  0.4057 -0.6148
11167TIP3    H133446   0.573   0.277   0.529 -1.0634 -0.8327  0.2317
11167TIP3    H233447   0.719   0.245   0.548 -1.5238 -2.5056  1.0580
11168TIP3   OH233448   1.979   4.714   5.115  0.3473 -0.0161  0.1699
11168TIP3    H133449   2.073   4.724   5.126  0.2535  1.8860 -0.5980
11168TIP3    H233450   1.940   4.773   5.179 -0.2950  0.6363 -0.8069
11169TIP3   OH233451   4.519   4.384   5.519 -0.3362  0.4130 -0.0591
11169TIP3    H133452   4.430   4.413   5.500  0.0030  0.0255 -2.3448
11169TIP3    H233453   4.575   4.441   5.465  0.6458 -0.8810 -0.4322
11170TIP3   OH233454   2.245   5.419   6.182 -0.0625  0.0020  0.0003
11170TIP3    H133455   2.322   5.446   6.132 -0.9230 -1.1442 -1.9862
11170TIP3    H233456   2.189   5.496   6.184  0.0044  0.0719 -0.7475
11171TIP3   OH233457   5.034   1.558   4.286  0.9038 -0.4054 -0.3352
11171TIP3    H133458   5.040   1.654   4.291  0.2121 -0.3195 -1.2109
11171TIP3    H233459   5.091   1.535   4.213  2.6373 -0.8335  1.1140
11172TIP3   OH233460   2.540   3.755   6.855  0.2094  0.2794 -0.2698
11172TIP3    H133461   2.616   3.803   6.888  0.7223 -0.6190 -0.1322
11172TIP3    H233462   2.517   3.694   6.925  1.0041 -1.2966 -1.3326
11173TIP3   OH233463   3.301   5.925   5.480 -0.0550  0.4849 -0.2213
11173TIP3    H133464   3.235   5.971   5.429 -1.3811 -3.3314 -2.1550
11173TIP3    H233465   3.257   5.902   5.562  0.2700  1.6651  0.2935
11174TIP3   OH233466   1.609   3.281   6.530 -0.0947 -0.0797  0.1643
11174TIP3    H133467   1.580   3.316   6.446 -1.3058 -0.7705  0.2736
11174TIP3    H233468   1.686   3.332   6.553 -0.7149  1.2002 -0.5872
11175TIP3   OH233469   2.953   3.810   5.729  0.2963  0.1691 -0.0547
11175TIP3    H133470   2.943   3.723   5.768  0.8800 -0.1451 -0.5975
11175TIP3    H233471   3.027   3.849   5.777  0.9963 -0.2068 -0.8191
11176TIP3   OH233472   8.070   2.012   0.410 -0.5004 -0.2379  0.5869
11176TIP3    H133473   8.005   2.074   0.377  2.0118  1.5810 -1.1009
11176TIP3    H233474   8.110   2.056   0.485  1.0188  0.0507 -0.3755
11177TIP3   OH233475   4.360   4.246   6.096  0.1184 -0.0305 -0.4204
11177TIP3    H133476   4.383   4.205   6.179 -2.1885  0.8933  0.7272
11177TIP3    H233477   4.389   4.337   6.105 -1.6730  0.5140  0.0851
11178TIP3   OH233478   1.563   6.495   4.141 -0.1579 -0.3593  0.3299
11178TIP3    H133479   1.494   6.562   4.141 -0.2398 -0.4337 -0.7505
11178TIP3    H233480   1.644   6.543   4.131 -0.0931 -0.3024  1.1549
11179TIP3   OH233481   1.689   5.188   6.697 -0.2029  0.1057 -0.3780
11179TIP3    H133482   1.601   5.151   6.683 -0.4293  1.4889 -3.0502
11179TIP3    H233483   1.746   5.134   6.642  0.4011  0.0498  0.3063
11180TIP3   OH233484   3.123   5.331   5.832 -0.0910 -0.2490  0.4673
11180TIP3    H133485   3.032   5.359   5.834  0.7250  2.6660 -0.5966
11180TIP3    H233486   3.156   5.363   5.748  1.1757 -3.7738 -0.4874
11181TIP3   OH233487   7.522   3.043   0.257 -0.5432  0.3480  0.2283
11181TIP3    H133488   7.450   3.106   0.260 -0.5103  0.3300  1.5231
11181TIP3    H233489   7.601   3.096   0.270 -0.4162  0.2169 -0.0113
11182TIP3   OH233490   3.893   5.133   5.321 -0.1860  0.1623 -0.4844
11182TIP3    H133491   3.829   5.087   5.375 -0.2898  0.3579 -0.4400
11182TIP3    H233492   3.978   5.102   5.352 -0.1995  1.2768  0.6940
11183TIP3   OH233493   5.511   7.715   0.468  0.1402 -0.2418  0.1000
11183TIP3    H133494   5.556   7.682   0.390  0.1583 -0.8231  0.3535
11183TIP3    H233495   5.518   7.645   0.532  0.8071  0.5499  0.9053
11184TIP3   OH233496   2.768   4.875   6.712  0.1666  0.0256 -0.2311
11184TIP3    H133497   2.726   4.902   6.793  1.5500  0.0383  0.5053
11184TIP3    H233498   2.759   4.780   6.711 -1.5012  0.1752 -1.0128
11185TIP3   OH233499   5.914   5.853   1.587  0.1186 -0.2587  0.8491
11185TIP3    H133500   5.968   5.881   1.514 -0.5003 -0.2586  0.3846
11185TIP3    H233501   5.838   5.812   1.546 -0.4532  0.1555  1.4791
11186TIP3   OH233502   2.351   4.659   5.873 -0.4350 -0.3534  0.6055
11186TIP3    H133503   2.407   4.656   5.951  2.0081 -2.2537 -1.1107
11186TIP3    H233504   2.389   4.727   5.818 -0.1129 -1.2609 -0.3241
11187TIP3   OH233505   2.743   3.983   4.209 -0.2329  0.5819  0.1774
11187TIP3    H133506   2.722   4.067   4.168  0.5457  0.8151  0.2459
11187TIP3    H233507   2.658   3.940   4.220 -0.4375  0.4706 -1.7505
11188TIP3   OH233508   2.388   3.868   5.984 -0.7701  0.0459 -0.4346
11188TIP3    H133509   2.434   3.897   6.063 -1.1559  1.5142 -0.7272
11188TIP3    H233510   2.418   3.778   5.970  1.5366  0.7700 -0.2748
11189TIP3   OH233511   3.803   3.940   6.086  0.0202  0.4351  0.1305
11189TIP3    H133512   3.820   3.963   6.178 -0.1256 -0.4945  0.4021
11189TIP3    H233513   3.711   3.964   6.072 -0.5410 -1.2211  0.8231
11190TIP3   OH233514   2.245   4.295   5.002  0.0999 -0.4952  0.4418
11190TIP3    H133515   2.235   4.202   4.981  0.1381 -0.2688 -0.6085
11190TIP3    H233516   2.157   4.323   5.027 -0.4416 -0.2691 -1.5644
11191TIP3   OH233517   1.698   4.058   4.361  0.0416  0.2025 -0.4695
11191TIP3    H133518   1.758   3.986   4.344 -1.9289 -1.8288  0.9305
11191TIP3    H233519   1.751   4.123   4.406  1.3862 -1.2030  0.0164
11192TIP3   OH233520   0.110   0.445   0.111  0.6395 -0.4749 -0.0247
11192TIP3    H133521   0.147   0.476   0.028  1.0798 -0.0540  0.3266
11192TIP3    H233522   0.017   0.469   0.106  0.7279 -0.1702 -0.2608
11193TIP3   OH233523   5.022   5.867   6.426  0.4529  0.3764  0.1221
11193TIP3    H133524   4.974   5.848   6.506  0.8930  1.2214  0.5938
11193TIP3    H233525   5.107   5.824   6.438  0.8441  1.2419  0.4923
11194TIP3   OH233526   6.107   7.808   0.753 -0.3927 -0.4959 -0.0946
11194TIP3    H133527   6.116   7.741   0.685  0.5847 -1.1362  0.6419
11194TIP3    H233528   6.029   7.858   0.728 -0.9674 -1.7294 -0.8185
11195TIP3   OH233529   2.834   3.756   4.842 -0.0726 -0.3169  0.0221
11195TIP3    H133530   2.840   3.786   4.932  1.2551 -0.3916 -0.0421
11195TIP3    H233531   2.804   3.832   4.793 -1.7615 -0.5391  0.6645
11196TIP3   OH233532   3.922   3.130   5.832  0.4157 -0.1087  0.1316
11196TIP3    H133533   4.005   3.174   5.816 -0.0645  0.2716 -1.4599
11196TIP3    H233534   3.889   3.108   5.744  0.1456 -2.7135  0.8265
11197TIP3   OH233535   2.315   2.853   3.759  0.5662 -0.2966 -0.3822
11197TIP3    H133536   2.287   2.785   3.697  1.2972 -2.7272  1.8712
11197TIP3    H233537   2.395   2.819   3.798  0.2673  1.2872  1.7193
11198TIP3   OH233538   3.336   5.105   5.874 -0.1071 -0.8653 -0.1921
11198TIP3    H133539   3.260   5.161   5.882 -0.0277 -0.7112 -0.5116
11198TIP3    H233540   3.334   5.074   5.783  0.5216 -0.4090 -0.3637
11199TIP3   OH233541   4.099   5.484   6.800 -0.4453  0.1009  0.2375
11199TIP3    H133542   4.140   5.535   6.870 -0.4730 -0.1561  0.4433
11199TIP3    H233543   4.163   5.486   6.729 -1.1071  1.7396 -0.3372
11200TIP3   OH233544   4.878   6.212   1.163 -0.0380  0.1960 -0.7013
11200TIP3    H133545   4.894   6.306   1.177  0.5731  0.3200 -2.1336
11200TIP3    H233546   4.964   6.171   1.173 -0.5524 -0.4348  1.4434
11201TIP3   OH233547   2.926   3.252   5.465  0.1999  0.3373 -0.0515
11201TIP3    H133548   3.018   3.273   5.476  0.4881 -0.9876  0.2117
11201TIP3    H233549   2.896   3.230   5.554 -0.0599 -0.4034 -0.3175
11202TIP3   OH233550   2.758   2.033   5.664 -0.4815  0.1458  0.6776
11202TIP3    H133551   2.668   2.006   5.646 -0.0580 -0.1869 -1.0310
11202TIP3    H233552   2.751   2.121   5.701 -1.4827  0.2802  0.1727
11203TIP3   OH233553   0.720   3.398   6.599 -0.0551  0.2605  0.7815
11203TIP3    H133554   0.698   3.460   6.668 -0.3268 -0.2124  1.1232
11203TIP3    H233555   0.726   3.452   6.520 -2.5521  0.4216  0.6525
11204TIP3   OH233556   5.104   4.905   5.740  0.3799  0.6332  0.3011
11204TIP3    H133557   5.090   4.863   5.825 -1.3035 -2.3110 -1.3315
11204TIP3    H233558   5.019   4.942   5.717  0.4752  0.2518 -0.6914
11205TIP3   OH233559   0.632   3.339   0.464  0.0719  0.8300 -0.2792
11205TIP3    H133560   0.588   3.264   0.424 -0.1628  1.3347 -0.9815
11205TIP3    H233561   0.621   3.409   0.400  1.2049  1.1779 -0.0935
11206TIP3   OH233562   1.450   2.997   5.824 -0.3150  0.0911 -0.3415
11206TIP3    H133563   1.478   2.958   5.907  1.3057  1.7670 -0.0745
11206TIP3    H233564   1.531   3.021   5.780 -1.1685 -0.5075 -2.3020
11207TIP3   OH233565   3.629   7.922   6.869 -0.3465 -0.1887 -0.2033
11207TIP3    H133566   3.632   7.833   6.834 -0.1773  0.6127 -2.3100
11207TIP3    H233567   3.714   7.933   6.913 -0.1559 -0.8957 -0.3917
11208TIP3   OH233568   4.513   3.880   6.665 -0.4511  0.0468  0.3015
11208TIP3    H133569   4.484   3.806   6.612  0.1861 -2.1004  2.7916
11208TIP3    H233570   4.436   3.903   6.718  0.1394 -0.7365  1.5388
11209TIP3   OH233571   3.976   4.355   6.822  0.2286 -0.5542  0.5577
11209TIP3    H133572   3.960   4.409   6.745  1.5000  0.4553  0.9717
11209TIP3    H233573   3.904   4.376   6.881 -0.0462 -0.3561  0.1589
11210TIP3   OH233574   7.171   2.637   0.229  0.1564 -0.4700 -0.2158
11210TIP3    H133575   7.217   2.715   0.196 -1.0569  1.0962  1.6983
11210TIP3    H233576   7.100   2.623   0.167 -1.2104  1.5664  0.8188
11211TIP3   OH233577   0.937   6.899   4.551  0.3277  0.3681 -0.2971
11211TIP3    H133578   0.927   6.805   4.557 -2.3594  0.7673  1.9928
11211TIP3    H233579   0.991   6.923   4.626  0.7716  0.7057 -0.7139
11212TIP3   OH233580   7.755   0.774   0.847 -0.6703  0.7222  0.0430
11212TIP3    H133581   7.745   0.764   0.941  2.2177  2.9080  0.6251
11212TIP3    H233582   7.741   0.867   0.831 -0.2376  0.5261 -1.5749
11213TIP3   OH233583   3.371   4.751   6.500  0.0909 -0.3743 -0.2705
11213TIP3    H133584   3.394   4.844   6.505 -0.4512 -0.2189 -0.6675
11213TIP3    H233585   3.400   4.724   6.413  0.1109 -0.5451 -0.2116
11214TIP3   OH233586   2.206   5.298   5.396  0.0505 -0.2962 -0.4341
11214TIP3    H133587   2.226   5.307   5.303 -0.6365 -1.2347 -0.6888
11214TIP3    H233588   2.250   5.372   5.438 -0.8808  0.9910 -1.6854
11215TIP3   OH233589   1.215   1.528   1.543 -0.0517  0.2395 -0.0226
11215TIP3    H133590   1.199   1.605   1.487  2.2208  0.5954 -0.2251
11215TIP3    H233591   1.223   1.455   1.481  0.2988  0.2704 -0.0155
11216TIP3   OH233592   2.078   1.793   1.086  0.1803 -0.1135  0.0814
11216TIP3    H133593   2.047   1.781   0.996  0.4147 -1.1861  0.1397
11216TIP3    H233594   2.001   1.824   1.134  0.0459  0.4389 -0.4777
11217TIP3   OH233595   2.450   5.428   5.632  0.0985 -0.4631  0.6690
11217TIP3    H133596   2.475   5.350   5.581  0.6904 -1.0450  1.8241
11217TIP3    H233597   2.400   5.393   5.706  1.5353  0.1108  1.9450
11218TIP3   OH233598   4.366   6.567   4.470  0.2819 -0.5371  0.2952
11218TIP3    H133599   4.432   6.614   4.420 -0.3903  1.5596  1.3483
11218TIP3    H233600   4.328   6.505   4.407  0.5173  0.9731 -1.3679
11219TIP3   OH233601   5.101   5.514   5.191  0.1874  0.3261 -0.6915
11219TIP3    H133602   5.072   5.604   5.207  2.4786  1.1149 -0.7710
11219TIP3    H233603   5.192   5.513   5.219 -0.1579 -2.3182  0.4372
11220TIP3   OH233604   2.685   4.758   5.324  0.2476  0.1843 -0.2007
11220TIP3    H133605   2.684   4.675   5.372 -0.3980  0.8224  0.9123
11220TIP3    H233606   2.640   4.740   5.242 -0.5470 -0.3810  0.3581
11221TIP3   OH233607   2.798   3.550   6.896  0.3322 -0.6224  0.0409
11221TIP3    H133608   2.751   3.511   6.822  0.4051  2.3240 -1.6360
11221TIP3    H233609   2.862   3.608   6.855  1.2865  0.0292  2.4173
11222TIP3   OH233610   0.426   5.436   5.280  0.3747 -0.1209 -0.3331
11222TIP3    H133611   0.481   5.496   5.329  0.5335  1.5628 -2.4661
11222TIP3    H233612   0.487   5.371   5.245  0.4421 -0.5469  0.5680
11223TIP3   OH233613   4.790   7.688   0.563  0.4752 -0.1245 -0.7644
11223TIP3    H133614   4.705   7.687   0.607  0.6695 -1.9235 -0.3760
11223TIP3    H233615   4.840   7.755   0.609 -0.4020  0.2684 -0.3602
11224TIP3   OH233616   3.592   7.228   5.649 -0.0433 -0.1037  0.4313
11224TIP3    H133617   3.580   7.249   5.557 -1.1240 -0.6643  0.4443
11224TIP3    H233618   3.526   7.279   5.695  0.6039  0.3063  0.9170
11225TIP3   OH233619   2.619   5.942   6.873 -0.1308 -0.0184 -0.1146
11225TIP3    H133620   2.614   5.847   6.876 -2.8686  0.0107 -2.2837
11225TIP3    H233621   2.626   5.969   6.965  0.9507 -2.2915  0.4891
11226TIP3   OH233622   2.286   5.866   4.714  0.2940 -0.3920  0.3060
11226TIP3    H133623   2.225   5.797   4.688  0.7063 -1.4629  2.1010
11226TIP3    H233624   2.240   5.947   4.693 -0.7737 -1.1819 -0.5337
11227TIP3   OH233625   2.717   3.698   5.387 -0.3467 -0.0386  0.2394
11227TIP3    H133626   2.741   3.725   5.298 -0.1549  0.7423  0.5249
11227TIP3    H233627   2.729   3.603   5.387 -0.0198 -0.0014 -0.4718
11228TIP3   OH233628   1.975   1.633   0.198 -0.0227  0.6308  0.5399
11228TIP3    H133629   2.052   1.590   0.163 -0.3948  0.5496 -0.1918
11228TIP3    H233630   1.947   1.578   0.272  0.2131  0.2865  0.3718
11229TIP3   OH233631   2.531   4.663   4.661 -0.0529  0.0097  0.2638
11229TIP3    H133632   2.510   4.574   4.631  0.7608  0.0444 -0.4464
11229TIP3    H233633   2.574   4.651   4.745 -1.2832 -0.1718  0.8739
11230TIP3   OH233634   7.370   1.424   0.264 -0.5064 -0.0131 -0.9487
11230TIP3    H133635   7.394   1.334   0.286  1.2096  0.4987 -0.6882
11230TIP3    H233636   7.297   1.414   0.202 -0.0688 -1.5924 -1.2500
11231TIP3   OH233637   3.476   4.472   5.780  0.6102 -0.1110  0.3639
11231TIP3    H133638   3.563   4.512   5.771  0.5901 -0.3095 -0.7751
11231TIP3    H233639   3.475   4.403   5.714  0.5308 -1.7976  2.0850
11232TIP3   OH233640   3.053   5.414   6.479 -0.1908 -0.0191  0.2930
11232TIP3    H133641   3.129   5.458   6.518  0.1235 -0.7176  0.4830
11232TIP3    H233642   2.978   5.447   6.528  0.1849 -0.7806  1.4223
11233TIP3   OH233643   2.148   5.187   4.743  0.0540 -0.3003 -0.3786
11233TIP3    H133644   2.126   5.207   4.652 -1.3856  2.5992  0.5303
11233TIP3    H233645   2.063   5.179   4.787  0.7494  0.5033  1.1431
11234TIP3   OH233646   1.228   2.978   5.679 -0.5661 -0.9470 -0.7347
11234TIP3    H133647   1.242   2.898   5.629  0.4364 -1.4486  0.3291
11234TIP3    H233648   1.304   2.984   5.737 -0.3871  1.0036 -1.1070
11235TIP3   OH233649   0.864   5.168   6.163 -0.2047 -0.0775 -0.6981
11235TIP3    H133650   0.857   5.234   6.093  2.4315 -0.2708 -1.1765
11235TIP3    H233651   0.880   5.086   6.117  0.5399 -0.3805  0.1013
11236TIP3   OH233652   2.852   6.939   6.103  0.2593  0.5204 -0.0416
11236TIP3    H133653   2.857   6.995   6.181  1.5308 -0.7411  0.8185
11236TIP3    H233654   2.941   6.907   6.091 -0.1400 -0.1034 -1.4255
11237TIP3   OH233655   5.180   4.394   5.577  0.5214  0.0443 -0.2309
11237TIP3    H133656   5.166   4.309   5.536 -1.5810 -0.2755  1.0630
11237TIP3    H233657   5.227   4.375   5.658  1.0324  0.2310 -0.4835
11238TIP3   OH233658   3.807   4.501   5.436  0.1491  0.2185 -0.3476
11238TIP3    H133659   3.816   4.467   5.525  0.5265  1.2925  0.0367
11238TIP3    H233660   3.741   4.570   5.443 -1.0190 -0.7907 -1.2185
11239TIP3   OH233661   1.830   6.216   5.597  0.4115  0.0570 -0.0718
11239TIP3    H133662   1.819   6.165   5.517 -1.5622 -0.3412  0.4028
11239TIP3    H233663   1.866   6.154   5.660  0.2343 -0.1368 -0.1579
11240TIP3   OH233664   5.779   0.198   1.561 -0.7267  0.2247 -0.0828
11240TIP3    H133665   5.858   0.206   1.614 -1.6046  1.2609  1.1003
11240TIP3    H233666   5.707   0.202   1.624 -1.7724  0.9892 -1.3013
11241TIP3   OH233667   5.473   7.881   0.988  0.5074 -0.3149  0.3798
11241TIP3    H133668   5.493   7.932   1.065  1.1282  0.9346 -0.5972
11241TIP3    H233669   5.414   7.936   0.937 -0.8339 -1.6055  0.5010
11242TIP3   OH233670   2.145   6.475   6.629  0.5874  0.0647 -0.6496
11242TIP3    H133671   2.131   6.399   6.684 -0.7587 -0.0180 -1.1067
11242TIP3    H233672   2.239   6.492   6.636  0.5489 -0.3535  1.1237
11243TIP3   OH233673   5.435   6.740   0.249 -0.0701 -0.2940 -0.8166
11243TIP3    H133674   5.505   6.674   0.243  1.3738  1.1314  0.1252
11243TIP3    H233675   5.433   6.780   0.162  1.3417  0.7134 -0.3913
11244TIP3   OH233676   3.138   5.003   6.157  0.8437 -0.3505 -0.0620
11244TIP3    H133677   3.055   5.033   6.120  0.6019  0.8966  1.4535
11244TIP3    H233678   3.152   4.917   6.117 -0.2848  0.1925 -1.6625
11245TIP3   OH233679   3.349   4.892   5.600 -0.2637  0.1906 -0.2408
11245TIP3    H133680   3.377   4.827   5.664 -0.4278  0.1159 -0.2462
11245TIP3    H233681   3.262   4.864   5.573 -0.5689  0.7315  0.1795
11246TIP3   OH233682   6.889   6.936   0.520  0.0000 -0.2607  0.3400
11246TIP3    H133683   6.819   6.936   0.585 -1.2610 -0.9356 -0.9811
11246TIP3    H233684   6.953   6.998   0.554 -1.7442  1.2225  1.0616
11247TIP3   OH233685   0.725   5.151   5.087  1.0519 -0.3686  0.0954
11247TIP3    H133686   0.642   5.199   5.081  1.0606 -0.2834  0.6346
11247TIP3    H233687   0.775   5.180   5.011  1.0652  0.4990  0.4283
11248TIP3   OH233688   3.294   6.435   4.758  0.3877 -0.0957 -0.0398
11248TIP3    H133689   3.250   6.360   4.718 -1.6208  1.2029 -0.3680
11248TIP3    H233690   3.290   6.416   4.852 -1.0238  0.0414 -0.0502
11249TIP3   OH233691   1.169   2.730   6.772  0.0530  0.5957 -0.6403
11249TIP3    H133692   1.086   2.718   6.818 -1.0284  0.5918 -2.5611
11249TIP3    H233693   1.197   2.819   6.796 -0.0057  0.2458  0.7698
11250TIP3   OH233694   2.221   4.502   6.244  0.9363  0.4740  0.0125
11250TIP3    H133695   2.301   4.474   6.290  0.4272 -0.2129  0.4929
11250TIP3    H233696   2.159   4.430   6.259  0.7289  0.2977 -1.6765
11251TIP3   OH233697   8.091   1.711   1.557 -0.0206  0.1025  0.0981
11251TIP3    H133698   8.132   1.783   1.508 -0.9310  1.5902  1.4800
11251TIP3    H233699   8.134   1.713   1.643  0.1645 -1.2036  0.0421
11252TIP3   OH233700   0.965   1.093   0.880 -0.2544  0.3717 -0.0957
11252TIP3    H133701   1.048   1.058   0.848  0.6796  0.3101  2.3079
11252TIP3    H233702   0.898   1.042   0.835  1.0537 -2.0373  0.6245
11253TIP3   OH233703   2.196   6.602   4.587 -0.9826 -0.0068  0.6043
11253TIP3    H133704   2.283   6.587   4.551 -1.0488 -0.0695  0.4696
11253TIP3    H233705   2.203   6.575   4.679 -0.7695  0.3083  0.6811
11254TIP3   OH233706   7.924   0.536   1.602 -0.6655 -0.1922  0.7182
11254TIP3    H133707   7.859   0.473   1.572  1.8804 -1.9076 -1.3769
11254TIP3    H233708   7.903   0.550   1.694 -0.8817 -4.6000  1.4158
11255TIP3   OH233709   3.249   6.140   6.613 -0.1115 -0.0923  0.4326
11255TIP3    H133710   3.185   6.076   6.643 -0.3233 -0.2854 -0.4251
11255TIP3    H233711   3.222   6.162   6.524  0.7333  0.1897  0.2380
11256TIP3   OH233712   0.253   1.746   0.174  0.0963  0.2794 -0.0272
11256TIP3    H133713   0.205   1.829   0.179  0.8549  0.8271 -1.5789
11256TIP3    H233714   0.325   1.756   0.237 -0.6069  0.2520  0.7909
11257TIP3   OH233715   2.376   2.425   5.845  0.0082 -0.8819 -0.2169
11257TIP3    H133716   2.287   2.439   5.877 -0.1448  0.5559 -1.2101
11257TIP3    H233717   2.374   2.456   5.754  1.5709 -0.6238 -0.1786
11258TIP3   OH233718   6.578   2.293   0.121 -0.7647  0.0958  0.0473
11258TIP3    H133719   6.568   2.198   0.129  1.6155 -0.3167 -1.5142
11258TIP3    H233720   6.538   2.314   0.037  0.9578  0.0860 -0.7972
11259TIP3   OH233721   3.358   5.055   5.358  0.4620  0.4311 -0.5063
11259TIP3    H133722   3.387   5.011   5.439  1.0624  0.3265 -0.7763
11259TIP3    H233723   3.273   5.092   5.381  1.3310  1.7827  0.6834
11260TIP3   OH233724   4.980   5.217   6.773 -0.0370  0.2260  0.1096
11260TIP3    H133725   5.062   5.242   6.730  1.5838 -1.2570  2.2532
11260TIP3    H233726   5.006   5.155   6.841 -2.9513 -0.2706  0.8419
11261TIP3   OH233727   6.633   0.798   1.022  0.0769  0.1176  0.1227
11261TIP3    H133728   6.571   0.817   0.951 -2.4517  0.2683  2.2940
11261TIP3    H233729   6.709   0.760   0.978 -0.9871  1.2147 -2.7680
11262TIP3   OH233730   2.466   1.803   6.768  0.7330 -0.1072  0.3058
11262TIP3    H133731   2.392   1.861   6.789  1.9491  1.5063  0.2481
11262TIP3    H233732   2.504   1.841   6.689  1.6863 -0.8606  0.3957
11263TIP3   OH233733   2.544   4.685   6.056 -0.6088 -0.6859 -0.2897
11263TIP3    H133734   2.569   4.646   6.140 -2.2345  0.3192  0.6762
11263TIP3    H233735   2.539   4.779   6.074  0.5817 -0.2974 -1.9171
11264TIP3   OH233736   1.066   1.877   0.860  0.3635 -0.2692  0.1067
11264TIP3    H133737   1.044   1.910   0.947  0.0011  0.6787 -0.3287
11264TIP3    H233738   0.996   1.816   0.839 -0.0644  0.2161  0.0988
11265TIP3   OH233739   4.378   6.719   2.027 -0.2036  0.4110  0.1660
11265TIP3    H133740   4.418   6.671   1.954 -0.5203  0.0646  0.2172
11265TIP3    H233741   4.412   6.808   2.019  1.4556 -0.1552  0.8819
11266TIP3   OH233742   3.228   4.003   5.282  0.2925  0.0432 -0.3316
11266TIP3    H133743   3.265   3.979   5.197  0.1601 -0.1818 -0.3291
11266TIP3    H233744   3.142   4.040   5.261  1.0098  1.6882 -0.4214
11267TIP3   OH233745   1.873   6.695   5.439 -0.5112  1.0305  0.2763
11267TIP3    H133746   1.845   6.619   5.489 -5.6657  2.3292 -0.3370
11267TIP3    H233747   1.888   6.662   5.351 -1.6457  0.4833  0.2789
11268TIP3   OH233748   5.812   5.078   5.821 -0.2213 -0.5171 -0.0830
11268TIP3    H133749   5.730   5.126   5.812  0.7700  1.3125  0.3317
11268TIP3    H233750   5.813   5.049   5.913 -0.2624 -0.2593  0.0004
11269TIP3   OH233751   7.772   2.844   0.604 -0.1761  0.0846  0.5987
11269TIP3    H133752   7.770   2.844   0.700 -0.5219  0.0464  0.5924
11269TIP3    H233753   7.747   2.755   0.579  2.5050 -0.6617  0.5152
11270TIP3   OH233754   3.846   3.408   6.044 -0.0362 -0.3460 -0.0042
11270TIP3    H133755   3.792   3.408   5.965 -0.8754  0.3280  0.5675
11270TIP3    H233756   3.786   3.381   6.114  0.3889  0.3196  0.6162
11271TIP3   OH233757   1.943   2.521   1.406 -0.8897 -0.2395  0.4712
11271TIP3    H133758   1.916   2.453   1.468 -1.0159  2.0799  3.0833
11271TIP3    H233759   1.872   2.586   1.410  0.6470  1.5085  0.4074
11272TIP3   OH233760   6.476   0.812   0.801  0.4222  0.8019 -0.7958
11272TIP3    H133761   6.521   0.771   0.727 -2.0455  0.4304 -2.1355
11272TIP3    H233762   6.384   0.796   0.785 -0.2161  1.4907  1.9411
11273TIP3   OH233763   3.355   5.769   6.787  0.3571  0.2330 -0.0656
11273TIP3    H133764   3.310   5.818   6.718  0.1368  0.9651  0.5923
11273TIP3    H233765   3.443   5.805   6.788  0.8571 -0.8981 -1.0531
11274TIP3   OH233766   2.288   5.569   5.481 -0.3844  0.3109  0.4665
11274TIP3    H133767   2.253   5.650   5.517 -3.4364 -1.0166  0.6351
11274TIP3    H233768   2.334   5.528   5.555 -0.6677  0.8693  0.9552
11275TIP3   OH233769   4.631   3.658   5.264  0.7864  0.2224  0.2632
11275TIP3    H133770   4.713   3.671   5.310  0.2607 -0.2163  1.3305
11275TIP3    H233771   4.571   3.621   5.329 -1.0526  2.9921  0.2064
11276TIP3   OH233772   7.909   0.225   1.157  0.2313 -0.0972 -0.0762
11276TIP3    H133773   7.941   0.235   1.246  0.4502  1.1386 -0.2901
11276TIP3    H233774   7.868   0.138   1.156  1.7142 -0.8243  0.7641
11277TIP3   OH233775   5.714  -0.021   1.865  0.2637 -0.2576 -0.1229
11277TIP3    H133776   5.682   0.068   1.848  1.0045  0.4671  2.0014
11277TIP3    H233777   5.685  -0.040   1.954  0.5129 -1.9766 -0.3877
11278TIP3   OH233778   1.761   3.374   6.273  0.5343 -0.0894 -0.5473
11278TIP3    H133779   1.846   3.359   6.315 -0.1891  0.5040  1.1969
11278TIP3    H233780   1.750   3.469   6.274 -0.2926 -0.1829 -0.4680
11279TIP3   OH233781   7.705   1.851   0.125  0.0727 -0.0150  0.6580
11279TIP3    H133782   7.668   1.772   0.165  1.5102 -1.1567 -0.2103
11279TIP3    H233783   7.735   1.822   0.039 -2.0866  2.1723 -0.9106
11280TIP3   OH233784   2.721   6.972   3.583  0.0558  0.0767  0.2808
11280TIP3    H133785   2.751   7.063   3.578 -0.2762  0.2874  1.8289
11280TIP3    H233786   2.629   6.975   3.555  0.9147 -0.2745 -2.6469
11281TIP3   OH233787   2.297   6.521   2.915  0.3285  0.0975  0.0338
11281TIP3    H133788   2.304   6.445   2.857  1.1180 -1.1735  1.7453
11281TIP3    H233789   2.365   6.581   2.885  0.3183 -0.2800 -0.7493
11282TIP3   OH233790   7.985   2.674   1.204  0.0289  0.0867  0.0040
11282TIP3    H133791   7.947   2.619   1.135  0.5780 -1.2216  0.7340
11282TIP3    H233792   7.966   2.764   1.176 -2.5640 -0.4995 -0.2466
11283TIP3   OH233793   1.006   1.209   1.169  0.3463 -0.9174  0.2478
11283TIP3    H133794   0.966   1.196   1.083  1.9377 -0.1882 -0.6310
11283TIP3    H233795   0.940   1.257   1.219 -0.1544 -0.3455 -0.9382
11284TIP3   OH233796   1.326   0.245   1.071  0.3619  0.1376  0.2708
11284TIP3    H133797   1.411   0.202   1.070  0.3506  0.1253 -2.5097
11284TIP3    H233798   1.281   0.209   1.148  1.6620 -2.1892 -0.0463
11285TIP3   OH233799   2.764   5.659   4.875 -0.3850  0.3693 -0.4843
11285TIP3    H133800   2.693   5.601   4.850  0.4625 -0.9475  0.1035
11285TIP3    H233801   2.819   5.607   4.934  1.1249  1.3166 -1.0037
11286TIP3   OH233802   5.577   6.172   6.434 -0.0214  0.3141  0.4554
11286TIP3    H133803   5.522   6.235   6.481 -1.4759 -0.3605 -0.3037
11286TIP3    H233804   5.515   6.114   6.390  1.3060 -0.8179  0.0309
11287TIP3   OH233805   4.853   4.355   4.979  0.6514 -0.6318  0.5420
11287TIP3    H133806   4.915   4.407   4.928 -0.3213 -0.1654 -0.1804
11287TIP3    H233807   4.850   4.270   4.934  0.8220 -0.6779  0.6172
11288TIP3   OH233808   3.513   4.150   4.889 -0.1930 -0.0592  0.0068
11288TIP3    H133809   3.600   4.146   4.849 -1.0072 -0.0479 -1.7998
11288TIP3    H233810   3.498   4.243   4.905  0.4767 -0.1380  1.1197
11289TIP3   OH233811   2.747   4.963   4.450 -0.7690 -0.3055 -0.8063
11289TIP3    H133812   2.665   4.929   4.488 -0.3084 -0.8450 -0.2908
11289TIP3    H233813   2.745   5.056   4.470 -0.5640 -0.5666  0.4976
11290TIP3   OH233814   2.797   6.756   6.329  0.0789 -0.5626  0.3367
11290TIP3    H133815   2.791   6.772   6.234  1.6886  0.9878  0.4662
11290TIP3    H233816   2.803   6.661   6.337  0.5038 -0.6740 -1.1557
11291TIP3   OH233817   2.832   7.158   5.927  0.4420  0.1688  0.6531
11291TIP3    H133818   2.866   7.081   5.973  0.7133  0.7396  1.4417
11291TIP3    H233819   2.897   7.226   5.945 -0.2454  0.8167  0.7052
11292TIP3   OH233820   7.713   0.022   0.146  0.0159 -1.0697 -0.2077
11292TIP3    H133821   7.707  -0.007   0.237  0.4166  1.3739  0.6291
11292TIP3    H233822   7.802   0.000   0.119  0.2128 -0.9062  0.3072
11293TIP3   OH233823   4.875   6.808   4.783 -0.3867  0.0936 -0.4352
11293TIP3    H133824   4.928   6.748   4.730 -1.4033  0.0312 -1.3969
11293TIP3    H233825   4.926   6.889   4.786  0.7092 -0.6165  0.3556
11294TIP3   OH233826   2.184   5.006   6.243 -0.0427  0.0845  0.7247
11294TIP3    H133827   2.235   5.087   6.232  0.2347 -0.2281 -0.3601
11294TIP3    H233828   2.093   5.035   6.242  0.0856  0.6233  2.4362
11295TIP3   OH233829   3.761   4.748   6.206 -0.1798  0.0060  0.3516
11295TIP3    H133830   3.764   4.754   6.110  1.0011 -0.2943  0.3681
11295TIP3    H233831   3.729   4.834   6.233 -0.2123  0.2041 -0.2934
11296TIP3   OH233832   3.431   5.301   6.096 -0.3451  0.5547  0.3330
11296TIP3    H133833   3.463   5.346   6.174 -1.5242  0.9133  0.6295
11296TIP3    H233834   3.425   5.368   6.029 -0.0761  0.4049  0.1575
11297TIP3   OH233835   4.406   3.260   5.099  0.3857 -0.3346 -0.1045
11297TIP3    H133836   4.427   3.332   5.038  0.7992 -0.2293  0.1576
11297TIP3    H233837   4.313   3.272   5.119  0.8114  1.0870  1.1722
11298TIP3   OH233838   3.873   5.761   5.678  0.8819  0.0762 -0.4531
11298TIP3    H133839   3.832   5.832   5.728 -0.3083 -1.0799  0.2347
11298TIP3    H233840   3.873   5.792   5.588 -0.8962  0.3788 -0.3575
11299TIP3   OH233841   2.208   1.273   1.313 -0.1768  1.0101 -0.2956
11299TIP3    H133842   2.240   1.341   1.254 -0.9056  2.2767  0.7314
11299TIP3    H233843   2.247   1.294   1.398  0.6803 -0.6555 -0.2629
11300TIP3   OH233844   4.363   3.735   6.242 -0.0914  0.1936  0.1779
11300TIP3    H133845   4.314   3.654   6.223  1.2291 -0.6497  0.2946
11300TIP3    H233846   4.331   3.798   6.179  0.8884 -1.2368 -1.8052
11301TIP3   OH233847   5.143   5.591   1.214 -0.8093  0.5262 -0.3746
11301TIP3    H133848   5.155   5.671   1.264 -0.3070  0.8245 -0.9674
11301TIP3    H233849   5.099   5.618   1.134 -1.9857 -0.0115  0.0735
11302TIP3   OH233850   6.709   7.004   0.832 -0.1745  0.1038 -0.1687
11302TIP3    H133851   6.774   7.062   0.792 -0.8962 -0.1181 -1.7265
11302TIP3    H233852   6.625   7.042   0.807 -0.6489 -1.4578 -1.0140
11303TIP3   OH233853   1.672   0.124   0.516 -0.4702 -0.3951 -0.0595
11303TIP3    H133854   1.606   0.158   0.456 -0.0949  1.0804  0.3334
11303TIP3    H233855   1.741   0.090   0.459 -0.9670 -0.7198 -0.4667
11304TIP3   OH233856   2.116   3.283   4.736 -0.7755 -0.3587  0.5293
11304TIP3    H133857   2.172   3.332   4.796  1.1646 -2.0688  0.1715
11304TIP3    H233858   2.091   3.347   4.669  0.5777  0.5105  0.8234
11305TIP3   OH233859   2.600   5.383   6.543  0.9088 -0.3682 -0.0692
11305TIP3    H133860   2.527   5.322   6.534 -0.0818  0.6803  0.6913
11305TIP3    H233861   2.600   5.432   6.461 -1.7015  2.2429  1.3932
11306TIP3   OH233862   1.294   5.653   5.450 -0.0487  0.1936  0.1314
11306TIP3    H133863   1.297   5.632   5.356  0.9748  0.3154  0.1241
11306TIP3    H233864   1.310   5.748   5.453 -0.4862  0.2567  0.4038
11307TIP3   OH233865   4.547   5.793   4.809 -0.2430  0.1753 -0.2275
11307TIP3    H133866   4.530   5.743   4.889 -1.8937 -2.6596 -2.2907
11307TIP3    H233867   4.490   5.869   4.816 -0.9538 -0.4557  0.9146
11308TIP3   OH233868   0.289   5.452   5.933  0.6125  0.0946  0.1227
11308TIP3    H133869   0.204   5.409   5.931  0.5484  0.1842  0.8864
11308TIP3    H233870   0.335   5.417   5.857  0.0761 -0.3284 -0.0101
11309TIP3   OH233871   2.629   4.219   6.214  0.0839 -0.1166 -0.0459
11309TIP3    H133872   2.702   4.249   6.160 -0.4419 -1.1681 -1.3765
11309TIP3    H233873   2.670   4.163   6.280  0.6666  0.6642  0.2559
11310TIP3   OH233874   0.041   0.363   0.520  0.4974 -0.1934 -0.1016
11310TIP3    H133875   0.085   0.310   0.586  1.6417 -0.1881 -0.8505
11310TIP3    H233876   0.072   0.452   0.535 -1.0976  0.2356  0.8806
11311TIP3   OH233877   0.314   3.784   1.707 -1.0913  0.0804 -0.0499
11311TIP3    H133878   0.236   3.768   1.654 -0.0362 -1.4644 -1.2240
11311TIP3    H233879   0.372   3.833   1.649 -0.5740 -0.1582  0.2617
11312TIP3   OH233880   3.880   4.811   5.567 -0.3906  0.1619  0.4368
11312TIP3    H133881   3.952   4.748   5.571 -1.3282 -0.9907 -0.5580
11312TIP3    H233882   3.820   4.775   5.502 -2.6194  0.3037  2.3435
11313TIP3   OH233883   0.215   1.415   1.053 -0.0461 -0.3345 -0.6772
11313TIP3    H133884   0.251   1.504   1.060  0.7141 -0.5430 -1.8319
11313TIP3    H233885   0.285   1.358   1.085  0.1519 -0.6379 -1.6213
11314TIP3   OH233886   8.166   3.252   0.248 -0.7700  0.1964  0.0503
11314TIP3    H133887   8.078   3.285   0.266 -0.9411 -0.9628  1.4229
11314TIP3    H233888   8.166   3.232   0.155 -1.8338  0.5638 -0.0336
11315TIP3   OH233889   3.018   4.899   6.889 -0.8336 -0.2999 -0.0410
11315TIP3    H133890   3.099   4.925   6.934 -1.3333  0.8312  0.2277
11315TIP3    H233891   3.047   4.876   6.801 -0.0085 -1.3773  0.4979
11316TIP3   OH233892   1.096   1.549   0.598 -0.2399  0.2174  0.6666
11316TIP3    H133893   1.130   1.509   0.517 -1.8334 -0.1201  0.1500
11316TIP3    H233894   1.171   1.549   0.658  1.3329  1.6778 -1.2376
11317TIP3   OH233895   0.537   1.074   0.754  0.4335 -0.1139 -0.1799
11317TIP3    H133896   0.496   1.083   0.668  0.8623  1.5540 -0.2144
11317TIP3    H233897   0.569   0.983   0.755 -2.5667 -1.2372 -0.4304
11318TIP3   OH233898   2.968   6.222   5.598 -0.0560  0.2390  0.1218
11318TIP3    H133899   3.043   6.163   5.603  0.2341  0.5990  0.1160
11318TIP3    H233900   2.990   6.281   5.525  0.3606  1.3054  1.0907
11319TIP3   OH233901   3.704   5.293   5.749  0.1517  0.1669  0.2850
11319TIP3    H133902   3.790   5.333   5.760  0.5212 -0.5268 -0.0834
11319TIP3    H233903   3.644   5.353   5.794  0.8812  0.4235  0.9319
11320TIP3   OH233904   2.062   2.096   0.753  0.5998 -0.1562  0.2162
11320TIP3    H133905   2.126   2.127   0.816 -0.5850  1.3333  0.7173
11320TIP3    H233906   2.023   2.175   0.717 -0.4290 -1.0250 -0.6264
11321TIP3   OH233907   2.602   4.968   6.915 -0.2664  0.0942  0.4223
11321TIP3    H133908   2.567   5.044   6.869  0.4475  0.9984  1.3352
11321TIP3    H233909   2.649   5.005   6.990 -0.7879 -1.3007  1.4667
11322TIP3   OH233910   0.311   5.046   5.632 -0.3116 -0.1251  0.0014
11322TIP3    H133911   0.244   4.979   5.619 -1.6711  1.3249 -0.6599
11322TIP3    H233912   0.349   5.060   5.546 -3.4939  3.4480 -0.9984
11323TIP3   OH233913   3.702   3.356   5.190  0.1910  0.2570 -0.0539
11323TIP3    H133914   3.617   3.340   5.149 -0.2542  1.9788  0.1553
11323TIP3    H233915   3.685   3.427   5.253  1.0264 -1.7604  2.5394
11324TIP3   OH233916   5.878   7.871   0.572 -0.6578 -0.0425  0.0404
11324TIP3    H133917   5.803   7.930   0.579 -1.2865 -0.9048  0.7937
11324TIP3    H233918   5.861   7.804   0.639  0.0906 -1.0056 -0.7256
11325TIP3   OH233919   3.885   4.162   6.392  0.1593 -0.2181  0.4257
11325TIP3    H133920   3.866   4.069   6.374  2.1277 -0.3154 -1.3905
11325TIP3    H233921   3.801   4.206   6.381 -0.1438 -1.3328 -2.1846
11326TIP3   OH233922   4.159   2.166   6.323 -0.0296  0.8182  0.7073
11326TIP3    H133923   4.080   2.113   6.328 -0.8861  1.9165 -0.6571
11326TIP3    H233924   4.130   2.255   6.341  1.0266  1.1254  0.9435
11327TIP3   OH233925   5.318   7.576   0.132  0.2547 -0.2827 -0.1665
11327TIP3    H133926   5.287   7.486   0.120 -1.2393  0.4829 -2.3315
11327TIP3    H233927   5.411   7.566   0.153  0.0971 -2.3375 -0.2728
11328TIP3   OH233928   3.546   5.414   6.323  0.1139 -0.0134  0.5250
11328TIP3    H133929   3.535   5.357   6.399  0.9514 -0.2071  0.5064
11328TIP3    H233930   3.516   5.499   6.352  0.3140 -0.1165  1.0394
11329TIP3   OH233931   7.959   7.546   0.234  0.7150  0.2129 -0.1797
11329TIP3    H133932   8.034   7.518   0.182  0.0884  1.8477 -2.0397
11329TIP3    H233933   7.931   7.467   0.280  1.2323 -1.3293 -2.4282
11330TIP3   OH233934   3.046   4.130   6.494  0.2398 -0.3646  0.0220
11330TIP3    H133935   3.060   4.220   6.463  0.3507  0.4186  2.2460
11330TIP3    H233936   3.132   4.089   6.488  0.1270 -0.4372 -1.3015
11331TIP3   OH233937   3.532   2.682   4.362  0.0765  0.3802 -0.5561
11331TIP3    H133938   3.606   2.677   4.302 -0.7364  1.1611 -1.6472
11331TIP3    H233939   3.501   2.592   4.371  0.0706  0.2927 -1.4794
11332TIP3   OH233940   0.528   4.731   5.103 -0.0218 -0.0996  0.2086
11332TIP3    H133941   0.465   4.803   5.112  0.9295  0.9697 -1.5954
11332TIP3    H233942   0.480   4.664   5.054  0.0287  0.4347 -0.5654
11333TIP3   OH233943   2.200   4.343   4.739  0.1415 -0.2235  0.4450
11333TIP3    H133944   2.231   4.333   4.828 -1.5457 -1.2582  0.9528
11333TIP3    H233945   2.221   4.259   4.697  1.0438  0.3054 -0.1623
11334TIP3   OH233946   2.340   1.071   5.843  0.0439 -0.0642 -0.1751
11334TIP3    H133947   2.400   1.124   5.790 -2.0593  2.7061  0.0717
11334TIP3    H233948   2.392   1.045   5.919  1.5346  0.5424 -0.9645
11335TIP3   OH233949   4.417   5.706   5.026  0.1339 -0.5599  0.6025
11335TIP3    H133950   4.445   5.657   5.103  0.8060 -0.8182  0.2000
11335TIP3    H233951   4.432   5.798   5.050  1.4730 -0.6976  0.3501
11336TIP3   OH233952   4.779   7.476   5.212 -0.4438  0.0012  0.5385
11336TIP3    H133953   4.710   7.416   5.242  0.6085 -0.4576  2.1203
11336TIP3    H233954   4.851   7.418   5.188  0.0341  0.5579  0.6342
11337TIP3   OH233955   4.595   6.621   0.704  1.2296  0.1559 -0.5086
11337TIP3    H133956   4.679   6.609   0.747  0.5639 -1.4770  0.3986
11337TIP3    H233957   4.533   6.632   0.776  0.7125  1.6569 -1.1782
11338TIP3   OH233958   2.411   4.889   5.742  0.2445 -0.0812  0.1667
11338TIP3    H133959   2.361   4.947   5.685 -1.2898 -0.5944  0.9696
11338TIP3    H233960   2.484   4.943   5.773 -1.2128  1.4588  0.9735
11339TIP3   OH233961   7.848   1.498   0.188 -0.3654 -0.8763 -0.0140
11339TIP3    H133962   7.904   1.572   0.213  1.1131 -1.3498 -1.7654
11339TIP3    H233963   7.759   1.531   0.199  0.2279  0.0881  2.2893
11340TIP3   OH233964   0.275   1.690   1.071  0.5911  0.0171  0.4055
11340TIP3    H133965   0.219   1.754   1.114  2.7937  0.1982  3.1630
11340TIP3    H233966   0.311   1.736   0.995 -1.2746  0.5932 -0.1419
11341TIP3   OH233967   2.430   4.343   5.192 -0.1747  0.2443 -0.7745
11341TIP3    H133968   2.380   4.363   5.271  0.4722  2.0713 -0.8100
11341TIP3    H233969   2.371   4.367   5.120  0.1603  0.9368 -0.8230
11342TIP3   OH233970   3.471   5.746   3.331  0.5802 -0.0298 -0.0924
11342TIP3    H133971   3.509   5.808   3.393  1.6165  0.4249 -1.1534
11342TIP3    H233972   3.538   5.678   3.321  0.6090  0.1239 -1.0170
11343TIP3   OH233973   8.171   0.271   1.720 -0.0845 -0.4300  0.3492
11343TIP3    H133974   8.166   0.340   1.654 -1.5106 -0.0785  0.8049
11343TIP3    H233975   8.131   0.195   1.677  0.6820 -0.7214  0.1553
11344TIP3   OH233976   5.324   5.160   5.482 -0.5855  0.0755  0.4913
11344TIP3    H133977   5.317   5.250   5.514  1.3822  0.7800 -1.0166
11344TIP3    H233978   5.244   5.147   5.429 -1.4897  0.4810  1.7357
11345TIP3   OH233979   6.070   5.760   5.014 -0.0571  0.2682 -0.5130
11345TIP3    H133980   6.113   5.803   4.940  2.8795  0.2574  1.0979
11345TIP3    H233981   6.027   5.832   5.061  1.0703  0.8190 -0.2991
11346TIP3   OH233982   4.114   4.847   5.851 -0.4819  0.1190  0.5619
11346TIP3    H133983   4.119   4.825   5.944 -1.3327 -1.0790  0.3281
11346TIP3    H233984   4.152   4.771   5.806 -1.2545  0.1344 -0.1289
11347TIP3   OH233985   5.094   2.881   4.598 -0.1939 -0.4081  0.3661
11347TIP3    H133986   5.064   2.862   4.687 -3.0086  2.1920  0.0499
11347TIP3    H233987   5.025   2.846   4.541 -0.0928  0.9220 -0.6069
11348TIP3   OH233988   4.781   4.230   6.937  0.2686 -0.3939  0.0662
11348TIP3    H133989   4.774   4.155   6.878  1.2434 -0.1773 -0.3294
11348TIP3    H233990   4.842   4.201   7.005  2.2846  0.7576 -1.2163
11349TIP3   OH233991   4.590   4.164   4.894 -0.3087  0.1087  0.3526
11349TIP3    H133992   4.616   4.073   4.877 -0.9554 -0.5329  2.6450
11349TIP3    H233993   4.590   4.172   4.990 -2.5176  1.8638  0.2534
11350TIP3   OH233994   5.242   4.470   6.588 -0.0140  0.1689  0.3406
11350TIP3    H133995   5.332   4.454   6.617  0.0814  0.1696  0.0420
11350TIP3    H233996   5.251   4.504   6.499 -0.1579  2.5745  1.1795
11351TIP3   OH233997   7.860   1.526   4.488 -0.4968  0.7623 -0.1709
11351TIP3    H133998   7.850   1.462   4.558  0.1598 -0.0586 -0.8082
11351TIP3    H233999   7.772   1.539   4.454 -0.6599  0.3235  0.0781
11352TIP3   OH234000   6.859   7.024   0.137 -0.4609 -0.8534 -0.3090
11352TIP3    H134001   6.888   7.025   0.046  0.5751 -1.2201  0.0027
11352TIP3    H234002   6.929   6.979   0.184 -1.0358 -0.7714  0.6530
11353TIP3   OH234003   4.338   2.947   5.833 -0.1657  0.1259  0.0033
11353TIP3    H134004   4.391   3.025   5.817  1.6444 -0.9398  0.5893
11353TIP3    H234005   4.363   2.918   5.921  0.6685 -2.1925 -0.9378
11354TIP3   OH234006   6.346   4.195   5.645  0.2539  0.2731 -0.3990
11354TIP3    H134007   6.389   4.254   5.583  1.4597 -0.6300 -0.4334
11354TIP3    H234008   6.266   4.241   5.670  0.3679  1.1942 -1.6814
11355TIP3   OH234009   3.674   4.570   6.483  0.0805  0.0608 -0.1001
11355TIP3    H134010   3.730   4.647   6.470  0.5887 -0.3700 -0.5325
11355TIP3    H234011   3.590   4.605   6.511  0.3095  0.7726 -0.2951
11356TIP3   OH234012   7.967   7.743   0.500  0.1959 -0.3034  0.1081
11356TIP3    H134013   7.961   7.762   0.407  0.8164  0.7182  0.2670
11356TIP3    H234014   7.885   7.698   0.521  1.2420 -3.1607 -1.5124
11357TIP3   OH234015   1.903   4.427   5.653 -0.2599 -0.3801 -0.2059
11357TIP3    H134016   1.993   4.458   5.642 -0.9760  1.3623 -1.3939
11357TIP3    H234017   1.884   4.442   5.746  0.4350 -0.1075 -0.1035
11358TIP3   OH234018   0.878   2.323   0.060 -0.0616  0.1994  0.6445
11358TIP3    H134019   0.959   2.315   0.010 -0.8084 -0.5491 -0.4590
11358TIP3    H234020   0.874   2.243   0.113  0.3571  0.6481  1.3630
11359TIP3   OH234021   3.831   3.636   5.728 -0.5331  0.2777  0.1092
11359TIP3    H134022   3.913   3.658   5.772 -0.8043  0.4553  0.5309
11359TIP3    H234023   3.766   3.691   5.770 -0.7825  0.5301 -0.5936
11360TIP3   OH234024   0.400   0.420   1.391  0.1248 -0.8464 -0.2008
11360TIP3    H134025   0.418   0.353   1.457  2.4996 -1.2431 -1.1930
11360TIP3    H234026   0.429   0.502   1.431 -1.3261 -0.6360  0.4219
11361TIP3   OH234027   2.883   6.242   6.921  0.5350 -0.0802 -0.1406
11361TIP3    H134028   2.961   6.205   6.963 -0.8003 -2.7248  0.1175
11361TIP3    H234029   2.865   6.182   6.848 -0.2811  1.4793 -1.2412
11362TIP3   OH234030   3.400   3.827   5.020  0.1208 -0.1541  0.1761
11362TIP3    H134031   3.353   3.744   5.017  0.4568 -0.3398 -0.0216
11362TIP3    H234032   3.335   3.893   4.998 -0.2399 -0.3248  0.7054
11363TIP3   OH234033   6.366   2.761   5.148 -0.3866 -0.6445  0.4778
11363TIP3    H134034   6.343   2.673   5.178  0.9770 -0.9545  0.6640
11363TIP3    H234035   6.303   2.819   5.192 -0.5767 -1.4211  1.2522
11364TIP3   OH234036   4.983   5.237   5.859  0.3057 -0.1345  0.7337
11364TIP3    H134037   4.927   5.315   5.856  0.1308 -0.2233  1.6104
11364TIP3    H234038   4.935   5.171   5.810  0.0281  0.0343  0.7771
11365TIP3   OH234039   4.219   5.179   6.086  0.4538 -0.4894 -0.6579
11365TIP3    H134040   4.172   5.159   6.167 -0.7886 -0.3594 -1.3188
11365TIP3    H234041   4.284   5.109   6.077  1.2801  0.0569  0.9546
11366TIP3   OH234042   4.284   6.320   3.776 -0.0695 -0.2374 -0.3841
11366TIP3    H134043   4.289   6.322   3.871 -2.4625  0.9833 -0.2500
11366TIP3    H234044   4.267   6.228   3.755 -0.9169 -0.2778  0.4500
11367TIP3   OH234045   4.675   4.239   5.792 -0.3075  0.3128  0.1444
11367TIP3    H134046   4.746   4.269   5.735  2.0068 -1.8300  1.8608
11367TIP3    H234047   4.627   4.176   5.739  0.3808  0.1232 -0.2532
11368TIP3   OH234048   5.500   3.113   5.247  0.0084 -0.1603 -0.4138
11368TIP3    H134049   5.565   3.071   5.191 -0.9223 -1.8573 -0.2706
11368TIP3    H234050   5.426   3.132   5.189  1.0553  2.9147 -0.8539
11369TIP3   OH234051   4.060   4.388   5.902  0.1389  0.3051 -0.7316
11369TIP3    H134052   3.976   4.421   5.869 -0.5453 -0.5015  0.1592
11369TIP3    H234053   4.118   4.389   5.826 -1.2133 -0.8706 -1.8093
11370TIP3   OH234054   5.086   3.337   6.335  0.5807  0.1365  0.3897
11370TIP3    H134055   5.131   3.368   6.414  1.6475  0.4526 -0.3407
11370TIP3    H234056   5.036   3.413   6.304  1.1757  0.3817  0.0359
11371TIP3   OH234057   6.611   2.900   6.495  0.3517 -0.2638  0.3875
11371TIP3    H134058   6.663   2.943   6.427  0.4045  0.7596  1.0681
11371TIP3    H234059   6.550   2.967   6.526 -0.4718 -1.0585  0.5431
11372TIP3   OH234060   6.603   5.074   6.875  0.2341 -0.1735  0.7256
11372TIP3    H134061   6.635   5.055   6.787 -0.2882  1.2023  0.2192
11372TIP3    H234062   6.512   5.045   6.874  0.0614  0.3682  0.6269
11373TIP3   OH234063   4.939   4.104   5.156 -0.3690  0.0375 -0.0423
11373TIP3    H134064   4.870   4.103   5.089  0.6539 -0.3820 -1.1006
11373TIP3    H234065   4.983   4.020   5.146  0.5917  0.4967  0.3300
11374TIP3   OH234066   4.071   5.415   5.098 -0.4693  0.4615 -0.0977
11374TIP3    H134067   3.991   5.432   5.048 -1.9037 -1.5287  1.3950
11374TIP3    H234068   4.068   5.478   5.170 -0.3889  0.7671 -0.3598
11375TIP3   OH234069   4.924   4.460   5.219  0.1229  0.3845  0.5148
11375TIP3    H134070   5.020   4.460   5.213  0.0024  0.8541 -2.0131
11375TIP3    H234071   4.895   4.408   5.144 -1.6424  2.3306 -0.2015
11376TIP3   OH234072   2.794   1.107   0.411  0.2248  0.1557  0.0782
11376TIP3    H134073   2.878   1.131   0.449  0.4054 -0.2755 -0.0517
11376TIP3    H234074   2.810   1.107   0.316 -0.4810  2.2545 -0.0744
11377TIP3   OH234075   0.362   3.716   0.389  0.4200 -0.4553 -0.2976
11377TIP3    H134076   0.323   3.734   0.304  2.4956 -0.8509 -1.3863
11377TIP3    H234077   0.331   3.786   0.446  0.6722  1.0272 -1.9458
11378TIP3   OH234078   6.783   7.172   2.063  0.2093  0.4328 -0.2412
11378TIP3    H134079   6.769   7.080   2.042 -0.5317  0.3929  0.4149
11378TIP3    H234080   6.818   7.210   1.983  0.0981 -0.3228 -0.6525
11379TIP3   OH234081   1.518   0.187   0.036  0.0891  0.4927  0.1565
11379TIP3    H134082   1.535   0.124  -0.033  0.8310  1.0340 -0.1582
11379TIP3    H234083   1.596   0.242   0.039 -1.2003  2.4146 -0.6864
11380TIP3   OH234084   4.464   3.207   4.391 -0.3590 -0.1248  0.4839
11380TIP3    H134085   4.380   3.252   4.381 -1.7575 -2.5252  1.0238
11380TIP3    H234086   4.460   3.135   4.328  0.5101 -1.3709  1.8286
11381TIP3   OH234087   5.750   4.641   5.972 -0.3080  0.3544  0.0457
11381TIP3    H134088   5.746   4.688   5.888  0.3370  0.2186 -0.0630
11381TIP3    H234089   5.841   4.651   6.001 -0.8498  1.5344  1.3878
11382TIP3   OH234090   5.138   3.142   5.548 -0.8381 -0.1663  0.1869
11382TIP3    H134091   5.196   3.092   5.606  2.2314  1.9639 -0.9403
11382TIP3    H234092   5.180   3.137   5.462 -2.1940  1.6927 -0.6126
11383TIP3   OH234093   3.822   5.396   6.562 -0.7221 -0.0672 -0.4949
11383TIP3    H134094   3.766   5.339   6.615 -0.8642  0.3475 -0.1938
11383TIP3    H234095   3.813   5.482   6.602 -0.3329  0.1235 -0.8110
11384TIP3   OH234096   5.064   3.865   4.903 -0.0314  0.2251  0.1423
11384TIP3    H134097   5.047   3.771   4.892 -1.1905  0.4826 -0.2716
11384TIP3    H234098   5.107   3.871   4.988  0.1066 -0.6881  0.1478
11385TIP3   OH234099   4.578   4.921   4.358 -0.0041 -0.1353 -0.1058
11385TIP3    H134100   4.509   4.945   4.420  0.3207  0.9871 -0.1660
11385TIP3    H234101   4.605   4.833   4.385 -1.0441 -0.3365  0.2813
11386TIP3   OH234102   3.250   1.167   0.928 -0.5376  0.4494 -0.8515
11386TIP3    H134103   3.231   1.256   0.898  0.6836  1.1856  0.5388
11386TIP3    H234104   3.203   1.159   1.011 -0.4765 -0.1517 -0.8711
11387TIP3   OH234105   0.108   1.561   0.052 -0.3002  0.5050 -0.3171
11387TIP3    H134106   0.141   1.644   0.085  0.8928 -0.5464  1.1852
11387TIP3    H234107   0.021   1.552   0.090 -0.9257  1.6290 -1.4645
11388TIP3   OH234108   7.009   5.810   5.297 -0.4940  0.1578  0.4109
11388TIP3    H134109   7.018   5.905   5.289 -1.2940  0.3509  1.7468
11388TIP3    H234110   7.096   5.776   5.276 -0.1666  1.1967  0.0705
11389TIP3   OH234111   3.023   4.160   5.200 -0.1087  0.5210 -0.3308
11389TIP3    H134112   3.011   4.229   5.135 -1.7153  0.2284 -0.3712
11389TIP3    H234113   2.935   4.143   5.234  0.4979 -0.3699  0.8497
11390TIP3   OH234114   4.248   4.536   3.605 -0.4194 -0.4374 -0.3260
11390TIP3    H134115   4.286   4.472   3.545 -0.9331 -0.2077 -0.9063
11390TIP3    H234116   4.223   4.486   3.682  0.7829 -0.6422 -0.0485
11391TIP3   OH234117   5.245   5.357   4.222 -0.1592 -0.4435 -0.2719
11391TIP3    H134118   5.184   5.296   4.180  0.0288 -1.8418  1.4115
11391TIP3    H234119   5.329   5.339   4.180 -0.6309  0.5070 -1.6227
11392TIP3   OH234120   2.572   1.647   1.075 -0.1714  0.4398 -0.5397
11392TIP3    H134121   2.477   1.642   1.084  0.0050  0.3925  1.4555
11392TIP3    H234122   2.592   1.741   1.079  0.0176  0.3520  0.9667
11393TIP3   OH234123   6.476   7.090   2.373  0.5943 -0.4718  0.5907
11393TIP3    H134124   6.499   7.006   2.414 -1.7214 -1.3706  0.0796
11393TIP3    H234125   6.382   7.085   2.359  0.4447  2.1970  0.4638
11394TIP3   OH234126   5.464   6.869   0.018  0.1302 -0.2277 -0.5647
11394TIP3    H134127   5.385   6.851  -0.034 -0.0012 -1.3299  0.0007
11394TIP3    H234128   5.471   6.964   0.019 -0.3824 -0.1626 -1.8441
11395TIP3   OH234129   4.910   3.924   6.224  0.3919  0.4774 -0.4741
11395TIP3    H134130   4.919   4.007   6.176  0.7333  0.2655 -0.7870
11395TIP3    H234131   4.817   3.914   6.239  0.5519  2.2376  1.8989
11396TIP3   OH234132   4.298   5.931   5.343 -0.2740 -0.4136  0.0672
11396TIP3    H134133   4.285   6.015   5.387 -0.3706  0.5661 -1.7714
11396TIP3    H234134   4.322   5.954   5.254 -0.4952 -2.3530 -0.5200
11397TIP3   OH234135   4.197   3.849   6.437 -0.6918  0.1938 -0.0958
11397TIP3    H134136   4.282   3.847   6.394  0.1094  0.7331  1.4177
11397TIP3    H234137   4.146   3.782   6.392  0.6501 -0.3998 -0.7747
11398TIP3   OH234138   0.512   0.850   1.160  0.5238  0.9040 -0.2709
11398TIP3    H134139   0.424   0.818   1.141 -0.1449  0.4082  3.3187
11398TIP3    H234140   0.500   0.944   1.177  0.8550  1.0153 -0.6243
11399TIP3   OH234141   3.201   5.186   6.809 -0.2490  0.5997  0.1794
11399TIP3    H134142   3.202   5.095   6.839 -0.4492  0.1164 -1.2421
11399TIP3    H234143   3.250   5.234   6.876  4.0991 -1.3104 -1.4459
11400TIP3   OH234144   4.192   1.559   4.882 -0.1465 -0.1426 -0.1905
11400TIP3    H134145   4.174   1.473   4.920  2.8459 -0.3729  0.8711
11400TIP3    H234146   4.136   1.619   4.931  0.5276 -1.0160  1.7351
11401TIP3   OH234147   8.114   7.481   0.544 -0.6374 -0.5665  0.4582
11401TIP3    H134148   8.055   7.477   0.619 -0.7591  0.7039  0.4323
11401TIP3    H234149   8.059   7.507   0.470 -0.1349  0.2307  0.3526
11402TIP3   OH234150   7.917   7.076   0.203  0.0581  0.0176  0.6996
11402TIP3    H134151   7.858   7.013   0.244 -0.3818 -0.4384 -0.5939
11402TIP3    H234152   7.924   7.046   0.112  1.1709  0.8743  0.4932
11403TIP3   OH234153   3.522   5.412   6.757 -0.2214  0.2421 -0.0974
11403TIP3    H134154   3.593   5.348   6.766 -0.1689  0.4747  1.3767
11403TIP3    H234155   3.466   5.377   6.688  1.2636 -0.0007 -1.1967
11404TIP3   OH234156   1.866   0.064   0.899 -0.4762  0.4021  0.2025
11404TIP3    H134157   1.785   0.090   0.943  0.8152  2.4231  1.4961
11404TIP3    H234158   1.877   0.129   0.829 -0.7455 -0.7631 -0.9363
11405TIP3   OH234159   4.018   2.724   5.732  0.5402  0.5042 -0.2150
11405TIP3    H134160   4.060   2.739   5.648 -1.5402 -0.9582 -1.5668
11405TIP3    H234161   3.925   2.738   5.715  0.0284 -0.4333  1.6767
11406TIP3   OH234162   4.206   4.376   5.012  0.7260 -0.1962 -0.1843
11406TIP3    H134163   4.234   4.377   4.920 -0.7788  0.3162 -0.6445
11406TIP3    H234164   4.217   4.467   5.041 -0.0441 -0.0825 -0.2421
11407TIP3   OH234165   6.585   3.745   5.241  0.1191  0.5666 -0.0646
11407TIP3    H134166   6.495   3.718   5.257  0.3687  0.8993  2.0350
11407TIP3    H234167   6.579   3.807   5.168 -1.4460  1.2011  0.5919
11408TIP3   OH234168   5.564   0.929   5.467  0.0664 -0.0188 -0.4792
11408TIP3    H134169   5.523   1.011   5.439  1.2808  0.7686  0.0366
11408TIP3    H234170   5.508   0.861   5.429 -1.9234  1.0220  0.5097
11409TIP3   OH234171   5.609   2.993   6.266 -0.0254  0.2646  0.2238
11409TIP3    H134172   5.681   3.053   6.247  0.8296 -0.7831  0.0977
11409TIP3    H234173   5.609   2.985   6.361  1.0356 -0.9131  0.1520
11410TIP3   OH234174   1.103   0.925   0.093  0.5070  0.8949 -0.1585
11410TIP3    H134175   1.151   0.965   0.020  0.5295  0.8072 -0.1923
11410TIP3    H234176   1.054   0.854   0.053  2.3951 -0.6917  0.2839
11411TIP3   OH234177   4.757   4.703   4.712 -0.4580 -0.0671 -0.0022
11411TIP3    H134178   4.826   4.768   4.704  0.6820 -1.1580  0.7564
11411TIP3    H234179   4.794   4.636   4.771 -1.4107 -1.6419 -1.1641
11412TIP3   OH234180   5.126   3.875   5.195 -0.3121 -0.3373  0.5073
11412TIP3    H134181   5.193   3.915   5.251  0.7626 -1.7213  0.2316
11412TIP3    H234182   5.127   3.782   5.219 -0.8127 -0.6995 -0.8445
11413TIP3   OH234183   4.723   3.370   1.620 -0.1046 -0.0413  0.3028
11413TIP3    H134184   4.763   3.370   1.533 -0.9837 -0.8748 -0.1110
11413TIP3    H234185   4.705   3.463   1.638 -1.0892  0.0172 -0.9508
11414TIP3   OH234186   2.970   4.627   5.820  0.3629  0.7721 -0.4178
11414TIP3    H134187   3.001   4.665   5.738 -0.7979  2.4531 -0.1005
11414TIP3    H234188   2.875   4.625   5.810  0.3494 -1.4871 -0.1638
11415TIP3   OH234189   5.046   5.718   4.950  0.0033  0.1438  0.3655
11415TIP3    H134190   5.009   5.790   4.899 -1.1300 -0.3023  0.5476
11415TIP3    H234191   5.133   5.749   4.974 -0.3017  1.2748  0.0691
11416TIP3   OH234192   3.770   3.571   6.642  0.7128 -0.1643 -0.5505
11416TIP3    H134193   3.782   3.666   6.633  0.0379  0.0744  0.8976
11416TIP3    H234194   3.690   3.553   6.593  1.6016 -0.2181 -2.0061
11417TIP3   OH234195   4.036   4.784   5.163  0.1815  0.0117  0.1814
11417TIP3    H134196   4.130   4.771   5.164  0.2867  0.6271 -0.4725
11417TIP3    H234197   4.000   4.700   5.136  0.6540  0.2110 -1.1240
11418TIP3   OH234198   3.990   5.344   5.512  0.0656 -0.3469  0.1239
11418TIP3    H134199   3.979   5.331   5.418 -1.3579 -0.4179  0.2885
11418TIP3    H234200   4.021   5.260   5.545  0.2077 -0.4302 -0.2232
11419TIP3   OH234201   5.415   5.892   5.225  0.0423 -0.6985  0.0467
11419TIP3    H134202   5.355   5.855   5.290 -1.8627  0.0337 -1.2325
11419TIP3    H234203   5.411   5.986   5.240 -0.0561 -0.5591 -0.8220
11420TIP3   OH234204   1.920   7.786   4.133  0.4037 -0.1620  0.0142
11420TIP3    H134205   1.988   7.846   4.163  0.5794 -0.1949 -0.3242
11420TIP3    H234206   1.921   7.715   4.198  1.0817 -0.4504 -0.2989
11421TIP3   OH234207   3.281   4.435   6.477 -0.1570 -0.0821  0.4683
11421TIP3    H134208   3.238   4.503   6.425 -1.6271 -0.7849  0.7284
11421TIP3    H234209   3.266   4.461   6.567  1.7348  0.7345  0.5572
11422TIP3   OH234210   6.277   5.395   4.899 -0.0491 -0.4897  0.4928
11422TIP3    H134211   6.308   5.305   4.892 -1.6250 -0.8758 -1.9212
11422TIP3    H234212   6.195   5.389   4.948 -1.3565 -0.6848 -1.6631
11423TIP3   OH234213   3.599   4.636   3.302  0.7740  0.7147  0.4774
11423TIP3    H134214   3.616   4.546   3.329 -1.0725  0.3557  0.5077
11423TIP3    H234215   3.686   4.675   3.292  1.5846 -1.0148  0.6283
11424TIP3   OH234216   7.190   4.447   5.210  0.2449 -0.5042  0.3315
11424TIP3    H134217   7.265   4.464   5.267 -1.5245 -1.5817  3.0711
11424TIP3    H234218   7.199   4.355   5.185 -0.2439 -0.6691  0.7673
11425TIP3   OH234219   4.892   6.186   5.261  0.6962 -0.6784 -0.1722
11425TIP3    H134220   4.831   6.186   5.187  0.0290 -2.0065  0.3600
11425TIP3    H234221   4.969   6.140   5.228  0.9627 -0.0171 -0.4816
11426TIP3   OH234222   5.385   0.519   6.658 -0.0376 -0.2405  0.1637
11426TIP3    H134223   5.408   0.505   6.566  3.6420 -0.8289  1.0967
11426TIP3    H234224   5.327   0.445   6.679  2.1748 -2.2968 -0.7064
11427TIP3   OH234225   6.088   5.027   6.630  0.3841  0.0521 -0.7728
11427TIP3    H134226   6.054   5.111   6.600  0.5302  0.5214  0.3461
11427TIP3    H234227   6.017   4.989   6.682  1.1730  0.5590  0.6932
11428TIP3   OH234228   5.949   3.211   5.867  0.3416  0.0331 -0.1961
11428TIP3    H134229   5.855   3.192   5.860  0.4204 -1.6306  2.4795
11428TIP3    H234230   5.952   3.287   5.925  0.7167 -1.1364  1.3368
11429TIP3   OH234231   5.637   4.133   5.362 -0.5205 -0.2261  0.0077
11429TIP3    H134232   5.605   4.112   5.274  0.7710 -0.0107 -0.5290
11429TIP3    H234233   5.575   4.091   5.421 -1.5585 -0.1379 -1.0080
11430TIP3   OH234234   4.491   5.987   5.683  0.7734  0.3238 -0.0463
11430TIP3    H134235   4.540   5.983   5.765  2.2150 -0.0406 -0.9032
11430TIP3    H234236   4.556   5.967   5.616 -0.3300  0.8871 -1.3004
11431TIP3   OH234237   7.210   0.861   5.610  0.0291  0.1355  0.2614
11431TIP3    H134238   7.152   0.866   5.686  1.3133  1.6118  1.1723
11431TIP3    H234239   7.192   0.941   5.561 -0.5006 -0.6176 -0.8003
11432TIP3   OH234240   6.389   5.785   5.925  0.4851  1.0080  0.7353
11432TIP3    H134241   6.370   5.691   5.928 -0.6813  1.2485  1.2509
11432TIP3    H234242   6.308   5.825   5.893  1.5697  1.6890 -1.3007
11433TIP3   OH234243   7.922   6.485   0.923 -0.3299  0.1466 -0.4943
11433TIP3    H134244   7.878   6.536   0.991 -1.9004 -0.2743 -1.1718
11433TIP3    H234245   7.951   6.405   0.967 -0.8958  0.1020 -0.1997
11434TIP3   OH234246   6.454   6.034   5.495 -0.0242  0.2624 -0.0432
11434TIP3    H134247   6.366   6.020   5.530 -0.3289 -1.1718 -1.3375
11434TIP3    H234248   6.503   5.955   5.520  0.1952 -0.0657 -1.4772
11435TIP3   OH234249   4.882   5.985   4.933  0.5195 -0.3296  0.4976
11435TIP3    H134250   4.866   5.912   4.874  1.0385  0.3694 -0.5185
11435TIP3    H234251   4.815   6.049   4.912  0.7721 -0.0306  0.5904
11436TIP3   OH234252   3.045   1.941   0.362  0.2916  0.0060 -0.6385
11436TIP3    H134253   3.013   1.851   0.362 -0.9285  0.4264  1.0331
11436TIP3    H234254   2.981   1.990   0.310 -0.7934  0.4911  1.1258
11437TIP3   OH234255   6.653   5.114   6.599 -0.5021 -0.4475 -0.3846
11437TIP3    H134256   6.580   5.174   6.583  0.4708  1.1640  1.1131
11437TIP3    H234257   6.668   5.072   6.514 -0.9436  1.7142 -1.5599
11438TIP3   OH234258   6.984   5.987   5.689  0.2615 -0.4786 -0.1955
11438TIP3    H134259   6.928   6.042   5.635 -0.9538 -0.4817  1.0472
11438TIP3    H234260   7.060   6.042   5.708  1.2307 -0.8558 -2.7936
11439TIP3   OH234261   1.373   5.234   0.238  0.5120  0.2393 -0.0584
11439TIP3    H134262   1.327   5.314   0.212  0.7170  0.2976 -0.2469
11439TIP3    H234263   1.304   5.168   0.248  0.4071  0.2796 -0.5134
11440TIP3   OH234264   4.191   4.848   2.922 -0.0130 -0.4763 -0.1950
11440TIP3    H134265   4.096   4.837   2.932  0.0154 -0.5122  0.0240
11440TIP3    H234266   4.222   4.761   2.895  0.1752 -0.8760  1.2731
11441TIP3   OH234267   7.651   6.915   0.818  0.5921  0.1888  0.0089
11441TIP3    H134268   7.665   7.003   0.854 -2.3285  0.1690  1.3138
11441TIP3    H234269   7.568   6.922   0.771  0.1140 -2.0121  0.5100
11442TIP3   OH234270   6.570   4.655   5.457 -0.1952 -0.1077 -0.2040
11442TIP3    H134271   6.630   4.622   5.524 -2.0704 -1.4243  0.8860
11442TIP3    H234272   6.550   4.744   5.485  0.7854  0.1405 -0.2631
11443TIP3   OH234273   5.058   6.813   6.901  0.6385 -0.1959  0.0710
11443TIP3    H134274   5.100   6.886   6.855  1.7660 -0.4738  0.6467
11443TIP3    H234275   5.110   6.737   6.877 -0.6506 -0.8558 -0.6799
11444TIP3   OH234276   4.155   4.238   4.597  0.2312 -0.0211 -0.1356
11444TIP3    H134277   4.169   4.159   4.544 -0.7881  1.1691 -2.2735
11444TIP3    H234278   4.222   4.234   4.665  0.6307 -2.3706 -0.6216
11445TIP3   OH234279   4.046   3.156   5.529  0.2379 -0.1084  0.3488
11445TIP3    H134280   4.056   3.135   5.436  0.4554 -1.5945  0.6832
11445TIP3    H234281   4.134   3.150   5.565  0.5630  3.0021  0.1883
11446TIP3   OH234282   8.103   3.035   5.897 -0.4850  0.5368  0.1684
11446TIP3    H134283   8.194   3.015   5.874 -0.0991  0.6240  1.5553
11446TIP3    H234284   8.060   3.054   5.813  0.7473  0.4024 -0.5017
11447TIP3   OH234285   5.517   3.106   5.975 -0.0075  0.0277 -0.4657
11447TIP3    H134286   5.450   3.039   5.961  0.0663 -0.1160 -0.1236
11447TIP3    H234287   5.509   3.130   6.067  0.6303 -0.2208 -0.3441
11448TIP3   OH234288   4.390   6.230   5.596 -0.6862  0.4977  0.3034
11448TIP3    H134289   4.319   6.217   5.534  0.4164 -1.1806 -0.6392
11448TIP3    H234290   4.411   6.142   5.628  0.8278  0.9908  0.7152
11449TIP3   OH234291   8.273   0.460   0.722 -0.3680  0.4418 -0.2276
11449TIP3    H134292   8.275   0.556   0.724 -0.4842  0.4259  1.3877
11449TIP3    H234293   8.364   0.435   0.708 -0.3903  0.7912 -1.0269
11450TIP3   OH234294   4.321   2.952   6.098 -0.7054  0.0868  0.4795
11450TIP3    H134295   4.335   3.044   6.123 -1.3208 -0.5816  3.5788
11450TIP3    H234296   4.313   2.906   6.182  0.0746 -2.8879 -1.0130
11451TIP3   OH234297   4.924   4.644   5.812 -0.2361  0.2487 -0.3890
11451TIP3    H134298   4.937   4.693   5.893  0.3041 -0.8521  0.2120
11451TIP3    H234299   5.011   4.614   5.787 -0.5742 -0.5609 -0.6297
11452TIP3   OH234300   4.388   6.320   2.997 -0.1030 -0.4722  0.8744
11452TIP3    H134301   4.306   6.335   3.044  0.6373 -0.2666  2.1330
11452TIP3    H234302   4.455   6.325   3.065  0.8878 -1.3216 -0.0379
11453TIP3   OH234303   7.433   6.848   0.578 -0.5985 -0.1004 -0.3088
11453TIP3    H134304   7.446   6.770   0.632 -0.5102 -0.2236 -0.5052
11453TIP3    H234305   7.384   6.817   0.502  0.7296 -0.2765 -1.1252
11454TIP3   OH234306   7.057   7.929   1.237 -0.1603  0.1288 -0.6761
11454TIP3    H134307   7.052   7.841   1.201  0.9222 -0.2661  0.1322
11454TIP3    H234308   7.136   7.967   1.197 -0.4413  0.6318 -0.7695
11455TIP3   OH234309   6.471   1.178   5.765  0.0670  0.4542 -0.7374
11455TIP3    H134310   6.378   1.192   5.783  0.0876 -1.1804  0.7319
11455TIP3    H234311   6.516   1.247   5.815 -0.2521 -0.1421  0.3965
11456TIP3   OH234312   3.462   2.402   5.463  0.3111  0.5864 -0.0560
11456TIP3    H134313   3.381   2.452   5.448  1.0843  1.9956  0.3594
11456TIP3    H234314   3.530   2.469   5.471  1.3498 -0.5446  0.6961
11457TIP3   OH234315   4.299   3.456   6.247  0.6421 -0.6245 -0.5449
11457TIP3    H134316   4.227   3.432   6.189  1.3488 -0.5438 -1.4550
11457TIP3    H234317   4.272   3.423   6.333  0.0780 -1.6750 -1.1122
11458TIP3   OH234318   2.524   1.972   0.433 -0.1949  0.0200 -0.2730
11458TIP3    H134319   2.496   1.933   0.351 -0.7975  0.5118 -0.3104
11458TIP3    H234320   2.568   2.053   0.408  1.1281 -0.6575 -0.2024
11459TIP3   OH234321   3.353   5.754   5.766 -0.0485  0.4938  0.1353
11459TIP3    H134322   3.436   5.713   5.741  0.1385 -0.0807  1.6322
11459TIP3    H234323   3.375   5.846   5.778  0.6058  0.1828  1.4597
11460TIP3   OH234324   4.851   4.747   5.533 -0.2643 -0.1316 -0.3568
11460TIP3    H134325   4.936   4.758   5.490 -0.3199 -1.1846 -0.7526
11460TIP3    H234326   4.872   4.736   5.626  0.0869 -1.0010 -0.5300
11461TIP3   OH234327   4.975   4.832   5.999  0.3813  0.1840  0.2008
11461TIP3    H134328   4.961   4.922   6.028  0.0934  0.5469 -1.0232
11461TIP3    H234329   4.941   4.778   6.070  2.0080  1.0263  1.6603
11462TIP3   OH234330   2.575   1.617   5.748 -0.0738 -0.1995 -0.1434
11462TIP3    H134331   2.508   1.557   5.779  1.7352 -0.6723  3.0520
11462TIP3    H234332   2.649   1.560   5.724 -0.3891  0.3838 -2.6764
11463TIP3   OH234333   4.100   5.976   3.819 -0.3781  0.0121 -0.3922
11463TIP3    H134334   4.160   6.000   3.749  1.3033 -1.0806  0.6284
11463TIP3    H234335   4.126   6.030   3.893 -0.6729 -0.4539  0.0541
11464TIP3   OH234336   3.582   5.634   5.670  0.1640  0.2729 -0.0715
11464TIP3    H134337   3.554   5.678   5.589  1.0848  1.5376  0.2859
11464TIP3    H234338   3.658   5.582   5.644  0.6166  0.8787  0.0186
11465TIP3   OH234339   5.795   5.182   6.099 -0.0658  0.0455  0.1683
11465TIP3    H134340   5.715   5.134   6.120 -0.1440 -0.7861 -1.8996
11465TIP3    H234341   5.862   5.141   6.153 -0.7277 -0.3473  0.7028
11466TIP3   OH234342   5.822   8.005   0.875 -0.3150  0.3178 -0.1818
11466TIP3    H134343   5.821   7.930   0.815 -2.2761 -0.0071  0.2225
11466TIP3    H234344   5.749   7.989   0.935  0.1042  1.8693  0.7779
11467TIP3   OH234345   4.968   5.001   4.769  0.0392  0.2043 -0.3880
11467TIP3    H134346   4.949   4.953   4.688 -0.4576 -1.0008  0.4281
11467TIP3    H234347   4.902   5.069   4.773 -0.2221 -0.0269 -0.7770
11468TIP3   OH234348   6.716   4.582   4.080 -0.5810 -0.1871 -0.0790
11468TIP3    H134349   6.773   4.612   4.151  0.3534 -1.0428 -0.4466
11468TIP3    H234350   6.635   4.631   4.091  0.4306  1.4847  0.1252
11469TIP3   OH234351   5.367   3.081   5.705 -0.1903 -0.2560 -0.0483
11469TIP3    H134352   5.429   3.126   5.648  0.2759  0.1185  0.7468
11469TIP3    H234353   5.389   2.989   5.698 -0.7082 -0.3015 -1.1571
11470TIP3   OH234354   6.260   4.612   5.784 -0.3630  0.0762  0.2102
11470TIP3    H134355   6.199   4.539   5.773 -0.7173  0.2287  1.0923
11470TIP3    H234356   6.340   4.572   5.818 -0.0170 -0.1098 -0.8329
11471TIP3   OH234357   1.910   3.668   5.353 -0.1481 -0.3121 -0.1217
11471TIP3    H134358   1.820   3.682   5.325  0.2225 -0.8486 -1.6389
11471TIP3    H234359   1.956   3.643   5.273  0.9489 -1.9298  1.0010
11472TIP3   OH234360   7.953   6.664   0.325 -0.2477 -0.3862 -0.1282
11472TIP3    H134361   8.027   6.662   0.264 -0.4026  0.4491 -0.3516
11472TIP3    H234362   7.992   6.640   0.410  0.3544  0.3702 -0.1792
11473TIP3   OH234363   6.853   7.177   1.089  0.3488 -0.0011 -0.2135
11473TIP3    H134364   6.915   7.250   1.086  1.5837 -1.0587 -1.8185
11473TIP3    H234365   6.810   7.178   1.004  1.5567 -2.0951 -0.8966
11474TIP3   OH234366   4.744   3.613   6.024  0.2150  0.4975 -0.3702
11474TIP3    H134367   4.657   3.639   5.994 -0.6917 -0.1591  1.6533
11474TIP3    H234368   4.775   3.550   5.958 -0.9642  0.4817 -0.9126
11475TIP3   OH234369   5.197   3.617   6.169 -0.3361 -0.0489  0.0318
11475TIP3    H134370   5.175   3.590   6.080 -0.6768 -1.5027  0.5507
11475TIP3    H234371   5.113   3.618   6.215 -0.0651 -0.0266  0.5315
11476TIP3   OH234372   4.458   5.910   2.917  0.1549 -0.3439  0.0959
11476TIP3    H134373   4.393   5.921   2.848  0.1034  1.5639  0.4199
11476TIP3    H234374   4.410   5.929   2.998  1.0081  0.6016  0.3777
11477TIP3   OH234375   2.944   2.420   6.381 -0.3595  0.3094 -0.1421
11477TIP3    H134376   3.000   2.361   6.431 -1.6031 -0.2951  0.5757
11477TIP3    H234377   2.943   2.384   6.293  1.2385  0.9442 -0.4357
11478TIP3   OH234378   6.651   6.026   1.574 -0.7430  0.2813 -0.1114
11478TIP3    H134379   6.732   6.048   1.528 -1.7653  0.6399 -1.7787
11478TIP3    H234380   6.634   5.935   1.548 -1.1038  0.3550 -0.1337
11479TIP3   OH234381   3.937   4.896   4.719 -0.0331  0.4307  1.1904
11479TIP3    H134382   4.012   4.896   4.778  1.3794 -2.1986 -0.5097
11479TIP3    H234383   3.880   4.827   4.753 -0.3650  0.5394  0.8543
11480TIP3   OH234384   2.808   1.292   1.713  0.2606 -0.4207 -0.0036
11480TIP3    H134385   2.816   1.273   1.806  2.1885 -0.1936 -0.0978
11480TIP3    H234386   2.859   1.371   1.700 -0.1365 -0.3536 -1.2269
11481TIP3   OH234387   0.902   1.003   0.265  0.2657  0.3166 -0.0495
11481TIP3    H134388   0.854   1.053   0.199  0.9430  0.2148 -0.6257
11481TIP3    H234389   0.981   0.973   0.220 -0.2694 -1.5155  0.2131
11482TIP3   OH234390   6.717   7.916   0.606 -0.2676 -0.2797 -0.1446
11482TIP3    H134391   6.702   7.874   0.691 -0.1916  0.6683  0.3527
11482TIP3    H234392   6.687   8.007   0.619  0.4078  0.0596 -0.9196
11483TIP3   OH234393   5.165   2.767   6.495  0.3435 -0.5786 -0.5875
11483TIP3    H134394   5.225   2.826   6.450 -0.4413  0.5223 -0.2163
11483TIP3    H234395   5.123   2.716   6.426  0.7052 -0.3902 -0.9427
11484TIP3   OH234396   7.454   3.235   5.933 -0.0857 -0.7272 -0.2571
11484TIP3    H134397   7.435   3.173   5.863  2.2102 -2.0635  0.2567
11484TIP3    H234398   7.548   3.249   5.928  0.1721 -1.0120  2.7045
11485TIP3   OH234399   7.728   7.944   0.248 -0.6154 -0.0124  0.0524
11485TIP3    H134400   7.794   7.874   0.246 -0.8328 -0.2052 -0.5370
11485TIP3    H234401   7.769   8.017   0.200 -0.3565  0.2979  0.7366
11486TIP3   OH234402   6.035   3.224   6.680  0.2523  0.1506 -0.1300
11486TIP3    H134403   5.949   3.231   6.639 -0.1342  0.5177  0.7440
11486TIP3    H234404   6.031   3.143   6.730  1.1004 -0.8860 -1.6679
11487TIP3   OH234405   1.338   1.553   0.778 -0.9809 -0.3639  0.2540
11487TIP3    H134406   1.386   1.632   0.751 -1.4267  0.4007  1.6446
11487TIP3    H234407   1.382   1.482   0.731  1.1061  0.4043  0.9665
11488TIP3   OH234408   5.052   3.096   6.578  0.2719  0.1307  0.1285
11488TIP3    H134409   5.018   3.172   6.625 -0.6190 -0.1938  0.0087
11488TIP3    H234410   4.975   3.055   6.539  0.3458 -2.5679  2.6829
11489TIP3   OH234411   5.242   1.268   5.757  0.6329  0.7020  0.5061
11489TIP3    H134412   5.226   1.175   5.744  1.5443  0.6190 -0.0811
11489TIP3    H234413   5.229   1.282   5.851  0.8885 -0.1050  0.6647
11490TIP3   OH234414   3.152   5.391   5.070  0.3283 -0.4818  0.1050
11490TIP3    H134415   3.234   5.427   5.037  1.2852 -1.4030  1.4035
11490TIP3    H234416   3.153   5.299   5.043  1.1568 -1.2770  2.6228
11491TIP3   OH234417   5.635   4.408   6.109  0.3813  0.3556 -0.2738
11491TIP3    H134418   5.549   4.382   6.076  0.7151 -0.1256 -0.7770
11491TIP3    H234419   5.660   4.483   6.055  0.0185  0.8828  0.2757
11492TIP3   OH234420   3.185   5.101   5.045 -0.0796 -0.5037 -0.2118
11492TIP3    H134421   3.228   5.074   5.126  0.4103  0.3142 -0.2016
11492TIP3    H234422   3.101   5.054   5.046  0.5887 -1.7086  0.0072
11493TIP3   OH234423   1.516   3.761   4.998  0.0386  0.0228  0.5325
11493TIP3    H134424   1.497   3.670   5.020 -0.1035  0.1578  0.9609
11493TIP3    H234425   1.512   3.763   4.902  1.4994 -0.7522  0.4331
11494TIP3   OH234426   3.891   6.447   6.634  0.4256  0.6256 -0.0840
11494TIP3    H134427   3.894   6.365   6.682  2.3820 -0.7868 -2.5386
11494TIP3    H234428   3.804   6.483   6.654 -1.4815 -3.2557 -0.9524
11495TIP3   OH234429   3.356   0.533   0.230  0.2679  0.0214  0.1538
11495TIP3    H134430   3.263   0.530   0.205  0.5628 -1.8919 -0.7860
11495TIP3    H234431   3.355   0.522   0.325 -0.3875 -1.5935 -0.0266
11496TIP3   OH234432   2.372   1.854   0.749  0.3742 -0.7103  0.3003
11496TIP3    H134433   2.332   1.813   0.673 -0.3130  0.1236  0.1943
11496TIP3    H234434   2.358   1.948   0.735  1.4039 -0.4720  0.8074
11497TIP3   OH234435   4.755   4.355   4.438 -0.1098  0.1600  0.1257
11497TIP3    H134436   4.745   4.330   4.346  0.4336 -0.7537  0.3105
11497TIP3    H234437   4.824   4.298   4.471  1.2653  2.0268  0.5285
11498TIP3   OH234438   6.292   4.926   4.305  0.1167  0.3648 -0.3766
11498TIP3    H134439   6.366   4.975   4.343 -0.3805  1.5441 -0.8981
11498TIP3    H234440   6.332   4.848   4.267  1.3523  1.8189 -2.1724
11499TIP3   OH234441   5.164   4.861   4.937 -0.2041  0.1760 -0.4698
11499TIP3    H134442   5.176   4.909   5.019 -2.8842 -0.9649  0.6481
11499TIP3    H234443   5.102   4.912   4.887 -0.2068 -0.2196 -0.8756
11500TIP3   OH234444   6.094   4.335   5.710  0.4183  0.3972 -0.4636
11500TIP3    H134445   6.049   4.343   5.794  0.0659  0.6106 -0.6710
11500TIP3    H234446   6.023   4.326   5.646  0.6894  0.0794 -0.7207
11501TIP3   OH234447   4.209   3.009   5.243 -0.1043 -0.1365 -0.3840
11501TIP3    H134448   4.233   2.956   5.167  1.2915  0.6460 -0.5102
11501TIP3    H234449   4.281   2.997   5.305 -0.4965  0.4243  0.1960
11502TIP3   OH234450   5.970   2.358   6.709  0.6999 -0.1998  0.9241
11502TIP3    H134451   6.006   2.293   6.650  0.2494 -0.5192  0.9948
11502TIP3    H234452   5.898   2.313   6.754  0.7418  0.1764  1.3762
11503TIP3   OH234453   3.283   4.163   5.753  0.0502 -0.2905  0.0444
11503TIP3    H134454   3.366   4.145   5.709  0.0667  1.6569 -0.7612
11503TIP3    H234455   3.297   4.133   5.843  0.1358 -3.9735 -1.1235
11504TIP3   OH234456   3.020   0.867   0.826 -0.2523 -0.8254 -0.2828
11504TIP3    H134457   2.986   0.943   0.873 -0.2985 -1.3025  0.4724
11504TIP3    H234458   2.970   0.793   0.862  1.4146 -1.5112  0.6656
11505TIP3   OH234459   1.882   0.255   0.694 -0.3615 -0.0162 -0.4895
11505TIP3    H134460   1.835   0.216   0.620 -0.4992  0.6002 -0.7281
11505TIP3    H234461   1.914   0.338   0.661 -0.2474  0.1715  0.0873
11506TIP3   OH234462   4.575   3.872   4.853 -0.0769 -0.4722 -0.0598
11506TIP3    H134463   4.543   3.817   4.925  1.6494  0.3693  1.3938
11506TIP3    H234464   4.541   3.829   4.774  0.5933 -3.2055  1.0650
11507TIP3   OH234465   3.786   4.836   4.110 -0.5982  0.1201  0.6838
11507TIP3    H134466   3.812   4.758   4.159 -1.3552  0.4626  1.6514
11507TIP3    H234467   3.862   4.858   4.056  0.0907 -0.5006  1.4076
11508TIP3   OH234468   4.891   3.763   6.453 -0.7849 -0.1804 -0.1454
11508TIP3    H134469   4.946   3.819   6.397  0.1223 -0.5287  0.3811
11508TIP3    H234470   4.842   3.824   6.508 -0.7465  0.1321 -0.4551
11509TIP3   OH234471   6.778   4.357   6.377  0.2310 -0.4709  0.0427
11509TIP3    H134472   6.759   4.291   6.310 -0.5955  2.6682 -2.9741
11509TIP3    H234473   6.695   4.374   6.420  0.2733 -0.7915  0.2501
11510TIP3   OH234474   3.873   4.693   6.918  0.1886 -0.6509 -0.4402
11510TIP3    H134475   3.965   4.665   6.919 -0.0708 -1.6059 -1.5050
11510TIP3    H234476   3.824   4.613   6.934 -0.5426 -0.6730 -2.5677
11511TIP3   OH234477   2.312   5.648   0.097  0.5396  0.1699 -0.6871
11511TIP3    H134478   2.348   5.647   0.008  0.8794  0.0193 -0.5464
11511TIP3    H234479   2.228   5.693   0.088 -0.0054 -0.9330 -1.3119
11512TIP3   OH234480   5.061   3.594   4.897  0.0309 -0.3060 -0.2424
11512TIP3    H134481   5.135   3.536   4.915  0.2757  0.3432  0.8559
11512TIP3    H234482   5.010   3.595   4.978 -0.6938 -0.0371 -0.6949
11513TIP3   OH234483   5.082   4.615   6.402  0.2607  0.7843  0.2267
11513TIP3    H134484   5.079   4.708   6.422  0.4513  0.0561  3.9037
11513TIP3    H234485   4.990   4.588   6.402  0.2519  0.8047 -0.1305
11514TIP3   OH234486   2.232   0.921   2.389 -0.3407  0.5312 -0.6337
11514TIP3    H134487   2.267   0.906   2.477 -0.1062  1.5665 -0.5415
11514TIP3    H234488   2.305   0.960   2.341 -1.2132  2.3086 -0.5557
11515TIP3   OH234489   7.159   2.655   5.079 -0.9540  0.3981 -0.1761
11515TIP3    H134490   7.157   2.587   5.146 -0.2990  1.8472  1.3523
11515TIP3    H234491   7.227   2.626   5.018  1.4026  1.0609  2.0203
11516TIP3   OH234492   5.668   3.312   5.845  0.2356  0.1192  0.2900
11516TIP3    H134493   5.591   3.367   5.859 -1.1307 -1.6405 -0.1182
11516TIP3    H234494   5.646   3.228   5.886  1.5090 -0.7375 -0.7349
11517TIP3   OH234495   3.280   3.548   6.074  0.0626 -0.1964  0.8509
11517TIP3    H134496   3.311   3.549   5.983 -1.0589  3.7813  0.4151
11517TIP3    H234497   3.361   3.548   6.126  0.7679  1.2640 -0.1996
11518TIP3   OH234498   3.224   5.160   6.360 -0.3104 -0.1275 -0.3410
11518TIP3    H134499   3.183   5.236   6.318  1.6454  1.6969  0.9415
11518TIP3    H234500   3.226   5.093   6.291 -2.2643  0.8821 -1.4294
11519TIP3   OH234501   4.446   5.427   5.565 -0.2756 -0.3526 -0.1626
11519TIP3    H134502   4.376   5.490   5.581 -0.5863 -0.6422 -0.3852
11519TIP3    H234503   4.512   5.448   5.631 -0.3037  0.3110 -0.3397
11520TIP3   OH234504   4.560   5.204   6.343  0.0245  0.2942  0.8842
11520TIP3    H134505   4.550   5.296   6.364 -0.3264  0.9442 -1.9519
11520TIP3    H234506   4.472   5.167   6.352 -0.0107  0.4442  1.1295
11521TIP3   OH234507   5.940   4.588   5.286 -0.1040  0.1257 -0.3059
11521TIP3    H134508   5.985   4.623   5.362  0.3896 -1.0411 -0.0390
11521TIP3    H234509   5.856   4.633   5.283 -0.3462 -0.2239  1.2447
11522TIP3   OH234510   5.631   4.435   6.849  0.0253 -0.3277 -0.1153
11522TIP3    H134511   5.607   4.344   6.868  0.5532 -0.9469 -2.3171
11522TIP3    H234512   5.724   4.431   6.827  0.5560  1.0707  1.7206
11523TIP3   OH234513   0.359   0.190   2.182 -0.2541 -0.1783 -0.2086
11523TIP3    H134514   0.352   0.270   2.233  1.1856  0.6053 -1.2181
11523TIP3    H234515   0.364   0.120   2.247  1.8709  0.8231  0.7568
11524TIP3   OH234516   5.938   4.090   6.693  1.0718  0.2393  0.1286
11524TIP3    H134517   5.935   3.995   6.686 -1.6640  0.3815 -1.2483
11524TIP3    H234518   6.017   4.116   6.645  1.8221 -1.3190  0.5066
11525TIP3   OH234519   1.784   0.162   1.875 -0.2600 -0.4130 -0.1766
11525TIP3    H134520   1.721   0.095   1.846 -0.1457 -0.3073 -0.6759
11525TIP3    H234521   1.835   0.119   1.944  0.2186 -1.0449 -0.9157
11526TIP3   OH234522   3.762   0.904   1.796 -0.1319  0.2132 -0.1955
11526TIP3    H134523   3.706   0.959   1.741 -1.2014  0.8033  1.4248
11526TIP3    H234524   3.830   0.964   1.827  1.1949 -0.4150 -1.8621
11527TIP3   OH234525   5.155   7.047   6.143 -0.5024  0.4178  0.2996
11527TIP3    H134526   5.236   7.028   6.095 -1.1926 -0.9129 -0.3824
11527TIP3    H234527   5.157   7.141   6.159 -0.1992  0.8725 -2.2691
11528TIP3   OH234528   3.439   1.739   0.214 -0.1497 -0.2835 -0.4520
11528TIP3    H134529   3.399   1.823   0.189 -0.3892 -0.4725 -0.7081
11528TIP3    H234530   3.370   1.674   0.199 -0.6242 -0.2833  1.6435
11529TIP3   OH234531   2.471   5.529   5.283 -0.0371 -0.2134  0.2670
11529TIP3    H134532   2.460   5.456   5.222  1.1267  1.2563 -1.7925
11529TIP3    H234533   2.390   5.530   5.334 -1.5301 -0.8348 -2.0036
11530TIP3   OH234534   4.006   1.086   0.082 -0.2055 -0.2716  0.0710
11530TIP3    H134535   3.918   1.085   0.044  0.2429 -1.0304 -0.9923
11530TIP3    H234536   4.010   1.007   0.135 -0.3399  0.0352  0.5397
11531TIP3   OH234537   2.822   5.524   6.274 -0.2586  0.1310 -0.1866
11531TIP3    H134538   2.795   5.595   6.333 -2.5761 -0.4344 -0.5115
11531TIP3    H234539   2.916   5.516   6.288 -0.2321  2.1596  1.0748
11532TIP3   OH234540   1.602   3.610   6.643 -0.2942 -1.1753 -0.9781
11532TIP3    H134541   1.675   3.549   6.651 -0.2468 -1.4657 -3.1755
11532TIP3    H234542   1.638   3.684   6.595 -0.9812 -0.5241 -0.4958
11533TIP3   OH234543   1.781   0.801   0.044  0.2263 -0.4074  0.6258
11533TIP3    H134544   1.851   0.738   0.059 -0.9913 -2.2704 -1.2760
11533TIP3    H234545   1.703   0.759   0.080 -0.3036  0.7564  0.8606
11534TIP3   OH234546   7.859   3.091   6.223 -0.2118  0.4190  0.4898
11534TIP3    H134547   7.904   3.159   6.172 -0.0340  0.4760  0.7223
11534TIP3    H234548   7.837   3.024   6.158 -1.5682  1.2964  0.0367
11535TIP3   OH234549   1.347   1.160   0.699  0.0869 -0.4504 -0.3773
11535TIP3    H134550   1.426   1.138   0.748 -0.4995  1.0013  1.3040
11535TIP3    H234551   1.279   1.106   0.738 -0.2210  0.1001 -0.1411
11536TIP3   OH234552   3.878   4.081   6.749 -0.2696 -0.3466  0.2655
11536TIP3    H134553   3.848   4.078   6.839 -0.1752 -1.1702  0.2721
11536TIP3    H234554   3.934   4.158   6.745  0.9099 -1.1451  1.2735
11537TIP3   OH234555   5.228   4.091   5.658  0.1890  0.3215  0.3061
11537TIP3    H134556   5.282   4.159   5.698  1.0597  0.1668 -0.5765
11537TIP3    H234557   5.203   4.034   5.730 -1.0775  1.9359  1.1514
11538TIP3   OH234558   5.475   3.519   5.257 -0.2224  0.1417 -0.0561
11538TIP3    H134559   5.539   3.450   5.246  0.1678  0.2145  1.5968
11538TIP3    H234560   5.520   3.599   5.230  0.2943  0.1556  0.8526
11539TIP3   OH234561   7.073   1.839   4.174 -0.0934  0.1761 -0.4901
11539TIP3    H134562   7.165   1.811   4.165 -0.1577 -0.0718 -0.3810
11539TIP3    H234563   7.070   1.886   4.257  0.2880  1.6306 -1.2750
11540TIP3   OH234564   4.555   5.666   5.692 -0.4522  0.6380 -0.2416
11540TIP3    H134565   4.510   5.699   5.614 -1.9076 -0.6623  0.0378
11540TIP3    H234566   4.595   5.744   5.731 -1.6596  1.6684 -1.0282
11541TIP3   OH234567   6.929   7.587   0.043  0.2530  0.7611 -0.5237
11541TIP3    H134568   6.876   7.664   0.065 -3.0239 -1.7401  0.8873
11541TIP3    H234569   7.005   7.593   0.100 -0.6591  2.2370  0.5792
11542TIP3   OH234570   5.102   1.567   5.893 -0.2975 -0.1175 -0.4162
11542TIP3    H134571   5.105   1.638   5.829  2.5892  0.0483 -0.1717
11542TIP3    H234572   5.045   1.600   5.963 -0.6720  1.0835 -1.2816
11543TIP3   OH234573   5.353   4.774   6.201 -0.0110 -0.3705  0.3594
11543TIP3    H134574   5.337   4.762   6.295 -0.1799 -0.2025  0.3534
11543TIP3    H234575   5.336   4.867   6.186  0.1323 -0.3739  0.1849
11544TIP3   OH234576   2.373   0.682   1.182  0.3754  0.9609  0.3924
11544TIP3    H134577   2.283   0.714   1.188  0.7159  2.1623 -0.7804
11544TIP3    H234578   2.379   0.645   1.094  0.6772 -0.2279  0.9038
11545TIP3   OH234579   3.180   4.080   6.143 -0.8058  0.3592 -0.1791
11545TIP3    H134580   3.085   4.083   6.161 -0.4806 -0.0698  1.7397
11545TIP3    H234581   3.209   4.000   6.185  0.4689  0.6558 -0.4910
11546TIP3   OH234582   8.045   1.082   0.227  0.2939 -0.3828 -0.3088
11546TIP3    H134583   7.971   1.129   0.265  1.3347 -1.8635  3.8721
11546TIP3    H234584   8.006   1.006   0.183 -0.9120  0.8832 -1.4437
11547TIP3   OH234585   3.871   3.889   4.826 -0.1028 -0.6651 -0.2315
11547TIP3    H134586   3.785   3.857   4.853  0.4863 -1.0768  1.2199
11547TIP3    H234587   3.854   3.979   4.797 -0.8035 -0.2048  1.5005
11548TIP3   OH234588   7.987   7.343   1.143 -0.4279  0.3857 -0.0567
11548TIP3    H134589   8.051   7.374   1.207  1.4110 -1.1846 -1.0742
11548TIP3    H234590   7.959   7.258   1.176 -0.5284  0.1998 -0.6125
11549TIP3   OH234591   3.858   0.134   1.053 -0.0123  0.6713  0.2353
11549TIP3    H134592   3.873   0.219   1.013 -1.4178  1.3259  1.0418
11549TIP3    H234593   3.862   0.072   0.980  2.7524  1.1831 -0.1185
11550TIP3   OH234594   4.608   6.919   5.112  0.2250 -0.4395  0.0570
11550TIP3    H134595   4.515   6.939   5.098 -0.0777 -1.7932  0.0865
11550TIP3    H234596   4.640   6.891   5.027  0.4447 -0.6265  0.2022
11551TIP3   OH234597   6.460   3.129   6.562 -0.1640 -0.4565 -0.4182
11551TIP3    H134598   6.532   3.191   6.573 -0.4327  0.0473 -1.4701
11551TIP3    H234599   6.411   3.135   6.644  0.8271 -0.5899  0.1863
11552TIP3   OH234600   5.531   5.199   5.084 -0.0571 -0.2833 -0.4990
11552TIP3    H134601   5.495   5.285   5.063  1.4809  0.0935 -1.5981
11552TIP3    H234602   5.472   5.137   5.041 -1.4006  0.1682  0.6236
11553TIP3   OH234603   6.166   5.694   6.872  0.6373 -0.4680 -0.2833
11553TIP3    H134604   6.075   5.667   6.872 -0.3998  2.7638  0.9820
11553TIP3    H234605   6.165   5.781   6.832  3.0717 -0.1341  0.2813
11554TIP3   OH234606   5.638   4.443   5.754 -0.6622 -0.0604 -0.2252
11554TIP3    H134607   5.702   4.494   5.804 -1.4989  1.0774 -0.2989
11554TIP3    H234608   5.675   4.354   5.751  0.6693  0.4748  0.1443
11555TIP3   OH234609   5.864   6.336   6.855 -0.1321  0.2246  0.1398
11555TIP3    H134610   5.905   6.315   6.771 -0.2592  1.3963 -0.2295
11555TIP3    H234611   5.858   6.431   6.855 -0.0929  0.2300  1.5105
11556TIP3   OH234612   4.948   0.724   6.291 -0.1378 -0.3953 -0.6965
11556TIP3    H134613   5.034   0.700   6.325 -0.9143 -3.2628 -0.6450
11556TIP3    H234614   4.891   0.725   6.368 -0.8004 -1.6790 -1.1602
11557TIP3   OH234615   5.524   7.576   4.374 -0.5566 -0.5343  0.3452
11557TIP3    H134616   5.520   7.671   4.382 -0.9198 -0.6934  2.4143
11557TIP3    H234617   5.480   7.543   4.453 -0.3284 -2.4126 -0.2739
11558TIP3   OH234618   5.879   3.465   5.700  0.6667  0.4326 -0.1901
11558TIP3    H134619   5.970   3.444   5.721  1.2202 -0.7939 -3.5802
11558TIP3    H234620   5.828   3.410   5.759  2.1004  0.4456  1.0982
11559TIP3   OH234621   7.793   3.816   6.521 -0.2434  0.3111  0.3766
11559TIP3    H134622   7.868   3.836   6.465 -1.5326  0.3714 -1.3706
11559TIP3    H234623   7.729   3.885   6.502 -1.6023 -0.9646  0.1739
11560TIP3   OH234624   5.827   4.695   5.722 -0.1316  0.5706 -0.4808
11560TIP3    H134625   5.803   4.741   5.642 -0.2787 -0.2627 -0.9272
11560TIP3    H234626   5.908   4.735   5.751  0.4627  0.1972 -1.6109
11561TIP3   OH234627   6.333   5.148   4.969  0.7009 -0.3079 -0.4669
11561TIP3    H134628   6.277   5.103   4.905  2.6469 -0.3317 -2.1744
11561TIP3    H234629   6.397   5.082   4.996 -0.0350 -0.2699  1.4758
11562TIP3   OH234630   4.974   4.514   4.781  0.5132  0.4827  0.5449
11562TIP3    H134631   5.002   4.496   4.692 -0.4294 -0.9705  0.5311
11562TIP3    H234632   5.052   4.550   4.824  1.5550 -0.7310 -0.2918
11563TIP3   OH234633   5.224   5.026   6.282 -0.4091 -0.1882 -0.2709
11563TIP3    H134634   5.185   5.057   6.201  0.0007  0.2017 -0.3194
11563TIP3    H234635   5.274   5.100   6.315  0.1396 -0.6223 -0.1123
11564TIP3   OH234636   5.933   4.103   6.302  0.3366  0.3103 -0.3693
11564TIP3    H134637   5.994   4.139   6.366  0.5669  0.0299 -0.4302
11564TIP3    H234638   5.983   4.035   6.256 -0.3611 -0.7259  0.3601
11565TIP3   OH234639   6.166   5.957   4.830  0.2852 -0.5800  0.4800
11565TIP3    H134640   6.206   5.921   4.750 -0.1986  1.4649 -0.7160
11565TIP3    H234641   6.088   6.004   4.799  0.3107  0.5808  2.1079
11566TIP3   OH234642   6.174   2.589   5.432  0.3914  0.3883 -0.3562
11566TIP3    H134643   6.137   2.645   5.500  0.7724  1.1172 -0.7491
11566TIP3    H234644   6.266   2.578   5.456  0.2069 -0.4715 -0.0176
11567TIP3   OH234645   5.778   7.802   6.385  0.0439  0.6388  0.0450
11567TIP3    H134646   5.761   7.717   6.426  0.9730  0.5922  0.3496
11567TIP3    H234647   5.752   7.791   6.294 -0.4183  0.2115  0.2285
11568TIP3   OH234648   7.433   5.344   5.384 -0.2110 -0.1252 -0.1362
11568TIP3    H134649   7.425   5.254   5.355  1.6981  0.2382 -1.8867
11568TIP3    H234650   7.491   5.386   5.320 -0.0714  2.0245  1.3153
11569TIP3   OH234651   7.281   5.849   4.994  0.4890 -0.1291 -0.0296
11569TIP3    H134652   7.304   5.785   5.062 -2.4718 -1.9906 -0.7135
11569TIP3    H234653   7.289   5.934   5.038 -0.6789 -1.2471  2.4891
11570TIP3   OH234654   5.389   6.034   6.035  0.4404  0.1625  0.0444
11570TIP3    H134655   5.324   6.100   6.011  1.1974  1.3091  1.1233
11570TIP3    H234656   5.454   6.038   5.965 -0.9612 -1.4536 -1.3930
11571TIP3   OH234657   5.282   4.483   6.195  0.0355  0.1930  0.1045
11571TIP3    H134658   5.331   4.489   6.113 -1.7167 -1.5041 -1.1081
11571TIP3    H234659   5.275   4.573   6.225  2.5133  0.6261 -0.5019
11572TIP3   OH234660   3.912   4.500   4.775 -0.0230 -0.5122 -0.2857
11572TIP3    H134661   3.867   4.460   4.700 -0.0043 -3.5291  1.2159
11572TIP3    H234662   3.999   4.522   4.741 -0.5510 -0.3189 -1.5630
11573TIP3   OH234663   6.410   3.954   5.524  0.3434 -0.1584  0.1300
11573TIP3    H134664   6.500   3.970   5.494  0.0535 -0.5982 -1.0103
11573TIP3    H234665   6.381   4.039   5.558  0.2161  0.7351 -2.1216
11574TIP3   OH234666   7.160   4.675   5.959 -0.4413 -0.4306  0.2206
11574TIP3    H134667   7.152   4.614   5.886 -1.2643  0.5701 -0.5454
11574TIP3    H234668   7.254   4.687   5.970 -0.3151 -0.1246 -1.0840
11575TIP3   OH234669   6.762   2.632   5.340  0.2456 -0.0207  0.3588
11575TIP3    H134670   6.758   2.670   5.428  1.9128  0.7262  0.1323
11575TIP3    H234671   6.856   2.621   5.322  0.1737  3.0143 -2.6016
11576TIP3   OH234672   7.084   4.562   4.984 -0.1059  0.3806  0.6997
11576TIP3    H134673   7.132   4.525   4.909 -0.9259  0.1085  0.3077
11576TIP3    H234674   7.134   4.533   5.061  0.0479 -0.3691  0.3193
11577TIP3   OH234675   7.255   3.485   4.420 -0.0046  0.6186 -0.1600
11577TIP3    H134676   7.347   3.467   4.400 -0.4815 -0.3646 -1.6021
11577TIP3    H234677   7.244   3.579   4.405  0.4255  0.4729 -1.4217
11578TIP3   OH234678   5.424   3.398   4.623 -0.1619 -0.4030 -0.2003
11578TIP3    H134679   5.402   3.338   4.552 -0.9770  0.3612 -0.6030
11578TIP3    H234680   5.517   3.381   4.641  0.1264 -0.4106 -1.6276
11579TIP3   OH234681   6.427   1.876   6.156 -0.1958 -0.2860 -0.0032
11579TIP3    H134682   6.387   1.959   6.130 -0.4165  0.4214  2.4814
11579TIP3    H234683   6.353   1.814   6.159 -0.3438 -0.1091  0.0412
11580TIP3   OH234684   2.121   0.855   0.165 -0.3087  0.0445 -0.2866
11580TIP3    H134685   2.201   0.805   0.185  0.3636  1.3731  0.4426
11580TIP3    H234686   2.056   0.789   0.144  0.6734 -1.1256  0.2724
11581TIP3   OH234687   5.949   4.619   4.367  0.0847 -0.1407 -0.7120
11581TIP3    H134688   5.903   4.694   4.404 -0.6088 -0.2715 -1.2835
11581TIP3    H234689   5.881   4.553   4.355  0.4723 -0.4436 -1.3015
11582TIP3   OH234690   4.418   6.542   3.499 -0.5821 -0.1603 -0.3070
11582TIP3    H134691   4.391   6.579   3.415  2.1933 -1.7726 -1.9940
11582TIP3    H234692   4.462   6.614   3.545  0.7659 -0.1144 -1.6437
11583TIP3   OH234693   3.203   1.472   0.721 -0.3156  0.2386  0.3591
11583TIP3    H134694   3.131   1.434   0.670 -1.1269  2.8104 -0.4622
11583TIP3    H234695   3.171   1.558   0.748  2.0664  0.9928  0.8693
11584TIP3   OH234696   6.168   5.896   4.194  0.4598 -0.7250 -0.7573
11584TIP3    H134697   6.177   5.937   4.108 -2.0602  0.2793 -0.5954
11584TIP3    H234698   6.207   5.958   4.255 -1.8177  0.7281 -0.7080
11585TIP3   OH234699   6.818   6.161   6.447 -0.4929 -0.0503  0.1129
11585TIP3    H134700   6.902   6.154   6.403 -0.1618 -1.3175  0.9029
11585TIP3    H234701   6.809   6.253   6.470  0.4702  0.1662 -0.3813
11586TIP3   OH234702   6.020   2.991   5.678 -0.2877 -1.1926 -0.0695
11586TIP3    H134703   6.025   3.064   5.739  0.5781 -2.5487  1.5411
11586TIP3    H234704   5.935   2.951   5.694 -0.5799 -0.8030 -0.6404
11587TIP3   OH234705   6.498   4.517   6.198 -0.4029  0.4668  0.1493
11587TIP3    H134706   6.528   4.482   6.115  1.7187  0.8639  0.7184
11587TIP3    H234707   6.482   4.439   6.253 -1.0538  0.2394 -0.3505
11588TIP3   OH234708   8.204   6.183   3.843  0.0400 -0.1402  0.1349
11588TIP3    H134709   8.292   6.219   3.848  0.0951 -0.3788  0.8864
11588TIP3    H234710   8.213   6.094   3.876 -0.6977  0.2036  1.2618
11589TIP3   OH234711   5.880   5.442   4.142  0.0231 -0.1158  0.6908
11589TIP3    H134712   5.869   5.353   4.107 -0.1751  0.3032 -0.3031
11589TIP3    H234713   5.962   5.438   4.191  1.0739 -0.3212 -1.0315
11590TIP3   OH234714   7.926   3.504   4.895  0.0046 -0.2804  0.2674
11590TIP3    H134715   7.899   3.592   4.921 -0.4186 -0.1525 -0.5703
11590TIP3    H234716   7.858   3.446   4.931 -0.4306 -0.1302 -0.2949
11591TIP3   OH234717   7.151   6.220   5.695 -0.4417 -0.1330 -0.0457
11591TIP3    H134718   7.149   6.269   5.613  1.2652  1.0940  0.6244
11591TIP3    H234719   7.243   6.195   5.706 -0.2913  1.2685  2.3651
11592TIP3   OH234720   6.555   5.016   5.139 -0.0130  0.0656  0.0147
11592TIP3    H134721   6.562   5.092   5.197 -0.1839  1.2249 -1.4774
11592TIP3    H234722   6.598   5.043   5.058 -2.5401 -0.4174 -1.5372
11593TIP3   OH234723   4.724   4.583   5.062 -0.0611  0.3524  0.2979
11593TIP3    H134724   4.775   4.581   5.143 -0.4421  0.5294  0.5482
11593TIP3    H234725   4.726   4.493   5.030  0.9031  0.4835 -0.0133
11594TIP3   OH234726   5.212   4.541   4.902  0.3400  0.1037  0.3385
11594TIP3    H134727   5.196   4.484   4.977  2.4625 -0.9407  0.0420
11594TIP3    H234728   5.212   4.630   4.939 -1.0421 -0.2195  1.1346
11595TIP3   OH234729   5.857   6.737   4.043  0.0071 -0.3670 -0.1558
11595TIP3    H134730   5.879   6.828   4.063  1.0426 -0.4318 -0.9427
11595TIP3    H234731   5.936   6.702   4.001 -0.8180 -1.2776 -0.9822
11596TIP3   OH234732   5.476   7.837   5.144  0.0418 -0.7807  0.3193
11596TIP3    H134733   5.395   7.807   5.184  0.2605 -1.1184  0.5090
11596TIP3    H234734   5.451   7.916   5.096 -0.1232 -0.0680  1.5544
11597TIP3   OH234735   6.182   3.711   4.700 -0.0385 -0.2415  0.6262
11597TIP3    H134736   6.114   3.769   4.736  0.4193 -0.1928  1.4116
11597TIP3    H234737   6.139   3.626   4.693  0.0016 -0.3554  1.7102
11598TIP3   OH234738   5.643   4.957   6.098  0.4314  0.4172  0.1077
11598TIP3    H134739   5.587   4.962   6.020  0.5192  0.6439  0.0584
11598TIP3    H234740   5.661   4.863   6.109  0.0472  0.3427  0.1204
11599TIP3   OH234741   5.059   6.430   4.466 -0.5213  0.0518  0.2293
11599TIP3    H134742   5.123   6.381   4.414  0.8124  1.2710  0.6932
11599TIP3    H234743   5.079   6.406   4.557 -0.8467  0.2867  0.3643
11600TIP3   OH234744   5.546   4.925   3.780 -0.1280  0.1956 -0.3047
11600TIP3    H134745   5.494   5.003   3.762  0.5749  0.7080 -0.1212
11600TIP3    H234746   5.628   4.958   3.817  0.1767 -0.6243 -0.2257
11601TIP3   OH234747   3.537   1.978   0.569 -0.3633  0.5030 -0.0419
11601TIP3    H134748   3.534   1.914   0.640  0.3973  1.7796  1.1911
11601TIP3    H234749   3.451   1.974   0.528 -1.6023  1.2764  2.3831
11602TIP3   OH234750   6.342   3.898   5.251  0.1363  0.4437  0.2393
11602TIP3    H134751   6.285   3.955   5.199  1.8241  1.8385 -0.1234
11602TIP3    H234752   6.338   3.935   5.339  0.5548  0.6105  0.1895
11603TIP3   OH234753   5.157   2.628   5.861 -0.5634  0.0131  0.5167
11603TIP3    H134754   5.247   2.599   5.876  0.0205  1.2759 -0.4216
11603TIP3    H234755   5.154   2.716   5.900 -0.2768  1.5396 -2.7543
11604TIP3   OH234756   1.289   0.855   0.314  0.0294  0.3501  0.0181
11604TIP3    H134757   1.377   0.860   0.278 -0.3906 -0.2171 -1.0990
11604TIP3    H234758   1.231   0.868   0.239 -0.8472  2.0871  0.9530
11605TIP3   OH234759   7.188   5.267   4.714 -0.5517 -0.2851 -0.2907
11605TIP3    H134760   7.099   5.256   4.745  0.7010 -2.5871  2.7419
11605TIP3    H234761   7.203   5.362   4.717 -1.9222 -0.1019  2.1012
11606TIP3   OH234762   6.707   5.328   4.043 -0.2703  0.2408 -0.1339
11606TIP3    H134763   6.715   5.233   4.053 -2.9698  0.2187  2.5050
11606TIP3    H234764   6.741   5.363   4.125 -2.0143  1.3655  0.1299
11607TIP3   OH234765   7.865   3.269   3.790 -0.2786 -0.1169 -0.3195
11607TIP3    H134766   7.870   3.286   3.884  0.9929  0.3841 -0.4650
11607TIP3    H234767   7.804   3.335   3.757  0.5754  0.8052 -0.0893
11608TIP3   OH234768   6.576   2.734   5.866  0.5616  0.2060  0.2466
11608TIP3    H134769   6.646   2.728   5.801  0.0341  1.6723 -0.4899
11608TIP3    H234770   6.520   2.658   5.847  2.0551 -1.1188  1.0100
11609TIP3   OH234771   5.395   2.230   6.461 -0.1098 -0.1656 -0.5217
11609TIP3    H134772   5.387   2.185   6.545  0.6676 -1.1250 -0.9471
11609TIP3    H234773   5.486   2.218   6.436 -0.7707 -1.5351 -2.3995
11610TIP3   OH234774   7.521   5.282   6.323 -0.3376  0.0617  0.2750
11610TIP3    H134775   7.429   5.276   6.348 -0.3814 -1.0462 -0.1022
11610TIP3    H234776   7.528   5.365   6.277 -0.4252  1.7410  3.1851
11611TIP3   OH234777   3.144   6.100   4.993  0.4503 -0.0127 -0.0283
11611TIP3    H134778   3.059   6.085   4.952  0.2242  2.8036 -0.6664
11611TIP3    H234779   3.196   6.146   4.927  1.0665  1.9594  1.7520
11612TIP3   OH234780   7.278   4.956   6.090 -0.2856 -0.5889 -0.2379
11612TIP3    H134781   7.221   5.027   6.063  1.4331 -0.0498 -2.6296
11612TIP3    H234782   7.235   4.876   6.059 -1.1591 -0.4311  0.5633
11613TIP3   OH234783   0.094   7.485   0.213 -0.6554 -0.2674  0.2313
11613TIP3    H134784   0.111   7.397   0.179  1.4146  0.8610 -1.8198
11613TIP3    H234785   0.056   7.532   0.139  1.2307  1.4466  0.3210
11614TIP3   OH234786   8.451   3.013   3.799  0.4324  0.1260 -0.1123
11614TIP3    H134787   8.515   2.987   3.733  1.4642  2.4572 -0.0604
11614TIP3    H234788   8.501   3.019   3.881 -0.5332 -1.2547  0.5993
11615TIP3   OH234789   3.665   3.524   5.400  0.2037 -0.1581  0.0333
11615TIP3    H134790   3.748   3.509   5.444  0.8905 -1.0310 -1.5293
11615TIP3    H234791   3.668   3.616   5.374  0.3223  0.0275  0.6908
11616TIP3   OH234792   3.203   3.199   4.500 -0.2772 -0.0411 -0.1077
11616TIP3    H134793   3.295   3.192   4.473  0.2621  4.6073  0.2518
11616TIP3    H234794   3.204   3.181   4.594  0.4226  0.8369  0.0593
11617TIP3   OH234795   6.315   2.844   6.721  0.3875  0.1999 -0.2247
11617TIP3    H134796   6.366   2.920   6.749 -0.7526  1.3320 -1.1577
11617TIP3    H234797   6.256   2.827   6.795 -0.1382  0.9469 -0.4587
11618TIP3   OH234798   6.554   2.311   4.695 -0.0141  0.0424 -0.6689
11618TIP3    H134799   6.640   2.316   4.654  0.6370  2.3758  0.8368
11618TIP3    H234800   6.506   2.386   4.659 -0.6997 -0.0729 -0.0179
11619TIP3   OH234801   6.210   1.731   5.507  0.6932  0.0833 -0.1460
11619TIP3    H134802   6.302   1.732   5.480  0.7623 -1.4509 -0.0109
11619TIP3    H234803   6.167   1.672   5.445 -0.2373  0.8969 -0.2919
11620TIP3   OH234804   6.467   3.366   4.002  0.0681  0.2200 -0.0591
11620TIP3    H134805   6.559   3.393   4.005  0.4766 -0.8035 -2.4076
11620TIP3    H234806   6.465   3.280   4.043  0.1976  0.1500 -0.1997
11621TIP3   OH234807   7.194   4.470   5.729  0.4769 -0.0767  0.1214
11621TIP3    H134808   7.213   4.436   5.817  2.0096  0.2457 -0.0565
11621TIP3    H234809   7.271   4.445   5.678  0.0786  0.6855 -0.8581
11622TIP3   OH234810   6.518   5.169   4.688  0.0582 -0.1536 -0.3115
11622TIP3    H134811   6.476   5.158   4.603 -0.9912 -0.3368  0.2105
11622TIP3    H234812   6.560   5.085   4.705  0.9242  0.1433 -0.9927
11623TIP3   OH234813   0.413   0.479   6.795  0.3529 -0.2855  0.1178
11623TIP3    H134814   0.363   0.473   6.713 -0.2879 -1.5580  0.5866
11623TIP3    H234815   0.419   0.573   6.812 -1.4243 -0.0914 -0.2302
11624TIP3   OH234816   6.487   6.644   5.842 -0.2107 -0.2901  0.2286
11624TIP3    H134817   6.399   6.630   5.876  0.1068 -1.5683  0.5229
11624TIP3    H234818   6.526   6.557   5.837  0.9185  0.2267 -0.2327
11625TIP3   OH234819   6.746   4.145   6.196 -0.0837  0.0258  0.1517
11625TIP3    H134820   6.676   4.104   6.247  0.6497 -0.3775  0.8293
11625TIP3    H234821   6.754   4.088   6.119  0.4966 -0.7611  0.7832
11626TIP3   OH234822   7.552   2.984   6.278 -0.1356  0.3766  0.0642
11626TIP3    H134823   7.539   3.017   6.367  0.4433  1.7108 -0.3240
11626TIP3    H234824   7.502   3.044   6.223 -0.7377 -0.6275 -0.4871
11627TIP3   OH234825   6.618   3.346   4.950 -0.4833  0.2577 -0.5360
11627TIP3    H134826   6.652   3.409   5.013 -0.4781 -0.2824  0.0009
11627TIP3    H234827   6.581   3.276   5.003  0.0539 -0.4887 -1.1357
11628TIP3   OH234828   5.652   3.352   5.147 -0.0991  0.2511  0.3047
11628TIP3    H134829   5.611   3.312   5.071  1.3617  0.9118 -0.8761
11628TIP3    H234830   5.668   3.280   5.207 -0.9044 -0.3386 -0.1788
11629TIP3   OH234831   5.804   4.851   4.087 -0.7185 -0.3929  0.2498
11629TIP3    H134832   5.858   4.888   4.157 -0.9914  0.7704 -0.1379
11629TIP3    H234833   5.741   4.796   4.133 -1.5671  1.1933  1.0464
11630TIP3   OH234834   5.364   4.631   4.490  0.1156  0.2315  0.4195
11630TIP3    H134835   5.371   4.689   4.566 -0.2275  1.1727 -0.2578
11630TIP3    H234836   5.387   4.686   4.416 -0.9342 -0.2959 -0.3170
11631TIP3   OH234837   7.147   3.986   4.925  0.7163 -0.1101  0.1175
11631TIP3    H134838   7.070   3.932   4.904  0.1093  0.9708 -0.4634
11631TIP3    H234839   7.144   4.058   4.862 -0.1086  2.2100  2.7308
11632TIP3   OH234840   7.189   2.477   4.705 -0.2555  0.0992 -0.3933
11632TIP3    H134841   7.230   2.484   4.792 -0.5203  0.9325 -0.3316
11632TIP3    H234842   7.137   2.397   4.709  0.9516 -0.6983 -0.2983
11633TIP3   OH234843   5.491   4.732   5.684  0.0525 -0.4755 -0.0719
11633TIP3    H134844   5.451   4.819   5.691  0.2019 -0.4341  0.2886
11633TIP3    H234845   5.585   4.749   5.682  0.1297 -0.6986  1.2388
11634TIP3   OH234846   6.200   4.880   6.447 -0.6594  0.1789 -0.0683
11634TIP3    H134847   6.164   4.931   6.520  2.0134 -1.0438  2.1869
11634TIP3    H234848   6.124   4.834   6.411 -2.1676  1.3810  1.4388
11635TIP3   OH234849   5.340   5.462   5.370 -0.3527 -0.3215  0.1076
11635TIP3    H134850   5.265   5.403   5.376  0.8747 -1.9369 -0.1293
11635TIP3    H234851   5.325   5.527   5.440 -3.4068  1.1396 -1.7821
11636TIP3   OH234852   7.164   5.515   4.168 -0.0507  0.1669 -0.4802
11636TIP3    H134853   7.229   5.579   4.195  0.6299 -0.8539  0.3465
11636TIP3    H234854   7.176   5.441   4.228 -2.0337  0.0065 -0.2372
11637TIP3   OH234855   5.635   4.852   6.855 -0.0890  0.1020  1.0008
11637TIP3    H134856   5.559   4.825   6.805  0.7521  1.1881 -0.9229
11637TIP3    H234857   5.611   4.937   6.892 -0.1019  0.0610  1.0880
11638TIP3   OH234858   7.691   6.900   5.029  0.4283 -0.4784  0.6543
11638TIP3    H134859   7.707   6.961   4.957 -1.9482 -1.4712 -0.7720
11638TIP3    H234860   7.644   6.951   5.094  1.0751 -0.0141  0.7578
11639TIP3   OH234861   6.153   4.500   6.569  0.2146  0.5991  0.2480
11639TIP3    H134862   6.156   4.410   6.536  2.8410  0.3308  1.0929
11639TIP3    H234863   6.063   4.528   6.556 -0.7452 -2.3138  0.3541
11640TIP3   OH234864   0.445   7.175   0.021 -0.0384 -0.3581 -0.0390
11640TIP3    H134865   0.476   7.224   0.097  0.5064  2.5138 -2.0534
11640TIP3    H234866   0.521   7.171  -0.038 -0.9148 -1.1070 -1.1424
11641TIP3   OH234867   5.202   4.933   4.251 -0.4641  0.3091 -0.3029
11641TIP3    H134868   5.184   4.992   4.324  1.1337 -1.2724  1.4565
11641TIP3    H234869   5.290   4.899   4.270 -0.9277 -1.8153 -1.8026
11642TIP3   OH234870   6.092   5.011   6.167 -0.5414  0.1190 -0.3975
11642TIP3    H134871   6.024   4.980   6.227  0.9885  0.2965  1.4730
11642TIP3    H234872   6.159   4.942   6.170 -0.1581  0.4509 -1.4013
11643TIP3   OH234873   6.851   3.732   5.879  0.1534  0.5760  0.1782
11643TIP3    H134874   6.805   3.660   5.922 -0.4749  0.0328 -1.3570
11643TIP3    H234875   6.939   3.730   5.915 -0.2656 -0.0783  1.1766
11644TIP3   OH234876   1.283  -0.029   2.145 -0.1027 -0.5131  0.2079
11644TIP3    H134877   1.205  -0.011   2.092  0.2909  0.0233 -0.2082
11644TIP3    H234878   1.320   0.058   2.163  0.7201 -0.7892 -0.1033
11645TIP3   OH234879   8.226   4.008   6.028  0.2865  0.6045  0.4553
11645TIP3    H134880   8.165   4.029   5.957  0.9915  0.8650 -0.0883
11645TIP3    H234881   8.170   3.989   6.103 -0.4548  1.5918  0.1749
11646TIP3   OH234882   7.233   5.315   6.311 -0.6365  0.2710  0.1756
11646TIP3    H134883   7.178   5.264   6.371 -0.2756 -0.4393 -0.0852
11646TIP3    H234884   7.221   5.406   6.339 -1.5113  0.0729  0.4699
11647TIP3   OH234885   6.662   6.015   4.544 -0.7858  0.1789  0.2926
11647TIP3    H134886   6.751   5.981   4.537  0.4384  3.2797 -0.1406
11647TIP3    H234887   6.607   5.948   4.502  1.2585 -1.9759  0.9677
11648TIP3   OH234888   6.639   4.939   0.944  0.6270 -0.1143 -0.1506
11648TIP3    H134889   6.685   4.941   0.860  2.5287 -1.8084  0.7919
11648TIP3    H234890   6.664   4.855   0.982 -0.3175  0.5835  2.0725
11649TIP3   OH234891   3.858   4.564   4.297 -0.6823  0.7301  0.3004
11649TIP3    H134892   3.929   4.579   4.359 -0.8541 -1.1084  0.9820
11649TIP3    H234893   3.785   4.535   4.352 -1.2415  0.3748 -0.6254
11650TIP3   OH234894   6.186   5.610   4.757  0.1274 -0.2481  0.3169
11650TIP3    H134895   6.103   5.570   4.786 -1.2819 -1.7557 -5.1170
11650TIP3    H234896   6.252   5.544   4.778 -0.1209  0.5435  3.8224
11651TIP3   OH234897   6.906   7.594   4.625  0.0610  0.3316 -0.0917
11651TIP3    H134898   6.945   7.659   4.683 -0.9941 -0.2236  1.2671
11651TIP3    H234899   6.831   7.639   4.586 -2.0807 -0.7183  2.6223
11652TIP3   OH234900   0.097   2.461   4.903 -0.0080 -1.0958  0.5292
11652TIP3    H134901   0.060   2.385   4.859  1.2949 -1.3874 -0.0963
11652TIP3    H234902   0.188   2.464   4.872  0.0252  0.5439  0.7811
11653TIP3   OH234903   5.776   3.073   5.097  0.5504 -0.4073  0.1749
11653TIP3    H134904   5.795   2.981   5.116  0.6519 -0.3323  0.4316
11653TIP3    H234905   5.861   3.116   5.098  0.7727 -0.7153 -2.1617
11654TIP3   OH234906   6.927   4.936   6.075 -0.1267  0.8236  0.1793
11654TIP3    H134907   6.834   4.914   6.064  0.0942  0.2187 -0.5068
11654TIP3    H234908   6.936   4.956   6.168 -0.9273  0.7943  0.2647
11655TIP3   OH234909   5.219   4.189   5.379  0.1699  0.0479 -0.3155
11655TIP3    H134910   5.303   4.233   5.368 -0.4987  1.3123 -0.4211
11655TIP3    H234911   5.230   4.136   5.458  1.3646 -0.5212 -0.8414
11656TIP3   OH234912   7.910   4.501   5.685 -0.6629 -0.1114 -0.1670
11656TIP3    H134913   7.940   4.588   5.710 -1.8859 -0.3110  2.0972
11656TIP3    H234914   7.814   4.508   5.685 -0.7466 -1.0864 -1.3420
11657TIP3   OH234915   5.179   0.214   4.726 -0.0851  0.1137  0.4893
11657TIP3    H134916   5.157   0.121   4.728 -1.0487  0.3209 -0.2900
11657TIP3    H234917   5.137   0.247   4.647  2.5894  0.6295 -0.7861
11658TIP3   OH234918   6.365   4.637   6.654 -0.2665 -0.3923  0.6169
11658TIP3    H134919   6.290   4.615   6.600 -0.0983 -1.5837  0.8457
11658TIP3    H234920   6.328   4.655   6.741 -0.3944  0.1193  0.4574
11659TIP3   OH234921   7.345   3.122   4.020 -0.5716 -0.2302  0.5520
11659TIP3    H134922   7.274   3.097   4.079 -0.5507  0.4245  0.8592
11659TIP3    H234923   7.419   3.138   4.077 -0.4824  0.1680  0.3274
11660TIP3   OH234924   5.279   3.414   4.895  0.3701  0.0857  0.1479
11660TIP3    H134925   5.226   3.339   4.868  1.2687 -0.5705  0.1621
11660TIP3    H234926   5.342   3.425   4.823  0.6096  0.4619  0.4142
11661TIP3   OH234927   5.020   2.894   6.129 -0.0157  0.0201 -0.0452
11661TIP3    H134928   5.106   2.931   6.109  0.8998 -1.4432  1.1332
11661TIP3    H234929   4.981   2.955   6.191  0.3185  0.4793 -0.2848
11662TIP3   OH234930   1.827   7.461   0.475  0.2842 -0.4276 -0.5954
11662TIP3    H134931   1.889   7.498   0.538 -0.3774 -1.7704  0.8592
11662TIP3    H234932   1.807   7.374   0.509 -1.9467 -0.2339 -1.3559
11663TIP3   OH234933   6.804   4.668   5.046 -0.0683  0.6397 -0.1238
11663TIP3    H134934   6.716   4.681   5.082 -0.2471 -1.3358  0.2178
11663TIP3    H234935   6.853   4.627   5.117 -0.4404 -3.3811 -2.0012
11664TIP3   OH234936   5.149   6.270   4.084  0.4323  0.4429 -0.5826
11664TIP3    H134937   5.191   6.193   4.047 -0.1201  0.3443 -1.0130
11664TIP3    H234938   5.059   6.242   4.102  0.0680  1.1330 -1.2563
11665TIP3   OH234939   7.338   2.797   4.243  0.2245 -0.4853 -0.0971
11665TIP3    H134940   7.410   2.803   4.180 -1.3592 -2.2182 -2.1447
11665TIP3    H234941   7.274   2.863   4.213 -0.3266 -0.9915 -0.0468
11666TIP3   OH234942   5.853   5.900   5.889 -0.1010  0.3444 -0.1766
11666TIP3    H134943   5.815   5.981   5.923 -1.2881 -0.3576  0.2107
11666TIP3    H234944   5.833   5.901   5.795 -2.1036 -0.5337  0.1998
11667TIP3   OH234945   5.632   1.048   3.712 -0.1556  0.2147  0.0593
11667TIP3    H134946   5.627   0.953   3.703 -2.2220  0.3215  0.0557
11667TIP3    H234947   5.674   1.078   3.631  1.3698 -0.7476  0.4649
11668TIP3   OH234948   3.944   6.178   5.319  0.2743  0.3675  0.7594
11668TIP3    H134949   3.883   6.214   5.254  0.1337  0.3785  0.8954
11668TIP3    H234950   3.928   6.230   5.397 -1.2030 -1.1289  1.4924
11669TIP3   OH234951   5.730   5.908   5.630  0.2062 -0.6193 -0.2757
11669TIP3    H134952   5.709   5.857   5.552  1.9633 -0.5463 -0.8074
11669TIP3    H234953   5.792   5.974   5.600  1.4521 -1.0384  1.3152
11670TIP3   OH234954   6.111   6.205   5.070  0.3166  0.6631  1.1934
11670TIP3    H134955   6.180   6.195   5.004 -0.4073 -0.6545  0.6259
11670TIP3    H234956   6.130   6.289   5.112  0.7096  1.6039 -0.8025
11671TIP3   OH234957   6.661   5.614   4.302 -0.1630 -0.0565 -0.3565
11671TIP3    H134958   6.730   5.612   4.236 -0.0849 -0.4829 -0.2640
11671TIP3    H234959   6.682   5.541   4.360 -2.4385 -2.1540 -2.0861
11672TIP3   OH234960   5.648   3.727   1.910 -0.2513  0.4747 -0.0405
11672TIP3    H134961   5.669   3.660   1.974 -2.1678  0.5461  0.6813
11672TIP3    H234962   5.687   3.696   1.828  1.6557  0.0806  0.9977
11673TIP3   OH234963   6.848   6.410   5.618  0.1631 -0.5115 -0.2769
11673TIP3    H134964   6.888   6.493   5.592  0.6711 -1.0877 -1.3722
11673TIP3    H234965   6.791   6.432   5.691  0.9140  0.6669 -0.0420
11674TIP3   OH234966   4.066   1.426   2.278 -0.5512  0.0513 -0.9895
11674TIP3    H134967   4.127   1.450   2.208  0.6730 -1.5358 -0.5078
11674TIP3    H234968   4.117   1.434   2.359 -1.0422 -0.9913 -0.5556
11675TIP3   OH234969   4.471   5.160   5.550 -0.3134 -0.4830  0.3631
11675TIP3    H134970   4.458   5.255   5.543 -1.0416 -0.7018 -1.4426
11675TIP3    H234971   4.394   5.128   5.596 -1.0435 -0.4263 -0.7895
11676TIP3   OH234972   6.179   4.658   6.833  0.5170 -0.3395  0.1657
11676TIP3    H134973   6.158   4.747   6.803 -0.1056 -0.4678  0.2025
11676TIP3    H234974   6.126   4.647   6.912  0.3529 -0.8585 -0.0141
11677TIP3   OH234975   5.697   7.799   4.049 -0.1346 -0.2227 -0.2653
11677TIP3    H134976   5.785   7.828   4.072 -0.5181  1.5802 -0.9754
11677TIP3    H234977   5.700   7.785   3.954 -0.3286 -1.2098 -0.1326
11678TIP3   OH234978   7.465   7.913   0.117 -0.3949  0.4340 -0.9428
11678TIP3    H134979   7.535   7.938   0.178 -0.5445 -0.4325 -0.4080
11678TIP3    H234980   7.495   7.943   0.031  2.3555 -3.1750 -1.3538
11679TIP3   OH234981   7.574   6.043   5.206  0.6194 -0.1250 -0.0463
11679TIP3    H134982   7.573   6.087   5.121  1.0948  0.9119  0.4713
11679TIP3    H234983   7.573   6.115   5.270 -0.7477 -0.8976  0.8301
11680TIP3   OH234984   5.361   4.968   5.666  0.1392 -0.1852 -0.2069
11680TIP3    H134985   5.274   4.954   5.704  0.5050  0.2709  0.8159
11680TIP3    H234986   5.345   5.019   5.587 -0.4088  1.0593  0.7015
11681TIP3   OH234987   7.577   4.749   3.296 -0.2178 -0.4814  0.4437
11681TIP3    H134988   7.620   4.760   3.381  1.0054 -0.1281 -0.2156
11681TIP3    H234989   7.648   4.731   3.235 -1.1327 -1.1190 -0.4498
11682TIP3   OH234990   6.670   3.985   5.448 -0.3672 -0.1667 -0.0943
11682TIP3    H134991   6.674   3.935   5.530  1.6040 -2.1707 -1.3349
11682TIP3    H234992   6.725   4.062   5.464 -2.1534  0.8386  1.3236
11683TIP3   OH234993   5.695   4.279   4.115  0.1021  0.4751 -0.5111
11683TIP3    H134994   5.664   4.340   4.048  1.1775  1.3865 -0.2003
11683TIP3    H234995   5.727   4.335   4.186 -1.3836 -0.4725  0.9616
11684TIP3   OH234996   7.233   4.177   5.114 -0.4079  0.0233 -0.3991
11684TIP3    H134997   7.160   4.156   5.172 -0.9267  0.4518 -0.8996
11684TIP3    H234998   7.212   4.135   5.031  0.7777 -1.3582 -0.0098
11685TIP3   OH234999   5.952   3.428   6.090  0.2555  0.8563 -0.4659
11685TIP3    H135000   5.892   3.502   6.079  1.4900  1.6863 -1.8492
11685TIP3    H235001   6.033   3.466   6.123  1.0133  0.1853 -1.4948
11686TIP3   OH235002   6.657   3.620   6.106 -0.4970 -0.6396  0.0050
11686TIP3    H135003   6.568   3.642   6.132 -0.1286  0.3789  0.4450
11686TIP3    H235004   6.647   3.569   6.026 -1.4721 -0.4283 -0.0128
11687TIP3   OH235005   5.494   5.542   6.743  0.3346 -0.5040 -0.1184
11687TIP3    H135006   5.401   5.567   6.743  0.7527  1.1084  0.2367
11687TIP3    H235007   5.534   5.597   6.676  1.0510 -1.1611 -0.2392
11688TIP3   OH235008   0.558   3.584   6.796  0.4450  0.0546  0.0249
11688TIP3    H135009   0.570   3.626   6.882  1.3288  1.2143 -0.6452
11688TIP3    H235010   0.554   3.657   6.735 -0.7604 -0.7507 -0.8650
11689TIP3   OH235011   5.686   5.353   6.761 -0.5579  0.1286 -0.4410
11689TIP3    H135012   5.634   5.433   6.770 -0.0043  0.2403  2.3853
11689TIP3    H235013   5.622   5.283   6.754 -1.0741  0.6177 -0.6764
11690TIP3   OH235014   1.561   6.972   0.071  0.3563 -0.1473 -0.1702
11690TIP3    H135015   1.644   6.934   0.099  0.4921 -0.8484 -1.4799
11690TIP3    H235016   1.585   7.044   0.013  0.0678  0.9193  1.0108
11691TIP3   OH235017   6.533   3.905   5.002 -0.8395 -0.0563  0.5465
11691TIP3    H135018   6.452   3.957   5.005 -0.0888  1.2914 -1.3454
11691TIP3    H235019   6.512   3.831   4.945 -0.7498  0.3053  0.0378
11692TIP3   OH235020   6.131   6.591   4.285  0.0446 -0.5030  0.3046
11692TIP3    H135021   6.065   6.534   4.246  0.4540 -0.4871 -0.4305
11692TIP3    H235022   6.181   6.533   4.343  0.7808 -1.0142 -0.8272
11693TIP3   OH235023   2.320   1.828   1.242 -0.0609 -0.4357  0.2261
11693TIP3    H135024   2.231   1.817   1.273 -0.6468 -0.6476 -1.4620
11693TIP3    H235025   2.315   1.811   1.148  1.4800  0.9666 -0.1442
11694TIP3   OH235026   0.066   7.415   0.988  0.4743  0.3002 -0.3564
11694TIP3    H135027   0.018   7.464   0.922 -0.2426  0.5356  0.3334
11694TIP3    H235028   0.103   7.341   0.940  1.8792  1.6951 -1.4890
11695TIP3   OH235029   5.808   4.149   6.023 -0.3831  0.2406 -0.2098
11695TIP3    H135030   5.735   4.201   6.058 -0.1552 -0.3193  1.1183
11695TIP3    H235031   5.858   4.122   6.100  1.3737  0.8040 -1.1196
11696TIP3   OH235032   3.150   0.527   0.493 -0.4131 -0.4480 -0.0275
11696TIP3    H135033   3.241   0.515   0.521 -0.7632  0.3210  1.4665
11696TIP3    H235034   3.151   0.604   0.437  0.1948 -1.6584 -1.7221
11697TIP3   OH235035   6.229   3.973   4.966 -0.2116 -0.4903  1.0029
11697TIP3    H135036   6.206   4.021   4.886  1.1122 -0.4112  0.6517
11697TIP3    H235037   6.146   3.937   4.997 -1.0845  1.2571  0.7673
11698TIP3   OH235038   4.627   6.115   4.018 -0.4316 -0.4553  0.2791
11698TIP3    H135039   4.536   6.092   4.004 -0.9603  2.5865 -1.9414
11698TIP3    H235040   4.675   6.061   3.955 -0.7294 -1.6960  1.1048
11699TIP3   OH235041   3.603   1.186   1.900 -0.2138 -0.0403  0.0846
11699TIP3    H135042   3.531   1.194   1.962  1.9570  1.2397  2.5743
11699TIP3    H235043   3.579   1.242   1.826 -1.5355  0.7420  1.0934
11700TIP3   OH235044   6.246   5.821   4.586  1.1745 -0.2791 -0.7205
11700TIP3    H135045   6.241   5.738   4.632  0.9375 -0.4645 -1.0828
11700TIP3    H235046   6.209   5.804   4.499  1.0628  0.2184 -0.7751
11701TIP3   OH235047   7.716   7.121   4.822 -0.8504 -0.6239 -0.6355
11701TIP3    H135048   7.792   7.175   4.803 -0.1967 -1.6257 -0.9001
11701TIP3    H235049   7.685   7.092   4.736 -1.8808  0.2283 -0.5724
11702TIP3   OH235050   6.848   5.283   6.315  0.4938  0.0948  0.2519
11702TIP3    H135051   6.883   5.367   6.345 -0.0161  0.5706 -0.4829
11702TIP3    H235052   6.764   5.305   6.275 -0.3279 -0.9603  1.3817
11703TIP3   OH235053   1.190   5.185   6.309  0.5448  0.2645 -0.0633
11703TIP3    H135054   1.145   5.151   6.232  2.6641 -3.4023  0.1752
11703TIP3    H235055   1.282   5.189   6.283  1.3393 -1.3333  2.3068
11704TIP3   OH235056   6.356   3.905   4.562 -0.2294 -0.5376  0.5927
11704TIP3    H135057   6.277   3.859   4.590 -1.3827  1.1717  0.1724
11704TIP3    H235058   6.396   3.937   4.643 -1.4868  1.0316  0.6192
11705TIP3   OH235059   7.312   6.505   4.630 -0.2061 -0.0004 -0.4015
11705TIP3    H135060   7.225   6.544   4.625 -0.1505  0.3195  0.9518
11705TIP3    H235061   7.368   6.566   4.581 -0.6312  0.1212 -0.7363
11706TIP3   OH235062   5.942   4.981   4.699 -0.5276 -0.5506  0.5084
11706TIP3    H135063   6.034   4.988   4.724 -0.3055  0.9888 -0.6711
11706TIP3    H235064   5.898   4.948   4.778  0.9823 -1.0444  1.1565
11707TIP3   OH235065   4.836   6.454   4.769  0.2410  0.4241  0.5632
11707TIP3    H135066   4.791   6.461   4.684  2.5724  1.6227 -0.6257
11707TIP3    H235067   4.797   6.522   4.823 -1.4504 -0.5227  0.5648
11708TIP3   OH235068   5.820   5.758   6.752  0.1600  0.0633  0.2710
11708TIP3    H135069   5.827   5.844   6.711 -0.0435  0.6777  1.5078
11708TIP3    H235070   5.754   5.769   6.820 -1.6771 -1.7291 -1.1851
11709TIP3   OH235071   0.052   2.728   4.780 -0.2909 -1.0277  0.5832
11709TIP3    H135072   0.065   2.640   4.816  2.0090 -0.4697  1.1838
11709TIP3    H235073   0.114   2.783   4.828  0.2507  0.4164 -1.7248
11710TIP3   OH235074   6.486   6.536   5.365 -0.8202 -0.1699 -0.3977
11710TIP3    H135075   6.547   6.591   5.415 -0.4536  0.7627 -1.8231
11710TIP3    H235076   6.404   6.541   5.414 -0.6088  1.1362 -0.1412
11711TIP3   OH235077   6.555   3.209   5.189  0.4454  0.8059 -0.0656
11711TIP3    H135078   6.631   3.151   5.194 -0.8684 -0.9209  0.1247
11711TIP3    H235079   6.479   3.151   5.194 -0.9325  2.6689  2.2782
11712TIP3   OH235080   7.881   6.019   4.812 -0.2456 -0.3666 -0.2286
11712TIP3    H135081   7.878   6.098   4.865 -0.1372 -0.4700 -0.0715
11712TIP3    H235082   7.882   5.947   4.875  1.6200 -0.4501 -0.3409
11713TIP3   OH235083   0.159   3.944   6.539 -0.1529 -0.1487 -0.7393
11713TIP3    H135084   0.093   4.001   6.499  1.7208  1.7010 -1.2604
11713TIP3    H235085   0.236   3.999   6.548  0.5854 -1.5688  2.1587
11714TIP3   OH235086   6.785   3.218   3.816 -0.1288 -0.0890  0.7539
11714TIP3    H135087   6.783   3.306   3.855  2.6969  0.6366 -0.5875
11714TIP3    H235088   6.857   3.174   3.861  1.2776 -0.2183 -1.5560
11715TIP3   OH235089   6.661   2.200   5.427  0.1970  0.2268  0.7441
11715TIP3    H135090   6.655   2.270   5.493  1.2052  0.8377  0.2033
11715TIP3    H235091   6.746   2.214   5.385  0.2047 -1.0550  0.3102
11716TIP3   OH235092   7.265   4.062   6.861 -0.1097 -0.0097  0.3702
11716TIP3    H135093   7.239   4.133   6.919 -0.4642 -0.4458  0.7521
11716TIP3    H235094   7.360   4.067   6.859 -0.0485 -0.3938  1.5205
11717TIP3   OH235095   7.849   6.138   5.370 -0.7737  0.2833 -0.2322
11717TIP3    H135096   7.805   6.053   5.383 -1.0598  0.5565  0.6662
11717TIP3    H235097   7.780   6.197   5.341 -1.0741  0.7603  1.3630
11718TIP3   OH235098   7.592   4.941   6.536  0.2271 -0.5625 -0.5543
11718TIP3    H135099   7.666   4.945   6.475  0.4995 -2.5680 -0.4087
11718TIP3    H235100   7.515   4.930   6.480  0.2431 -0.2360 -0.6376
11719TIP3   OH235101   0.387   2.013   4.969 -0.1295 -0.0301  0.4069
11719TIP3    H135102   0.291   2.017   4.979 -0.1838 -0.5072  0.1230
11719TIP3    H235103   0.400   1.951   4.897  0.2616  2.9161 -2.1801
11720TIP3   OH235104   5.655   6.339   3.916 -0.2077  0.1454  0.5969
11720TIP3    H135105   5.564   6.353   3.890 -0.4294  0.9246  1.7345
11720TIP3    H235106   5.661   6.244   3.932 -0.9763  0.1695  1.0559
11721TIP3   OH235107   6.719   1.084   6.713 -0.2031 -0.3631  0.3898
11721TIP3    H135108   6.779   1.037   6.655 -0.7984  1.5442 -1.8525
11721TIP3    H235109   6.771   1.107   6.789  0.8197 -2.2030  0.2877
11722TIP3   OH235110   6.672   2.407   5.614  0.8421 -0.1117 -0.2573
11722TIP3    H135111   6.696   2.499   5.605 -0.7542  0.3152 -0.2899
11722TIP3    H235112   6.698   2.384   5.703 -0.5326  0.9257  0.4260
11723TIP3   OH235113   6.434   2.268   5.287  1.0016 -0.7426  0.2852
11723TIP3    H135114   6.507   2.229   5.336  2.2819 -1.0613 -1.7972
11723TIP3    H235115   6.465   2.356   5.266 -0.0789 -0.1391  1.1490
11724TIP3   OH235116   4.550   2.655   5.156 -0.4872 -0.5206  0.1978
11724TIP3    H135117   4.588   2.596   5.220 -1.2699 -1.4801 -0.2080
11724TIP3    H235118   4.623   2.712   5.130  0.3212 -1.4117  0.4681
11725TIP3   OH235119   5.790   6.479   5.653 -0.2915  0.0693 -0.0041
11725TIP3    H135120   5.722   6.536   5.689 -0.0037  1.2056 -1.2304
11725TIP3    H235121   5.853   6.539   5.614  1.1428 -1.0041  0.6254
11726TIP3   OH235122   0.086   7.944   0.495  0.3948 -0.2576 -1.0435
11726TIP3    H135123   0.108   7.865   0.545 -1.4283  0.4285  0.9315
11726TIP3    H235124   0.163   8.000   0.503  0.1942 -0.2169  0.9733
11727TIP3   OH235125   5.877   3.264   4.399  0.4189  0.1768  0.1026
11727TIP3    H135126   5.853   3.173   4.385 -0.4485  0.1427  1.7487
11727TIP3    H235127   5.960   3.260   4.448 -0.0302  0.2555  0.8794
11728TIP3   OH235128   6.029   5.631   5.920 -0.0969  0.9608 -0.4423
11728TIP3    H135129   5.985   5.556   5.959 -0.6086  1.6276  0.2865
11728TIP3    H235130   6.097   5.593   5.864 -1.5081 -0.0744 -1.4797
11729TIP3   OH235131   3.539   2.670   1.099  0.2786  0.1029  0.5801
11729TIP3    H135132   3.455   2.661   1.142 -1.4056  2.2317 -2.0451
11729TIP3    H235133   3.570   2.581   1.085 -1.8764 -0.7178  0.9885
11730TIP3   OH235134   5.701   6.640   4.828 -0.8725  0.0974 -0.2935
11730TIP3    H135135   5.754   6.680   4.760 -0.7749 -0.2597 -0.4309
11730TIP3    H235136   5.700   6.546   4.806 -0.8084 -0.0256  0.2173
11731TIP3   OH235137   5.971   2.592   6.534 -0.6148  0.2591 -0.5001
11731TIP3    H135138   6.054   2.586   6.487 -1.2360  1.8028 -1.8870
11731TIP3    H235139   5.966   2.512   6.586  1.7059  0.1403 -0.4343
11732TIP3   OH235140   5.387   3.787   4.922  0.2705  0.0321 -0.3927
11732TIP3    H135141   5.409   3.703   4.960 -2.0406 -0.5788 -0.2821
11732TIP3    H235142   5.372   3.768   4.829 -0.8061  0.1853 -0.2615
11733TIP3   OH235143   5.957   5.332   4.533  0.2076 -0.2568 -0.2651
11733TIP3    H135144   5.964   5.336   4.629  1.8623  1.5539 -0.4351
11733TIP3    H235145   5.902   5.255   4.516 -3.3398  1.5616  2.3003
11734TIP3   OH235146   3.530   3.193   0.677 -0.0798 -0.3890  0.0835
11734TIP3    H135147   3.501   3.114   0.722  1.1595 -0.4171  0.8573
11734TIP3    H235148   3.625   3.195   0.690  0.1653  0.1690 -1.6297
11735TIP3   OH235149   5.227   6.542   1.280  0.1257 -0.0885 -0.4000
11735TIP3    H135150   5.235   6.564   1.373 -0.5518 -1.5213  0.0158
11735TIP3    H235151   5.317   6.531   1.250  0.3390  0.1561  0.1508
11736TIP3   OH235152   7.235   5.392   3.316 -0.2085  0.0135 -0.1745
11736TIP3    H135153   7.194   5.321   3.365 -0.4426 -0.1895 -0.6590
11736TIP3    H235154   7.221   5.470   3.370  0.6161 -0.4166  0.6612
11737TIP3   OH235155   7.935   2.834   5.578 -0.7518 -0.4847  0.1452
11737TIP3    H135156   7.954   2.800   5.490 -2.6593 -1.3899  0.0721
11737TIP3    H235157   7.898   2.760   5.625  0.2404  0.0007  1.7403
11738TIP3   OH235158   4.822   5.546   5.628  0.2444  0.0493  0.2962
11738TIP3    H135159   4.732   5.568   5.652  0.5387  1.3238  0.2579
11738TIP3    H235160   4.862   5.629   5.605  1.3875 -0.5346  0.1228
11739TIP3   OH235161   4.860   4.130   5.427  0.1068  0.2176 -0.1955
11739TIP3    H135162   4.768   4.120   5.401  0.5345 -0.7704 -1.3196
11739TIP3    H235163   4.904   4.164   5.349  1.0543 -1.1013 -0.2367
11740TIP3   OH235164   6.681   3.845   5.690  0.4164  0.0715  0.0868
11740TIP3    H135165   6.590   3.819   5.709  0.3345 -0.0625 -0.5014
11740TIP3    H235166   6.731   3.805   5.761 -0.3110  2.5623  2.1014
11741TIP3   OH235167   0.009   4.447   6.153  0.2072  0.5783 -0.1494
11741TIP3    H135168   0.015   4.352   6.154  0.4145  0.5740 -1.2624
11741TIP3    H235169   0.003   4.472   6.245  1.2694 -0.4359  0.2013
11742TIP3   OH235170   6.779   4.374   4.482 -0.0824 -0.3877  0.6703
11742TIP3    H135171   6.805   4.447   4.425  0.0857 -0.4715  0.6379
11742TIP3    H235172   6.760   4.302   4.422 -0.6444 -0.2502  0.6829
11743TIP3   OH235173   7.985   3.603   2.759 -0.5572 -0.9732 -0.0800
11743TIP3    H135174   8.022   3.683   2.798 -1.5177 -1.6696  2.3715
11743TIP3    H235175   8.038   3.588   2.681  0.7209  1.1319  0.3218
11744TIP3   OH235176   1.528   0.687   0.239 -0.5772  0.3434  0.0706
11744TIP3    H135177   1.440   0.655   0.257 -0.1789 -0.2776  0.9032
11744TIP3    H235178   1.583   0.609   0.241 -0.0291  0.7094 -0.5967
11745TIP3   OH235179   7.361   3.785   3.835  0.0988  0.2497  0.2596
11745TIP3    H135180   7.296   3.839   3.790 -1.1013 -0.5798  0.9875
11745TIP3    H235181   7.338   3.792   3.928  0.9163 -0.2260  0.5002
11746TIP3   OH235182   6.322   3.490   5.005 -0.0182 -0.2001 -0.2669
11746TIP3    H135183   6.249   3.429   4.991 -0.4857  0.0850  0.8630
11746TIP3    H235184   6.293   3.545   5.078  2.1512 -1.3757  1.5491
11747TIP3   OH235185   6.803   2.969   5.490 -0.7361  0.7401 -0.0388
11747TIP3    H135186   6.776   3.060   5.485  1.4252  1.5775  2.2456
11747TIP3    H235187   6.850   2.962   5.573  1.9746 -1.6567 -1.6372
11748TIP3   OH235188   4.291   6.467   5.303 -0.3902 -0.2569 -0.1150
11748TIP3    H135189   4.282   6.498   5.393  2.2950  0.3276 -0.0014
11748TIP3    H235190   4.277   6.546   5.250  1.2174  0.0766 -0.0563
11749TIP3   OH235191   6.493   2.819   4.887 -0.2162 -0.3249  0.7628
11749TIP3    H135192   6.552   2.745   4.874 -0.0576  0.2233 -2.0763
11749TIP3    H235193   6.436   2.793   4.959 -0.3104 -3.3055 -0.3346
11750TIP3   OH235194   7.554   4.419   3.467 -0.2786 -0.3384  0.2567
11750TIP3    H135195   7.540   4.328   3.442 -0.5805 -0.4734  0.9020
11750TIP3    H235196   7.477   4.442   3.519 -0.9794  0.7746 -1.2159
11751TIP3   OH235197   6.412   5.382   4.272 -0.0348 -0.2753  0.0036
11751TIP3    H135198   6.386   5.441   4.342 -1.8513 -1.2181  0.1491
11751TIP3    H235199   6.408   5.436   4.192 -0.0289  0.2338  0.3450
11752TIP3   OH235200   7.888   4.520   4.515  0.6206 -0.0572  0.2462
11752TIP3    H135201   7.813   4.568   4.551 -0.6553 -2.3796  0.7690
11752TIP3    H235202   7.870   4.512   4.422  2.3038  3.0421 -0.4020
11753TIP3   OH235203   5.608   3.274   6.902  0.4277 -0.0066  0.3127
11753TIP3    H135204   5.677   3.259   6.968 -0.0547 -0.9247  0.6138
11753TIP3    H235205   5.590   3.187   6.867 -2.0576 -0.0960  1.7236
11754TIP3   OH235206   7.798   6.670   1.079  0.0326 -0.0708  0.2070
11754TIP3    H135207   7.723   6.618   1.110 -0.3401  0.6318  0.4894
11754TIP3    H235208   7.762   6.725   1.009  0.1547  0.6712  0.7242
11755TIP3   OH235209   6.950   5.237   4.844 -0.1906 -0.5235 -0.7303
11755TIP3    H135210   6.886   5.178   4.883 -0.5148  0.4771  0.2678
11755TIP3    H235211   6.903   5.320   4.835  1.7425  0.9831  2.4339
11756TIP3   OH235212   0.378   4.254   5.264  0.3320 -0.6245 -0.2664
11756TIP3    H135213   0.329   4.278   5.185  2.1087 -1.2120 -1.5853
11756TIP3    H235214   0.461   4.301   5.255 -0.0279  0.4595  1.9955
11757TIP3   OH235215   3.853   1.710   0.610 -0.4542 -0.9080 -0.0915
11757TIP3    H135216   3.776   1.734   0.558 -0.0396 -0.0155 -0.3037
11757TIP3    H235217   3.896   1.642   0.560 -0.6263 -0.7854 -0.4063
11758TIP3   OH235218   1.221   5.796   4.670  0.7294 -0.0644  0.0571
11758TIP3    H135219   1.199   5.704   4.686 -1.5728  0.4639  0.0801
11758TIP3    H235220   1.275   5.794   4.591  1.0325 -1.4565  0.2784
11759TIP3   OH235221   0.110   4.351   5.917  0.3312  0.3333 -0.1907
11759TIP3    H135222   0.053   4.275   5.903 -0.8143  1.2335 -0.4547
11759TIP3    H235223   0.089   4.381   6.005  0.0644  0.9626 -0.4733
11760TIP3   OH235224   7.966   6.462   4.927  0.2660  0.3299  0.3068
11760TIP3    H135225   8.008   6.547   4.915  0.7197 -0.2011 -2.0044
11760TIP3    H235226   7.983   6.415   4.846 -1.2926 -1.4137  0.9626
11761TIP3   OH235227   0.062   6.278   3.611 -0.6058 -0.2743 -0.2180
11761TIP3    H135228   0.121   6.349   3.638 -0.7159  0.1048 -0.9722
11761TIP3    H235229  -0.022   6.322   3.595 -0.6295 -0.5521 -0.8497
11762TIP3   OH235230   7.943   4.659   3.767 -0.9220  0.1680 -0.4477
11762TIP3    H135231   7.991   4.627   3.844 -1.1592 -1.3089 -0.8992
11762TIP3    H235232   8.011   4.698   3.712 -0.1194 -2.3754 -1.3202
11763TIP3   OH235233   6.399   5.864   4.963  0.1748  0.3188  0.1992
11763TIP3    H135234   6.398   5.947   5.011  0.3474  0.8112 -0.6229
11763TIP3    H235235   6.315   5.862   4.917  0.1541  0.0212  0.2507
11764TIP3   OH235236   6.906   5.403   5.228 -0.3956  0.0188 -0.4282
11764TIP3    H135237   6.889   5.416   5.322 -1.1451  0.4169 -0.6201
11764TIP3    H235238   6.939   5.313   5.223 -0.3371 -0.0002  0.2248
11765TIP3   OH235239   0.594   3.451   4.966  0.0712  0.5261 -0.2734
11765TIP3    H135240   0.604   3.370   5.015  0.5045  0.1375 -1.0003
11765TIP3    H235241   0.646   3.515   5.015  1.7626 -0.2227 -1.0744
11766TIP3   OH235242   6.946   5.747   4.962 -0.0138 -0.0256 -0.3292
11766TIP3    H135243   6.994   5.725   5.042  1.0231  2.0061 -0.3555
11766TIP3    H235244   6.991   5.699   4.893  1.3967  1.0600 -0.1970
11767TIP3   OH235245   7.418   3.516   4.145 -0.9925  0.2122 -0.2189
11767TIP3    H135246   7.484   3.568   4.190 -1.5861  1.4064 -0.6880
11767TIP3    H235247   7.466   3.471   4.075 -0.4901  0.2549  0.0997
11768TIP3   OH235248   0.611   5.587   4.205  0.0056  0.0548 -0.4810
11768TIP3    H135249   0.604   5.638   4.285 -1.1394  1.4470 -1.4362
11768TIP3    H235250   0.631   5.651   4.137  0.1587 -0.9894 -1.4442
11769TIP3   OH235251   1.202   3.281   6.757  0.3792  0.5461  0.1899
11769TIP3    H135252   1.285   3.326   6.774 -0.8985  3.2477 -0.6472
11769TIP3    H235253   1.206   3.258   6.664  0.6056 -0.2938  0.3944
11770TIP3   OH235254   8.397   4.715   6.534 -0.2764 -0.2766  0.0739
11770TIP3    H135255   8.458   4.665   6.589  1.0591  1.4363  0.1904
11770TIP3    H235256   8.357   4.778   6.593 -1.0109 -0.3529 -0.3376
11771TIP3   OH235257   8.404   3.858   5.876  0.1214  0.9233 -0.2568
11771TIP3    H135258   8.445   3.800   5.940 -0.4484 -1.4090 -1.9349
11771TIP3    H235259   8.346   3.914   5.928  0.6274 -0.0551  1.3930
11772TIP3   OH235260   5.635   4.977   6.509 -0.6532 -0.2149 -0.2263
11772TIP3    H135261   5.601   4.993   6.597 -2.5574  0.4474 -1.0718
11772TIP3    H235262   5.594   4.896   6.481 -0.9406  0.1752 -0.9473
11773TIP3   OH235263   6.811   3.726   5.383 -0.4696 -0.1247  0.2321
11773TIP3    H135264   6.870   3.720   5.308 -0.6652 -2.1612  0.2142
11773TIP3    H235265   6.725   3.746   5.345 -0.4367 -0.4864 -0.0357
11774TIP3   OH235266   7.614   4.107   5.281  0.5894  0.3773 -0.2161
11774TIP3    H135267   7.633   4.017   5.256  1.6658  0.7344 -0.7627
11774TIP3    H235268   7.535   4.130   5.232  0.7089 -0.0478 -0.6164
11775TIP3   OH235269   7.948   3.575   4.332 -0.9476 -0.9275 -0.4814
11775TIP3    H135270   8.021   3.615   4.285 -0.6208 -0.2365  0.6088
11775TIP3    H235271   7.987   3.504   4.382 -0.7835  0.2715  1.1413
11776TIP3   OH235272   7.601   5.528   4.061 -0.3649 -0.6751 -0.0228
11776TIP3    H135273   7.664   5.597   4.040  0.0448 -0.9187  0.4072
11776TIP3    H235274   7.516   5.569   4.049 -0.1201  0.0065  0.5581
11777TIP3   OH235275   6.890   2.752   6.540  0.0722 -0.1925  0.6375
11777TIP3    H135276   6.962   2.815   6.536 -1.3671  1.4119 -0.5069
11777TIP3    H235277   6.811   2.804   6.525 -1.0607 -2.4526 -1.5494
11778TIP3   OH235278   7.782   5.349   6.299  0.3373 -0.0040  0.1133
11778TIP3    H135279   7.804   5.370   6.389 -0.8111 -0.7660  0.5829
11778TIP3    H235280   7.697   5.306   6.304  0.3411 -0.2194 -1.3134
11779TIP3   OH235281   2.875   7.637   5.699  0.5379  0.1085  0.2008
11779TIP3    H135282   2.807   7.648   5.632  1.4261  0.5942 -0.6392
11779TIP3    H235283   2.929   7.565   5.666  0.1241 -0.6376  1.1330
11780TIP3   OH235284   0.778   4.746   3.900  0.1416  0.3131  0.5667
11780TIP3    H135285   0.695   4.724   3.857  0.6650  0.3333 -0.4735
11780TIP3    H235286   0.832   4.668   3.888  0.9129  0.9846 -0.3802
11781TIP3   OH235287   6.085   7.788   5.532  0.4136 -0.0835  0.4627
11781TIP3    H135288   6.093   7.693   5.518  2.0527  0.1231 -0.1911
11781TIP3    H235289   6.147   7.826   5.469 -1.0465  1.4817 -0.0490
11782TIP3   OH235290   7.784   5.730   4.210  0.2540  0.3396 -0.1691
11782TIP3    H135291   7.823   5.806   4.167 -0.4708  0.6034 -0.3591
11782TIP3    H235292   7.694   5.756   4.229 -0.5980 -1.1563 -1.9987
11783TIP3   OH235293   0.936   5.807   3.679  0.2031  0.4533 -0.2399
11783TIP3    H135294   0.940   5.897   3.711 -2.4570  0.1103  1.2269
11783TIP3    H235295   0.964   5.753   3.753  1.3167  0.0463 -0.9508
11784TIP3   OH235296   7.319   4.424   4.848 -0.0775  0.6500  0.4035
11784TIP3    H135297   7.382   4.375   4.902 -0.0270 -0.1094 -0.3407
11784TIP3    H235298   7.244   4.366   4.841  0.1109  0.5404 -0.7676
11785TIP3   OH235299   6.520   5.658   6.271 -0.4239 -0.1015 -0.2212
11785TIP3    H135300   6.585   5.601   6.312 -1.3082 -0.5909  0.5179
11785TIP3    H235301   6.436   5.619   6.294 -1.0792  2.0775  1.2026
11786TIP3   OH235302   8.145   5.269   4.075  0.3653  0.3661 -0.0415
11786TIP3    H135303   8.113   5.343   4.126 -1.5233 -1.2346  1.1683
11786TIP3    H235304   8.206   5.224   4.134  1.7111  1.0558 -0.8673
11787TIP3   OH235305   0.242   5.194   6.534  0.3733 -0.3104 -0.0107
11787TIP3    H135306   0.238   5.204   6.439  0.1170  0.8752  0.1175
11787TIP3    H235307   0.172   5.250   6.567  1.0089 -0.0542  0.9221
11788TIP3   OH235308   5.886   4.928   6.342  0.5392  0.0771  0.4322
11788TIP3    H135309   5.844   4.848   6.312  0.3075  0.4702 -0.3262
11788TIP3    H235310   5.831   4.960   6.413 -0.0507  0.2178 -0.0892
11789TIP3   OH235311   0.215   4.819   5.164  0.1035  0.3682 -0.4041
11789TIP3    H135312   0.167   4.738   5.181  0.3805  0.5565  1.3929
11789TIP3    H235313   0.154   4.889   5.188  1.3586  0.6055  2.2810
11790TIP3   OH235314   6.870   2.895   3.781 -0.2940  0.2834 -0.4003
11790TIP3    H135315   6.866   2.978   3.732 -0.3204  0.0278 -0.8343
11790TIP3    H235316   6.912   2.918   3.864  1.9192  0.2635 -1.4913
11791TIP3   OH235317   7.370   6.334   4.848  0.4641 -0.4992  0.1662
11791TIP3    H135318   7.302   6.320   4.914 -0.3160  0.1223 -0.4865
11791TIP3    H235319   7.338   6.408   4.796  2.2585  0.6468  0.6421
11792TIP3   OH235320   7.911   6.179   2.020  0.2362 -0.1006 -0.2942
11792TIP3    H135321   7.978   6.129   1.973  1.6560  1.4941 -0.0159
11792TIP3    H235322   7.873   6.236   1.953  1.2232  1.1047  0.1585
11793TIP3   OH235323   8.080   6.759   4.870  0.2209  0.4978  0.9052
11793TIP3    H135324   7.988   6.753   4.895  0.2318 -1.3259  0.5466
11793TIP3    H235325   8.080   6.819   4.795 -0.3744  2.2424  2.2516
11794TIP3   OH235326   5.055   5.425   5.533 -0.1070 -0.3885  0.1683
11794TIP3    H135327   5.072   5.404   5.625  1.6236  0.5039  0.0687
11794TIP3    H235328   4.960   5.436   5.529 -0.0648  1.0187  2.1636
11795TIP3   OH235329   5.719   7.098   3.621 -0.6863 -0.3617 -0.1484
11795TIP3    H135330   5.679   7.122   3.704 -0.8806  0.3622 -0.4491
11795TIP3    H235331   5.672   7.018   3.595 -2.0964  0.5814 -0.5876
11796TIP3   OH235332   3.856   2.457   0.874 -0.1952  0.1854 -0.3757
11796TIP3    H135333   3.895   2.541   0.853  0.5299 -0.6654 -2.5492
11796TIP3    H235334   3.762   2.469   0.859  0.0986  0.1375 -2.3810
11797TIP3   OH235335   0.565   6.190   2.482 -0.0698  0.1757 -0.0494
11797TIP3    H135336   0.560   6.261   2.546 -0.8900  0.6559 -0.6330
11797TIP3    H235337   0.474   6.175   2.456  0.3216  0.5956 -1.7338
11798TIP3   OH235338   7.824   6.224   4.986 -0.0920 -0.2106 -0.1579
11798TIP3    H135339   7.881   6.171   5.042  1.0159 -1.4051 -2.3281
11798TIP3    H235340   7.871   6.307   4.977 -1.0112  0.5625  1.8715
11799TIP3   OH235341   7.647   3.955   3.920 -0.1318 -0.2825  0.1862
11799TIP3    H135342   7.572   3.959   3.979  0.4383 -0.6682  0.9532
11799TIP3    H235343   7.721   3.937   3.977  0.1174 -2.9098 -0.8783
11800TIP3   OH235344   7.529   3.869   4.172 -0.2015  0.1360  0.1028
11800TIP3    H135345   7.493   3.824   4.249 -0.1908 -0.5258 -0.2781
11800TIP3    H235346   7.624   3.860   4.182 -0.2132 -0.5307 -0.3238
11801TIP3   OH235347   6.774   5.438   4.961 -0.3140  0.0101  0.0875
11801TIP3    H135348   6.828   5.442   5.040  0.7737 -0.1174 -0.6363
11801TIP3    H235349   6.743   5.527   4.949 -1.1094 -0.1209  1.0797
11802TIP3   OH235350   7.009   4.833   4.912 -0.1317  0.0375 -0.1550
11802TIP3    H135351   7.038   4.745   4.936  1.3613  0.7074  0.5619
11802TIP3    H235352   6.926   4.844   4.959 -1.2734 -1.6261 -1.6681
11803TIP3   OH235353   6.777   4.110   4.345  0.1220  0.1561 -0.3968
11803TIP3    H135354   6.836   4.057   4.291 -1.1225 -0.2173 -1.4037
11803TIP3    H235355   6.784   4.071   4.432  0.7751 -0.3759 -0.6812
11804TIP3   OH235356   7.800   4.821   4.435  0.2248 -0.2141  0.1657
11804TIP3    H135357   7.774   4.760   4.505  1.6472 -1.6374 -0.5251
11804TIP3    H235358   7.864   4.773   4.383  0.2260  1.3358 -1.3201
11805TIP3   OH235359   0.310   4.210   4.980 -0.1459 -0.6063  0.6256
11805TIP3    H135360   0.276   4.186   4.893 -2.2635 -1.2975  1.6067
11805TIP3    H235361   0.400   4.178   4.980  1.1318  2.5851 -2.6034
11806TIP3   OH235362   0.088   7.220   4.613 -0.0664 -0.1275 -0.1194
11806TIP3    H135363   0.091   7.297   4.670  0.4597 -0.0230 -0.2900
11806TIP3    H235364   0.157   7.163   4.646  0.3997  0.0412 -0.8123
11807TIP3   OH235365   6.930   6.044   4.263 -0.2541  0.0369  0.8271
11807TIP3    H135366   6.972   6.102   4.326  0.9846  0.4072 -0.3098
11807TIP3    H235367   6.917   5.962   4.310  2.4526 -0.3418  1.0228
11808TIP3   OH235368   6.625   5.235   5.278 -0.5263 -0.1647  0.3751
11808TIP3    H135369   6.568   5.287   5.335 -1.1694 -0.1289 -0.2984
11808TIP3    H235370   6.712   5.240   5.320 -0.5844  1.4200  0.3265
11809TIP3   OH235371   7.289   5.516   4.713  0.2406 -0.5111 -0.8228
11809TIP3    H135372   7.212   5.572   4.719 -0.4382 -1.4720 -0.6618
11809TIP3    H235373   7.313   5.519   4.621 -0.9191 -1.4679 -1.1613
11810TIP3   OH235374   6.747   4.621   4.673  0.0860  0.7612  0.3342
11810TIP3    H135375   6.713   4.555   4.612 -1.0355  1.8746 -0.2584
11810TIP3    H235376   6.780   4.570   4.747  0.1805 -0.5264 -0.5817
11811TIP3   OH235377   0.158   3.367   3.400  0.3126 -0.0075 -0.1582
11811TIP3    H135378   0.090   3.349   3.335  1.0296 -0.9714 -0.6535
11811TIP3    H235379   0.159   3.289   3.456  1.8900 -0.5610 -0.9390
11812TIP3   OH235380   6.748   3.259   4.279 -0.1698 -0.1958  0.0519
11812TIP3    H135381   6.788   3.238   4.364  0.7832  1.4385  0.0361
11812TIP3    H235382   6.760   3.180   4.227 -0.3647 -1.0648  1.3054
11813TIP3   OH235383   0.964   6.467   4.381 -0.1431  0.4002 -0.3487
11813TIP3    H135384   1.042   6.498   4.428  0.6170 -0.8056 -0.7965
11813TIP3    H235385   0.965   6.515   4.298  0.3759  0.0531 -0.5440
11814TIP3   OH235386   7.261   4.204   3.745 -0.4508 -0.1288 -0.8983
11814TIP3    H135387   7.196   4.202   3.816  1.7482 -0.7682  1.1718
11814TIP3    H235388   7.260   4.116   3.709 -1.0711 -0.0052 -1.1780
11815TIP3   OH235389   0.416   6.231   5.240  0.0285  0.1456  0.4871
11815TIP3    H135390   0.340   6.239   5.183  1.1795 -1.4783 -1.3312
11815TIP3    H235391   0.380   6.198   5.322 -1.5277  1.6735  0.4624
11816TIP3   OH235392   8.466   4.822   5.938  0.0504  0.1765 -0.2045
11816TIP3    H135393   8.432   4.911   5.934 -1.4502 -0.3875 -0.4632
11816TIP3    H235394   8.517   4.819   6.019 -2.7054  0.3306  1.6112
11817TIP3   OH235395   7.863   5.171   5.318  0.3582  0.5246 -0.1101
11817TIP3    H135396   7.771   5.144   5.317  0.5484 -0.1461  0.5956
11817TIP3    H235397   7.904   5.116   5.384  1.7730 -0.8321 -2.0730
11818TIP3   OH235398   8.264   3.428   3.993 -0.3477  0.1434 -0.2471
11818TIP3    H135399   8.339   3.455   3.938 -0.2511 -0.2366 -0.3061
11818TIP3    H235400   8.188   3.436   3.935 -0.0579 -1.6980 -0.9187
11819TIP3   OH235401   7.805   3.230   4.776 -0.2978  0.1136  0.0461
11819TIP3    H135402   7.890   3.242   4.819  0.0842  0.8478 -0.9051
11819TIP3    H235403   7.797   3.305   4.717 -1.0896 -0.5596 -0.7193
11820TIP3   OH235404   6.874   5.040   3.831  0.8467 -0.2600  0.7856
11820TIP3    H135405   6.875   4.950   3.799  2.3103 -0.2753  0.8642
11820TIP3    H235406   6.797   5.044   3.888 -2.3862  0.0014 -3.3172
11821TIP3   OH235407   8.147   6.389   4.380  0.1038  0.1780 -0.6954
11821TIP3    H135408   8.167   6.461   4.439 -0.0559 -0.7143  0.4640
11821TIP3    H235409   8.177   6.311   4.427 -1.0062 -0.6419 -1.3267
11822TIP3   OH235410   0.293   3.086   5.481 -0.4793  0.3206 -0.3976
11822TIP3    H135411   0.255   3.000   5.463  0.8428 -0.3139 -0.2800
11822TIP3    H235412   0.358   3.070   5.549 -0.4010  1.4606 -0.1904
11823TIP3   OH235413   6.706   5.842   5.017 -0.3356 -0.2814  0.1876
11823TIP3    H135414   6.794   5.805   5.016 -0.2012  0.0440 -0.1655
11823TIP3    H235415   6.714   5.922   5.069 -0.2702  0.1157 -0.4307
11824TIP3   OH235416   7.221   6.125   5.419 -0.2604  0.0379  0.2869
11824TIP3    H135417   7.126   6.124   5.413 -0.3884  2.8677  0.9840
11824TIP3    H235418   7.247   6.210   5.383  2.0345 -0.8149 -0.1892
11825TIP3   OH235419   6.761   4.523   5.599  0.1730 -0.6894  0.3269
11825TIP3    H135420   6.843   4.554   5.561 -0.3338  2.1488  1.4302
11825TIP3    H235421   6.777   4.522   5.694 -1.6534  1.8798  0.7163
11826TIP3   OH235422   6.918   6.625   4.165 -0.1355  0.0161  0.2822
11826TIP3    H135423   7.011   6.603   4.172  0.1724  0.4848 -1.7647
11826TIP3    H235424   6.889   6.638   4.255  2.1122  1.1331  0.8907
11827TIP3   OH235425   7.478   4.590   4.387 -0.1203  0.4010  0.8537
11827TIP3    H135426   7.498   4.605   4.295 -0.5654  2.2765  1.0397
11827TIP3    H235427   7.430   4.507   4.388  0.8973 -0.2196 -0.4559
11828TIP3   OH235428   0.192   5.162   2.546  0.2629 -0.3509 -0.0838
11828TIP3    H135429   0.146   5.084   2.515  1.0533 -1.1941  0.8415
11828TIP3    H235430   0.187   5.224   2.472 -1.4228 -0.8117 -0.3778
11829TIP3   OH235431   7.171   3.897   3.677 -0.1674  0.3657  0.3026
11829TIP3    H135432   7.167   3.833   3.606 -0.1041 -0.8054  1.3368
11829TIP3    H235433   7.112   3.967   3.649 -0.9267 -0.5553 -0.4431
11830TIP3   OH235434   0.142   7.312   3.767  0.1624 -0.1287  0.1540
11830TIP3    H135435   0.160   7.403   3.792 -1.1601  0.1016  0.3051
11830TIP3    H235436   0.119   7.317   3.674 -0.3131 -0.2455  0.2622
11831TIP3   OH235437   6.516   6.514   4.495 -0.7019 -0.2054 -0.2834
11831TIP3    H135438   6.512   6.427   4.456  0.3778 -0.3467 -0.0919
11831TIP3    H235439   6.546   6.572   4.425 -0.5807 -0.1355 -0.1754
11832TIP3   OH235440   1.851   6.385   6.592  0.2994  0.2432 -0.2694
11832TIP3    H135441   1.824   6.345   6.510  0.7040 -0.5218 -0.0378
11832TIP3    H235442   1.936   6.425   6.574 -0.4588  1.6953 -0.7067
11833TIP3   OH235443   1.319   4.795   4.324  0.0668  0.1973  0.6452
11833TIP3    H135444   1.352   4.705   4.333 -1.4401 -0.5898 -1.1020
11833TIP3    H235445   1.274   4.794   4.239 -2.9189  1.6504  2.1492
11834TIP3   OH235446   7.639   5.184   6.684 -0.1071  0.3362  0.4403
11834TIP3    H135447   7.641   5.116   6.617 -1.5137  0.3308  0.3959
11834TIP3    H235448   7.712   5.242   6.661 -1.7973  1.4496 -2.2742
11835TIP3   OH235449   7.787   5.451   5.173  0.2581  0.3540  0.1115
11835TIP3    H135450   7.695   5.474   5.185 -0.4040 -1.1856 -1.8899
11835TIP3    H235451   7.789   5.356   5.172  1.6936  0.3676 -1.1054
11836TIP3   OH235452   7.882   7.560   3.721  0.1186 -0.0748 -0.1299
11836TIP3    H135453   7.795   7.571   3.759 -0.2511 -1.6871 -0.4380
11836TIP3    H235454   7.925   7.495   3.777  1.1018  0.6461 -0.0286
11837TIP3   OH235455   7.569   4.011   4.818  0.4134  0.2355  0.6208
11837TIP3    H135456   7.606   3.943   4.874  1.1624 -0.3609 -0.5732
11837TIP3    H235457   7.642   4.040   4.764 -0.1225  1.3354  0.4650
11838TIP3   OH235458   7.212   7.072   3.895 -0.3532  0.0805  0.5290
11838TIP3    H135459   7.264   7.048   3.971 -0.4503 -1.9758 -0.0336
11838TIP3    H235460   7.130   7.104   3.931 -0.2911 -0.6169  1.2986
11839TIP3   OH235461   6.910   4.645   6.554  0.6195 -0.3703 -0.0685
11839TIP3    H135462   6.925   4.677   6.465  1.7498 -1.1631 -0.1753
11839TIP3    H235463   6.817   4.623   6.557 -0.0777  2.3400 -0.1715
11840TIP3   OH235464   7.520   6.202   4.166  0.0125  0.2118 -0.0962
11840TIP3    H135465   7.587   6.210   4.098  0.9768  0.3159  0.8475
11840TIP3    H235466   7.567   6.163   4.240 -1.5214 -1.8731 -0.2023
11841TIP3   OH235467   7.505   4.382   5.538 -0.8315  0.2387 -0.0376
11841TIP3    H135468   7.546   4.462   5.571 -1.4649  0.9232 -0.8706
11841TIP3    H235469   7.489   4.400   5.445  0.1237 -1.3263 -0.5202
11842TIP3   OH235470   7.127   5.468   3.879  0.0130  0.9630  0.3581
11842TIP3    H135471   7.125   5.488   3.972  0.0002 -1.3543  0.8738
11842TIP3    H235472   7.220   5.466   3.856  0.0420  0.5386  0.5264
11843TIP3   OH235473   4.279   0.381   0.697  0.0834 -0.2222  0.1520
11843TIP3    H135474   4.279   0.292   0.730  1.0957 -0.3668 -0.2044
11843TIP3    H235475   4.371   0.408   0.700 -0.1363  0.6161 -0.2447
11844TIP3   OH235476   8.171   5.626   3.079  0.5579 -0.0646  0.4607
11844TIP3    H135477   8.208   5.544   3.112  0.3384 -1.1242 -1.8461
11844TIP3    H235478   8.081   5.627   3.112  0.2567 -1.2411 -0.2890
11845TIP3   OH235479   5.524   0.956   1.266  0.4654 -0.0989  0.2550
11845TIP3    H135480   5.495   0.955   1.175  0.5629  0.0632  0.2214
11845TIP3    H235481   5.613   0.991   1.262  0.8298 -0.9977  0.3107
11846TIP3   OH235482   7.655   6.146   3.036 -0.2698  0.4476  0.4658
11846TIP3    H135483   7.702   6.092   3.100  1.6046  2.2830  0.6676
11846TIP3    H235484   7.652   6.233   3.075 -1.1666  1.0660 -0.9360
11847TIP3   OH235485   6.428   7.757   5.759 -0.1512 -0.2599 -0.2631
11847TIP3    H135486   6.369   7.690   5.723  0.1276 -0.9957  0.6232
11847TIP3    H235487   6.371   7.830   5.781 -0.4514 -0.1787 -1.3158
11848TIP3   OH235488   6.817   4.449   4.879 -0.3538  0.5230  0.0108
11848TIP3    H135489   6.846   4.517   4.939  1.8056 -0.1756 -0.2169
11848TIP3    H235490   6.805   4.372   4.935 -1.8305  0.7905  0.1010
11849TIP3   OH235491   8.194   3.302   6.592 -0.2535 -0.5838  0.8079
11849TIP3    H135492   8.110   3.295   6.637  0.8641 -0.5598  2.9573
11849TIP3    H235493   8.174   3.348   6.510 -2.3157 -0.5601  1.3044
11850TIP3   OH235494   6.797   6.790   4.511  0.0417 -0.4696  0.7712
11850TIP3    H135495   6.856   6.726   4.549  2.2623  0.2635 -1.3584
11850TIP3    H235496   6.742   6.741   4.451  2.4488 -0.2635 -1.6588
11851TIP3   OH235497   0.176   5.216   5.384  0.0283 -0.0740  0.6531
11851TIP3    H135498   0.254   5.171   5.352 -0.1714 -0.3458  0.5448
11851TIP3    H235499   0.104   5.155   5.366 -0.0811 -0.2464  1.6665
11852TIP3   OH235500   1.104   6.621   6.740 -0.3660 -0.1522 -0.1396
11852TIP3    H135501   1.124   6.691   6.802 -1.8178  1.6338 -1.6478
11852TIP3    H235502   1.188   6.601   6.698  0.5203 -0.9969  1.9590
11853TIP3   OH235503   8.324   5.111   5.128  0.1778 -0.3000  0.0423
11853TIP3    H135504   8.265   5.169   5.176 -1.1006  0.2176 -2.1148
11853TIP3    H235505   8.344   5.158   5.047  0.5132 -2.1150 -0.9532
11854TIP3   OH235506   0.562   5.433   3.977 -0.3901  0.3968  0.2988
11854TIP3    H135507   0.636   5.492   3.961 -0.5608  0.5212 -0.0262
11854TIP3    H235508   0.521   5.468   4.056 -1.2846  1.5120 -0.6343
11855TIP3   OH235509   6.066   6.632   3.850 -0.1478 -0.2991  0.0005
11855TIP3    H135510   6.127   6.605   3.781 -1.8553 -0.0996 -1.6131
11855TIP3    H235511   6.000   6.563   3.852 -0.1964 -0.2294  1.3563
11856TIP3   OH235512   6.269   3.535   5.427 -0.3448 -0.2770 -0.0536
11856TIP3    H135513   6.362   3.528   5.407 -0.2695 -0.3311  0.3220
11856TIP3    H235514   6.230   3.567   5.346  0.1822  0.9965  0.1706
11857TIP3   OH235515   1.670   7.330   2.576  0.2331 -0.4103 -0.0350
11857TIP3    H135516   1.750   7.310   2.624 -0.2984  0.7559  1.3578
11857TIP3    H235517   1.613   7.255   2.591  0.0831 -0.0650  1.1255
11858TIP3   OH235518   7.566   6.001   2.294  0.1593  0.1616 -0.1905
11858TIP3    H135519   7.493   5.954   2.335  0.9310 -0.9644 -0.0758
11858TIP3    H235520   7.631   6.009   2.363  0.7367 -0.1428 -0.6935
11859TIP3   OH235521   0.026   4.008   5.336 -0.3899  0.2638  0.0368
11859TIP3    H135522   0.088   4.002   5.264 -0.3251 -2.2427  0.2811
11859TIP3    H235523  -0.057   4.032   5.294  0.0767  0.7051 -0.6359
11860TIP3   OH235524   7.264   6.272   4.255 -0.0992 -0.1432  0.0114
11860TIP3    H135525   7.338   6.243   4.202 -0.8634 -0.3730 -0.9484
11860TIP3    H235526   7.298   6.274   4.345  1.2036  0.2616 -0.4839
11861TIP3   OH235527   7.993   3.876   4.567  0.1599  0.4765 -0.3269
11861TIP3    H135528   8.069   3.822   4.587  0.4891  0.8079 -0.6672
11861TIP3    H235529   8.007   3.904   4.476 -1.3082 -1.0046 -1.0308
11862TIP3   OH235530   6.921   4.231   4.999 -0.1566  0.0738 -0.2446
11862TIP3    H135531   6.863   4.161   4.970  0.9101 -0.7267 -0.5213
11862TIP3    H235532   6.926   4.221   5.094  1.1701 -1.1962 -0.4279
11863TIP3   OH235533   6.726   6.205   4.137  0.0908 -0.4645 -0.4439
11863TIP3    H135534   6.765   6.276   4.086  0.2813 -1.1626 -1.2782
11863TIP3    H235535   6.798   6.145   4.153 -0.6425 -1.8341 -2.1145
11864TIP3   OH235536   6.206   3.756   5.569 -0.0240  0.2582 -0.0568
11864TIP3    H135537   6.245   3.677   5.532  1.2228  0.4479  0.8158
11864TIP3    H235538   6.270   3.825   5.552 -0.7932  0.9533 -0.2040
11865TIP3   OH235539   7.455   5.357   3.554  0.1338 -0.5925  0.1927
11865TIP3    H135540   7.427   5.378   3.466  0.9394 -1.2770 -0.2406
11865TIP3    H235541   7.412   5.274   3.574 -0.7858  0.0242  0.8049
11866TIP3   OH235542   0.593   7.844   3.664 -0.3148 -0.8655  0.3512
11866TIP3    H135543   0.682   7.845   3.700 -1.2853 -0.9906  2.8472
11866TIP3    H235544   0.602   7.882   3.576  1.8785  0.9369  1.3127
11867TIP3   OH235545   6.944   3.836   4.215 -0.5567 -0.3788  0.5823
11867TIP3    H135546   7.028   3.791   4.202 -0.5270 -0.3376  0.6332
11867TIP3    H235547   6.887   3.768   4.251 -0.4484 -0.3173  0.8715
11868TIP3   OH235548   1.137   7.005   2.184  0.4009  0.7858 -0.0214
11868TIP3    H135549   1.121   6.945   2.257 -0.5347  0.2775 -0.6265
11868TIP3    H235550   1.061   6.993   2.127  1.1657  1.1091 -1.1219
11869TIP3   OH235551   7.255   1.775   0.198 -0.3277  0.6871  0.8144
11869TIP3    H135552   7.294   1.822   0.125 -0.4865  0.2456  0.4388
11869TIP3    H235553   7.174   1.737   0.162  0.6946 -1.3802  0.5973
11870TIP3   OH235554   2.449   5.497   5.977 -0.3479  0.7588  0.1936
11870TIP3    H135555   2.505   5.422   5.955  0.3133  1.4739 -0.5629
11870TIP3    H235556   2.362   5.472   5.944 -0.7697 -0.8207  2.3293
11871TIP3   OH235557   6.118   5.330   3.943  0.3294  0.8666 -0.9825
11871TIP3    H135558   6.040   5.307   3.893 -0.3779 -1.2983  1.0391
11871TIP3    H235559   6.089   5.332   4.034  2.3701  1.2081 -0.3087
11872TIP3   OH235560   5.781   6.219   4.279  0.0672 -0.2251  0.2948
11872TIP3    H135561   5.820   6.134   4.299  2.6640  0.6475 -0.8175
11872TIP3    H235562   5.696   6.198   4.239  0.0301 -2.2301  1.3694
11873TIP3   OH235563   1.130   4.972   4.476 -0.8633 -0.1381 -0.2527
11873TIP3    H135564   1.046   4.959   4.433 -1.4469 -0.6139  1.0082
11873TIP3    H235565   1.186   4.902   4.441 -1.3214 -0.5038 -0.2485
11874TIP3   OH235566   7.909   4.114   5.053  0.2123 -0.1052 -0.2048
11874TIP3    H135567   7.866   4.030   5.042  2.6737 -1.4430  0.0081
11874TIP3    H235568   7.985   4.111   4.994  0.8196  1.6134  0.4352
11875TIP3   OH235569   6.682   2.614   6.749 -0.4262  0.6042 -0.2485
11875TIP3    H135570   6.586   2.617   6.744 -0.3940  0.7944 -0.7559
11875TIP3    H235571   6.711   2.628   6.659  0.0557 -1.4440 -0.4284
11876TIP3   OH235572   0.104   3.576   5.446 -0.2893  1.0952  0.8160
11876TIP3    H135573   0.072   3.554   5.359  1.4544  0.1487  0.3818
11876TIP3    H235574   0.171   3.643   5.431  0.0851  0.8599  1.4131
11877TIP3   OH235575   0.710   5.724   6.629  0.2810 -0.3417 -0.3650
11877TIP3    H135576   0.785   5.707   6.572  1.5641  2.1803  0.5068
11877TIP3    H235577   0.723   5.665   6.704  1.4714  0.1626 -0.1623
11878TIP3   OH235578   8.439   5.738   5.592  0.3558 -0.1947 -0.3420
11878TIP3    H135579   8.465   5.728   5.683 -1.6373  2.1402  0.5349
11878TIP3    H235580   8.357   5.689   5.585 -0.3535  0.9818 -0.4346
11879TIP3   OH235581   1.050   6.263   5.067 -0.5122  0.1975  0.2356
11879TIP3    H135582   1.066   6.290   4.977 -2.6375  2.0276  0.3387
11879TIP3    H235583   1.079   6.172   5.071 -0.2039  0.1556 -2.2317
11880TIP3   OH235584   5.936   6.546   6.059 -0.1740 -0.0240 -0.7092
11880TIP3    H135585   5.970   6.496   6.134  0.4435 -0.9798 -1.6117
11880TIP3    H235586   5.954   6.491   5.983  0.0951  1.3657 -1.6804
11881TIP3   OH235587   6.423   2.810   6.294  0.2164  1.3301 -0.3972
11881TIP3    H135588   6.463   2.747   6.234  0.9684  1.1504  0.2882
11881TIP3    H235589   6.486   2.818   6.366 -0.9985  1.0037  0.7279
11882TIP3   OH235590   0.188   5.193   6.271  0.2436  0.0929 -0.4527
11882TIP3    H135591   0.246   5.155   6.205 -0.3742  1.6510 -1.9450
11882TIP3    H235592   0.100   5.172   6.240 -0.1173  2.7429 -1.3806
11883TIP3   OH235593   7.415   6.832   4.197 -0.2583 -0.2830 -0.4866
11883TIP3    H135594   7.350   6.812   4.129  0.5313  1.2972 -1.7425
11883TIP3    H235595   7.499   6.814   4.155  0.1453 -2.4570  1.1774
11884TIP3   OH235596   2.816   5.299   5.870  0.1818  0.0565  0.6436
11884TIP3    H135597   2.730   5.280   5.909 -1.6964  0.8280 -2.8203
11884TIP3    H235598   2.840   5.385   5.904 -1.2028  0.5423  0.4425
11885TIP3   OH235599   5.723   1.764   0.243  0.4008  0.1759 -0.0033
11885TIP3    H135600   5.696   1.771   0.151  1.0490 -0.8031 -0.2791
11885TIP3    H235601   5.745   1.671   0.254  0.3126  0.2875  1.1478
11886TIP3   OH235602   7.333   5.112   3.991  1.1117  0.6654 -0.3105
11886TIP3    H135603   7.267   5.160   3.943  2.7288  0.8786 -2.4023
11886TIP3    H235604   7.286   5.038   4.030 -0.6956  1.9186 -0.0556
11887TIP3   OH235605   1.392   7.717  -0.021 -0.2634  0.0194  0.1509
11887TIP3    H135606   1.452   7.657   0.021 -0.5457 -1.0272 -0.8946
11887TIP3    H235607   1.332   7.744   0.048  2.0959  2.0125  1.4765
11888TIP3   OH235608   5.954   4.757   3.878  0.4048 -0.0436 -0.2947
11888TIP3    H135609   5.946   4.790   3.968  0.4843  0.9087 -0.6266
11888TIP3    H235610   5.942   4.662   3.886  0.4072  0.0310  0.7196
11889TIP3   OH235611   6.184   4.951   4.823  0.1133 -0.3733  0.4254
11889TIP3    H135612   6.259   4.910   4.782  1.7198  1.4109  1.5013
11889TIP3    H235613   6.133   4.877   4.858  2.1579 -1.5557  1.0343
11890TIP3   OH235614   6.828   4.130   5.745  0.2054 -0.0560 -0.0992
11890TIP3    H135615   6.914   4.107   5.778  0.3372 -1.2635 -1.2513
11890TIP3    H235616   6.767   4.084   5.802  0.3787 -0.6999 -0.4347
11891TIP3   OH235617   7.470   5.696   5.945 -0.6040 -0.4852  0.4601
11891TIP3    H135618   7.479   5.636   6.019 -1.9025  0.4054  1.3912
11891TIP3    H235619   7.386   5.741   5.962 -0.6448  0.1172 -1.2686
11892TIP3   OH235620   6.915   5.902   4.554 -0.1567 -0.3214  0.3139
11892TIP3    H135621   6.932   5.809   4.536  0.9463 -0.0079 -0.3487
11892TIP3    H235622   7.001   5.938   4.577 -0.7668  0.3066  1.6532
11893TIP3   OH235623   2.835   6.664   4.537  0.0646  0.1592  0.1398
11893TIP3    H135624   2.851   6.704   4.451  0.5548  0.3751  0.3251
11893TIP3    H235625   2.923   6.646   4.571 -0.1228  0.2202  0.6601
11894TIP3   OH235626   6.449   4.004   4.054 -0.5603 -0.1308 -0.1323
11894TIP3    H135627   6.380   4.069   4.069 -1.7441 -1.5039  0.4296
11894TIP3    H235628   6.477   3.978   4.142 -0.8190 -1.1455 -0.3466
11895TIP3   OH235629   7.301   0.300   0.888 -0.0524 -0.2053 -0.5601
11895TIP3    H135630   7.227   0.294   0.949 -0.5654  1.9088 -0.9245
11895TIP3    H235631   7.371   0.340   0.938  0.1608 -0.2506 -0.8172
11896TIP3   OH235632   0.380   4.258   6.031  0.8194  0.4930 -0.3151
11896TIP3    H135633   0.302   4.270   5.977  0.3131 -1.4334 -0.0423
11896TIP3    H235634   0.358   4.299   6.114  0.1790  0.2005 -0.3331
11897TIP3   OH235635   7.252   5.010   4.806 -0.0914  0.3814 -0.8197
11897TIP3    H135636   7.211   5.081   4.757  0.8358  0.5274 -1.3830
11897TIP3    H235637   7.330   4.988   4.756 -0.3040 -0.9543 -0.5826
11898TIP3   OH235638   5.961   4.267   4.836  0.5593  0.5998  0.4969
11898TIP3    H135639   6.046   4.249   4.795  0.1726  2.5805 -1.2187
11898TIP3    H235640   5.902   4.287   4.763 -1.3275 -0.3972  1.6885
11899TIP3   OH235641   6.197   5.802   6.556 -0.8355  0.4188 -0.9312
11899TIP3    H135642   6.261   5.873   6.545  0.8439 -0.8440  0.5811
11899TIP3    H235643   6.216   5.741   6.484 -0.5770  0.2148 -0.6890
11900TIP3   OH235644   4.083   1.359   0.125 -0.1144  0.5407 -0.1974
11900TIP3    H135645   4.072   1.264   0.118 -0.4235  0.7127 -2.5058
11900TIP3    H235646   4.168   1.370   0.169 -1.3516 -0.7609  2.6778
11901TIP3   OH235647   7.935   4.994   4.833  0.8929 -0.7277  0.4636
11901TIP3    H135648   7.850   4.989   4.790  0.4367  0.4759  1.1869
11901TIP3    H235649   7.921   4.955   4.919  0.8100  0.3157  0.9410
11902TIP3   OH235650   7.390   6.017   4.756  0.2887 -0.6862 -0.1268
11902TIP3    H135651   7.427   5.936   4.792  0.5317 -0.2703  0.5580
11902TIP3    H235652   7.410   6.084   4.821 -0.2772 -0.1497 -0.5027
11903TIP3   OH235653   0.883   5.799   5.391 -0.3621  0.4118  0.0420
11903TIP3    H135654   0.804   5.786   5.443 -0.1222 -0.0543  0.2878
11903TIP3    H235655   0.924   5.877   5.430 -0.5371  0.4697  0.1114
11904TIP3   OH235656   7.310   4.989   5.706  0.0832 -0.2743  0.1232
11904TIP3    H135657   7.225   4.968   5.745  0.5282 -0.7053  0.8799
11904TIP3    H235658   7.329   5.077   5.737  0.6283 -0.7770  1.2286
11905TIP3   OH235659   7.485   6.470   3.801  0.4934  0.0552 -0.6392
11905TIP3    H135660   7.483   6.503   3.711  0.5721 -0.1067 -0.6999
11905TIP3    H235661   7.396   6.439   3.817  0.2107  1.0057 -0.3175
11906TIP3   OH235662   5.017   1.132   0.859  0.2282  0.1436 -0.1024
11906TIP3    H135663   5.089   1.184   0.895 -1.9078  1.7249  2.0094
11906TIP3    H235664   5.043   1.041   0.876  0.6105  0.7631  2.9424
11907TIP3   OH235665   8.181   5.155   6.331 -0.1209 -0.0065 -0.1051
11907TIP3    H135666   8.115   5.207   6.285  0.3228  1.1017  0.4927
11907TIP3    H235667   8.140   5.070   6.343 -0.4384 -0.1717 -2.1154
11908TIP3   OH235668   8.057   3.057   4.709  0.0082  0.2858  0.4355
11908TIP3    H135669   8.044   3.101   4.794  1.4816  1.2448  0.1830
11908TIP3    H235670   8.112   2.982   4.730 -0.0915  0.2087  0.4206
11909TIP3   OH235671   7.801   4.208   3.943 -0.0326 -0.0269  0.0355
11909TIP3    H135672   7.865   4.278   3.960  1.1889 -1.6440  2.4202
11909TIP3    H235673   7.740   4.246   3.879  0.6413  3.1802  1.2031
11910TIP3   OH235674   7.482   4.639   4.808 -0.2952 -0.0563  0.1099
11910TIP3    H135675   7.442   4.552   4.814  0.6632 -0.3882  1.6959
11910TIP3    H235676   7.461   4.682   4.891 -0.2248  1.0064 -0.4082
11911TIP3   OH235677   8.217   6.600   4.539 -0.8329  0.4636  0.4777
11911TIP3    H135678   8.182   6.657   4.471  1.1001 -0.3780 -1.2930
11911TIP3    H235679   8.263   6.659   4.598  0.4325  0.8686 -0.8733
11912TIP3   OH235680   4.558   2.371   0.811  0.2192 -0.3101  0.5522
11912TIP3    H135681   4.639   2.322   0.823 -0.7281 -1.7623  1.2158
11912TIP3    H235682   4.569   2.449   0.866  0.0281 -1.9324  3.0114
11913TIP3   OH235683   6.809   4.630   4.373 -0.0018  0.6085  0.3718
11913TIP3    H135684   6.729   4.668   4.409 -0.3845 -0.6419  0.8721
11913TIP3    H235685   6.879   4.684   4.409 -0.6077  1.6932 -0.0426
11914TIP3   OH235686   0.265   3.653   4.479 -0.3375 -0.4545  0.4117
11914TIP3    H135687   0.338   3.597   4.502  1.0484  1.1681  0.0870
11914TIP3    H235688   0.290   3.691   4.395 -0.1929  2.3804  1.6791
11915TIP3   OH235689   6.537   4.539   3.246  0.0779  0.4900  1.0131
11915TIP3    H135690   6.537   4.448   3.216 -2.4623  0.1627  1.9021
11915TIP3    H235691   6.539   4.591   3.165  1.9516 -0.3113  0.5113
11916TIP3   OH235692   0.613   5.828   3.775  0.1920  0.2522  0.1002
11916TIP3    H135693   0.610   5.922   3.756  0.4448  0.6902  2.1010
11916TIP3    H235694   0.647   5.788   3.694 -0.4097  1.8081 -0.9467
11917TIP3   OH235695   5.491   4.407   4.500 -0.0018  0.3215  0.0690
11917TIP3    H135696   5.424   4.475   4.504  0.0984  0.3871  0.6724
11917TIP3    H235697   5.498   4.375   4.590 -0.7393 -1.1574 -0.3936
11918TIP3   OH235698   8.091   5.136   5.650 -0.3122  0.2108  0.0205
11918TIP3    H135699   8.083   5.125   5.745 -0.0412  0.3013  0.0551
11918TIP3    H235700   8.166   5.194   5.639  0.3390 -0.6710 -0.2869
11919TIP3   OH235701   7.385   5.653   4.270 -0.1112  0.3203 -0.6981
11919TIP3    H135702   7.451   5.587   4.291 -1.3881 -0.5850  0.6167
11919TIP3    H235703   7.431   5.736   4.277  0.4670 -0.1757  2.1738
11920TIP3   OH235704   2.359   7.122   4.203 -0.0025  0.6973 -0.1627
11920TIP3    H135705   2.418   7.195   4.219  0.1057  0.3404  1.0514
11920TIP3    H235706   2.398   7.048   4.250 -0.5001  0.0346 -0.7747
11921TIP3   OH235707   7.267   2.064   0.967  0.6995 -0.5913  0.0291
11921TIP3    H135708   7.299   1.974   0.960  1.2916 -0.2873 -1.2278
11921TIP3    H235709   7.194   2.058   1.029 -0.3428 -2.2092 -1.3054
11922TIP3   OH235710   0.517   7.018   4.528 -0.0027  0.2382 -0.0452
11922TIP3    H135711   0.554   6.969   4.455 -1.4327  0.5497 -0.9921
11922TIP3    H235712   0.591   7.066   4.565  1.0644 -1.2892 -0.1925
11923TIP3   OH235713   1.935   7.381   3.321  0.0132 -0.1059 -0.2649
11923TIP3    H135714   1.925   7.476   3.327  1.0156  0.1595 -2.4548
11923TIP3    H235715   2.000   7.360   3.388 -1.3486  0.5240  1.2907
11924TIP3   OH235716   0.462   5.675   6.489  0.0650  0.0296  0.1665
11924TIP3    H135717   0.525   5.728   6.537  1.0520 -1.1131  0.1503
11924TIP3    H235718   0.471   5.587   6.526 -1.1022 -0.2650 -0.2410
11925TIP3   OH235719   1.167   4.082   6.195 -0.2975 -0.9180  0.4488
11925TIP3    H135720   1.096   4.118   6.142 -0.3467 -0.8149  0.5826
11925TIP3    H235721   1.146   4.110   6.284  0.7709  0.5099  0.2658
11926TIP3   OH235722   0.857   1.953   0.626  0.1673 -0.1089 -0.1831
11926TIP3    H135723   0.826   2.028   0.677 -0.9228 -0.7856  0.1711
11926TIP3    H235724   0.952   1.959   0.630  0.0946  0.4368  1.0789
11927TIP3   OH235725   6.541   3.297   0.091 -0.0423  0.1863  0.0963
11927TIP3    H135726   6.580   3.237   0.027 -0.3582 -0.2861  0.3458
11927TIP3    H235727   6.583   3.381   0.072 -1.4125  0.4684 -1.8838
11928TIP3   OH235728   6.420   1.874   0.327 -0.1342  0.5316 -0.1034
11928TIP3    H135729   6.392   1.790   0.289  2.2708  0.0310 -0.8399
11928TIP3    H235730   6.443   1.853   0.417 -0.6729  0.6561  0.0674
11929TIP3   OH235731   1.467   5.858   6.446  0.4421  0.4499 -0.0951
11929TIP3    H135732   1.402   5.912   6.491  0.6620  0.3587  0.3413
11929TIP3    H235733   1.416   5.797   6.393  0.1666  0.1264  0.5416
11930TIP3   OH235734   2.904   1.068   3.993  0.2595 -0.0696 -0.3038
11930TIP3    H135735   2.880   1.128   3.923  0.1118  1.0184  0.6585
11930TIP3    H235736   2.821   1.034   4.026  0.3234 -0.5180 -0.6095
11931TIP3   OH235737   8.039   6.803   4.435  0.4160  0.3684 -0.1625
11931TIP3    H135738   7.975   6.734   4.419  1.1922 -0.1559 -1.0405
11931TIP3    H235739   8.003   6.852   4.509  0.3427 -1.6052  1.1520
11932TIP3   OH235740   6.833   1.853   2.369  0.4335  0.5009 -0.8200
11932TIP3    H135741   6.868   1.790   2.432 -2.1736 -0.6208 -0.4668
11932TIP3    H235742   6.810   1.929   2.423 -0.0953  0.2346 -0.6635
11933TIP3   OH235743   5.045   0.271   1.573 -0.0247 -0.2734  0.0173
11933TIP3    H135744   4.987   0.230   1.509 -1.4322  0.5635  0.7320
11933TIP3    H235745   5.070   0.354   1.532 -0.4259 -0.0217  0.2757
11934TIP3   OH235746   2.106   7.522   4.600 -0.3221  0.0982  0.4506
11934TIP3    H135747   2.181   7.578   4.621 -0.6834  0.7318  0.0635
11934TIP3    H235748   2.145   7.444   4.561  0.2734 -0.5063  2.1900
11935TIP3   OH235749   2.866   6.630   4.831  0.2612  0.0186 -0.2005
11935TIP3    H135750   2.843   6.578   4.754 -1.1523  0.6189 -0.2029
11935TIP3    H235751   2.905   6.710   4.796 -1.8804  1.0197 -0.3822
11936TIP3   OH235752   3.397   7.704   5.996 -0.4147  0.5313 -0.3922
11936TIP3    H135753   3.328   7.740   6.051  0.5090  0.7353  0.6608
11936TIP3    H235754   3.365   7.618   5.970  0.9092 -1.4959  4.0731
11937TIP3   OH235755   8.129   2.631   0.779  1.1187  0.4441 -0.6874
11937TIP3    H135756   8.045   2.676   0.767  0.6980 -0.0883  0.2650
11937TIP3    H235757   8.177   2.649   0.698  0.1065  0.7863 -1.2219
11938TIP3   OH235758   7.033   6.226   4.514  0.5180 -0.2403  0.3274
11938TIP3    H135759   6.986   6.307   4.534 -1.0907 -1.0203 -0.1599
11938TIP3    H235760   7.113   6.255   4.471  0.3556  1.1195  0.9119
11939TIP3   OH235761   0.367   3.337   0.112  0.4264  0.1140 -0.2172
11939TIP3    H135762   0.342   3.380   0.030  1.3069  0.4475 -0.3165
11939TIP3    H235763   0.380   3.245   0.087 -1.1485 -0.1659 -0.0656
11940TIP3   OH235764   0.626   6.001   4.051  0.3031 -0.2464  0.4347
11940TIP3    H135765   0.712   5.982   4.013 -0.0954 -0.2871 -0.4540
11940TIP3    H235766   0.571   5.928   4.023 -0.4032  0.5552 -0.2727
11941TIP3   OH235767   6.253   1.603   1.419  0.2340 -0.3534  0.1629
11941TIP3    H135768   6.337   1.557   1.430  0.0829 -0.1472  2.3103
11941TIP3    H235769   6.205   1.549   1.356  1.7929 -0.7175 -0.7629
11942TIP3   OH235770   2.362   6.450   5.304  0.0100  0.3100  0.4638
11942TIP3    H135771   2.358   6.355   5.318  1.7305  0.0824 -0.4755
11942TIP3    H235772   2.394   6.485   5.387  1.6387 -0.1679  0.0438
11943TIP3   OH235773   0.164   4.597   6.433  0.4788 -0.2562  0.3462
11943TIP3    H135774   0.152   4.690   6.454  0.9955  0.0122 -0.5160
11943TIP3    H235775   0.220   4.563   6.503  0.7913  0.2285  0.3332
11944TIP3   OH235776   0.466   5.268   5.747 -0.0679 -0.1853 -0.0035
11944TIP3    H135777   0.545   5.231   5.706  0.9624 -0.2421  1.9650
11944TIP3    H235778   0.398   5.204   5.729  0.2795 -0.0413 -1.9101
11945TIP3   OH235779   0.939   5.758   6.458  0.4875  0.2074  0.5592
11945TIP3    H135780   0.963   5.671   6.425  0.1493  0.4846 -0.4533
11945TIP3    H235781   0.972   5.760   6.547  2.2179 -0.2583 -0.0496
11946TIP3   OH235782   2.654   4.574   5.567  0.2695 -0.4858  0.0313
11946TIP3    H135783   2.653   4.582   5.663  2.1621  1.0939 -0.0554
11946TIP3    H235784   2.715   4.502   5.551  0.0445 -0.6701 -0.0017
11947TIP3   OH235785   2.650   6.933   2.520  0.5353 -0.2896  0.0010
11947TIP3    H135786   2.641   6.880   2.440  1.4513 -0.4924  0.0305
11947TIP3    H235787   2.703   6.880   2.579 -0.2877 -0.2135  0.8239
11948TIP3   OH235788   4.931   7.112   4.745  0.7134 -0.3521  0.2110
11948TIP3    H135789   4.944   7.160   4.663  0.4763  0.0076  0.3808
11948TIP3    H235790   4.842   7.135   4.772  1.7214  1.7276  1.9760
11949TIP3   OH235791   7.662   3.804   0.600 -0.5992  0.0887  0.5374
11949TIP3    H135792   7.615   3.804   0.683 -0.4862  0.7760  0.6058
11949TIP3    H235793   7.751   3.831   0.623  0.0417 -1.8755  0.5166
11950TIP3   OH235794   5.078   2.405   0.908  0.3393  0.8408  0.2170
11950TIP3    H135795   4.989   2.423   0.938  1.1527 -0.6398  3.7370
11950TIP3    H235796   5.068   2.338   0.841 -1.2534  1.5571 -0.2836
11951TIP3   OH235797   0.910   2.255   1.062 -0.7266 -0.2056  0.5013
11951TIP3    H135798   0.849   2.227   1.130 -1.3629 -0.3643 -0.1259
11951TIP3    H235799   0.995   2.257   1.106 -0.9767 -1.2335  1.0565
11952TIP3   OH235800   0.674   4.503   4.842  0.7351 -0.2470 -0.1166
11952TIP3    H135801   0.730   4.550   4.905 -1.1070  0.4671  1.0258
11952TIP3    H235802   0.602   4.470   4.895 -1.1405  0.8509 -1.9429
11953TIP3   OH235803   2.205   5.569   5.913  0.0795 -0.1400  0.4798
11953TIP3    H135804   2.131   5.572   5.852 -0.5748 -2.0061  1.1625
11953TIP3    H235805   2.166   5.590   5.998  1.0165  2.6225  0.2908
11954TIP3   OH235806   5.471   2.096   0.603  0.1064 -0.2671  0.4691
11954TIP3    H135807   5.541   2.046   0.560  0.0717  0.8263 -0.9149
11954TIP3    H235808   5.510   2.181   0.622 -0.8046  0.3228 -0.2409
11955TIP3   OH235809   6.926   2.062   2.098 -0.1407  0.1239 -0.6245
11955TIP3    H135810   6.910   2.020   2.183 -1.0677 -0.1024 -0.8997
11955TIP3    H235811   6.988   2.132   2.118 -0.2133 -0.0373  0.2144
11956TIP3   OH235812   7.432   3.411   0.471  0.3152  0.7638  0.3278
11956TIP3    H135813   7.419   3.339   0.410  1.9520 -0.3058  1.1857
11956TIP3    H235814   7.437   3.369   0.557  0.5481  1.9734  0.9176
11957TIP3   OH235815   7.339   3.239   0.231 -0.3293  0.1938 -0.2649
11957TIP3    H135816   7.253   3.241   0.273  0.5363  1.3553  1.5396
11957TIP3    H235817   7.331   3.298   0.156 -1.6555 -1.2402 -1.2689
11958TIP3   OH235818   3.012   5.832   6.089 -0.6013 -0.6191 -0.2569
11958TIP3    H135819   2.923   5.866   6.077 -0.8280 -0.6851  1.1647
11958TIP3    H235820   3.032   5.788   6.007 -1.7405 -0.2769 -0.7315
11959TIP3   OH235821   0.955   4.961   6.521 -0.5508  0.3353  0.8325
11959TIP3    H135822   0.899   4.910   6.462 -1.6472 -0.2058  2.3005
11959TIP3    H235823   0.926   5.051   6.509 -0.0349  0.3594 -0.2429
11960TIP3   OH235824   4.763   0.149   5.615  0.1058 -0.4183  0.2552
11960TIP3    H135825   4.709   0.220   5.650  1.5871  0.5699  0.5937
11960TIP3    H235826   4.756   0.079   5.680  2.2856  1.1442  2.2410
11961TIP3   OH235827   4.487   1.210   0.665 -0.4032 -0.3798  0.3977
11961TIP3    H135828   4.484   1.186   0.572 -1.4861  0.4023  0.2272
11961TIP3    H235829   4.538   1.140   0.706  1.1831 -0.0690 -0.9928
11962TIP3   OH235830   4.070   0.584   0.742  0.3836  0.7768 -1.1847
11962TIP3    H135831   4.015   0.594   0.664 -1.6182 -0.8956 -0.0492
11962TIP3    H235832   4.133   0.517   0.718  0.4857  1.0695 -1.7435
11963TIP3   OH235833   8.438   3.827   2.568 -0.0580 -0.0352  1.1085
11963TIP3    H135834   8.513   3.836   2.510 -0.4949 -0.7838  0.4268
11963TIP3    H235835   8.462   3.757   2.629 -0.1280 -0.1494  1.0052
11964TIP3   OH235836   5.204   0.504   1.580  0.0060 -0.2734  0.6731
11964TIP3    H135837   5.208   0.558   1.658  0.9272 -0.1554  0.5473
11964TIP3    H235838   5.285   0.523   1.533 -0.7024 -0.0687 -0.4924
11965TIP3   OH235839   3.629   0.859   2.065 -0.2158  0.5087  0.6778
11965TIP3    H135840   3.699   0.837   2.127  0.7855 -1.7966 -1.1908
11965TIP3    H235841   3.676   0.884   1.985 -1.5218  0.3213 -0.1544
11966TIP3   OH235842   1.032   7.136   6.837 -0.8016  0.3850  0.2266
11966TIP3    H135843   1.123   7.166   6.831 -0.9489  1.0882  1.2958
11966TIP3    H235844   1.019   7.084   6.758  0.7500 -0.2955  0.3904
11967TIP3   OH235845   2.097   7.069   5.894 -0.3153 -0.1568  0.1037
11967TIP3    H135846   2.169   7.041   5.838 -0.7391  0.2931 -0.6773
11967TIP3    H235847   2.018   7.037   5.850 -0.6756  0.5157  0.2438
11968TIP3   OH235848   1.323   7.272   6.557 -0.0641 -0.0832 -0.1014
11968TIP3    H135849   1.367   7.233   6.482 -1.5468  1.8307 -2.0298
11968TIP3    H235850   1.230   7.252   6.543 -0.4545  1.0710  0.7532
11969TIP3   OH235851   0.229   4.359   6.320  0.4631 -0.4629  0.0051
11969TIP3    H135852   0.211   4.437   6.372 -0.9019 -0.2183 -0.8123
11969TIP3    H235853   0.249   4.291   6.385  0.6474  0.3018  0.7550
11970TIP3   OH235854   3.944   5.285   6.210  0.0837  0.4290  0.4070
11970TIP3    H135855   3.903   5.313   6.291 -0.6411  0.5827 -0.0173
11970TIP3    H235856   3.917   5.349   6.144  0.9907  0.5333  0.1237
11971TIP3   OH235857   6.650   5.446   0.161  0.0709  0.4217 -0.4010
11971TIP3    H135858   6.717   5.496   0.114  1.0397 -0.7644 -0.2933
11971TIP3    H235859   6.634   5.497   0.240  0.1802  1.1838 -0.8636
11972TIP3   OH235860   8.232   4.163   4.662  0.3577  0.8294  0.7638
11972TIP3    H135861   8.171   4.116   4.720 -2.7050  0.8690 -2.2307
11972TIP3    H235862   8.268   4.094   4.606  1.7840  1.0594  1.3797
11973TIP3   OH235863   6.968   1.524   0.422 -0.3346 -0.0630 -0.0879
11973TIP3    H135864   6.924   1.608   0.419 -1.4625 -0.6450 -0.0525
11973TIP3    H235865   6.911   1.465   0.372  1.3989 -0.3726 -1.7742
11974TIP3   OH235866   6.292   1.884   2.280 -0.5162 -0.3722  0.2812
11974TIP3    H135867   6.347   1.956   2.313 -0.3930 -0.6412  0.6624
11974TIP3    H235868   6.336   1.856   2.200  0.1090 -0.8293  0.7783
11975TIP3   OH235869   0.998   4.233   5.378 -0.0911  0.1422  0.7291
11975TIP3    H135870   1.081   4.261   5.417  0.2291 -0.3808  0.4285
11975TIP3    H235871   0.974   4.155   5.429  0.6972 -0.9738 -0.5876
11976TIP3   OH235872   1.145   6.894   5.642 -0.8994  0.0619  0.1840
11976TIP3    H135873   1.202   6.848   5.581 -0.1913  0.6382  0.4074
11976TIP3    H235874   1.088   6.947   5.586  0.1425  1.0435  0.0302
11977TIP3   OH235875   1.970   7.490   5.202 -0.9853  0.5149 -0.1512
11977TIP3    H135876   2.032   7.496   5.130 -1.7478  1.1641 -0.7554
11977TIP3    H235877   2.022   7.509   5.280  0.1833 -1.6985 -0.3405
11978TIP3   OH235878   2.720   7.977   0.981  0.2893 -0.2858 -0.2612
11978TIP3    H135879   2.799   8.030   0.993  0.0091  0.0888 -0.0662
11978TIP3    H235880   2.699   7.947   1.070  0.1670 -0.3253 -0.3046
11979TIP3   OH235881   1.367   5.941   6.114  0.0730  0.1687 -0.5776
11979TIP3    H135882   1.435   5.975   6.056 -1.0620  0.7324 -1.5820
11979TIP3    H235883   1.324   6.019   6.149  1.0077 -0.1553  1.3391
11980TIP3   OH235884   1.983   5.609   6.564  1.0172 -0.1485  0.1846
11980TIP3    H135885   1.991   5.542   6.632 -0.9659 -0.5763  0.0285
11980TIP3    H235886   1.898   5.591   6.523  1.6070  0.9078 -1.5401
11981TIP3   OH235887   0.397   5.041   5.360 -0.0446  0.0050  0.4337
11981TIP3    H135888   0.480   4.994   5.366 -0.4673 -0.6817  0.8910
11981TIP3    H235889   0.347   4.994   5.292  1.0625  2.1524 -1.9571
11982TIP3   OH235890   6.402   0.348   1.115 -0.2260  0.1882 -0.4236
11982TIP3    H135891   6.449   0.346   1.031 -0.6085 -0.3445 -0.6274
11982TIP3    H235892   6.326   0.292   1.101  0.1656 -0.6151  0.5535
11983TIP3   OH235893   8.483   4.756   4.215 -0.7688 -0.0615 -0.2432
11983TIP3    H135894   8.396   4.776   4.180 -0.7103  0.5559 -0.0363
11983TIP3    H235895   8.544   4.784   4.146 -0.7686 -1.3093 -0.7591
11984TIP3   OH235896   7.388   2.947   2.462 -0.2285  0.8010 -0.1508
11984TIP3    H135897   7.380   2.911   2.373 -1.5734 -0.2676  0.3902
11984TIP3    H235898   7.381   3.042   2.449 -2.4555  0.5583 -1.0054
11985TIP3   OH235899   1.204   6.312   6.746  0.4500  0.7956 -0.4584
11985TIP3    H135900   1.210   6.248   6.818  0.8163  0.3942 -0.8408
11985TIP3    H235901   1.242   6.392   6.783 -1.9756  1.4484  0.7338
11986TIP3   OH235902   2.948   6.608   5.671  0.1434  0.4571  0.2666
11986TIP3    H135903   2.915   6.598   5.581 -0.1302 -1.3225  0.5459
11986TIP3    H235904   2.870   6.598   5.726  0.4708  0.5243  0.7432
11987TIP3   OH235905   3.850   5.770   0.576  0.6425  0.0527  0.2726
11987TIP3    H135906   3.931   5.757   0.627  1.6453 -0.8664 -1.4922
11987TIP3    H235907   3.803   5.687   0.585  0.2694  0.3092  0.6671
11988TIP3   OH235908   3.496   6.291   6.754 -0.4257 -0.2698  0.2305
11988TIP3    H135909   3.408   6.280   6.720  0.1585 -1.2263 -1.0343
11988TIP3    H235910   3.515   6.384   6.743 -1.7678  0.1970  1.7836
11989TIP3   OH235911   4.870   6.084   6.514  0.3949 -0.3727  0.4738
11989TIP3    H135912   4.949   6.045   6.475 -0.7068 -0.8131 -1.3942
11989TIP3    H235913   4.815   6.009   6.537  0.0896 -0.0380  0.8374
11990TIP3   OH235914   7.822   0.629   0.603  0.6127  0.1219 -0.2999
11990TIP3    H135915   7.784   0.666   0.683  1.1265 -0.5668  0.2765
11990TIP3    H235916   7.788   0.683   0.532 -1.0470 -0.1788  0.2451
11991TIP3   OH235917   8.079   4.747   5.335  0.2099  0.3550  0.5371
11991TIP3    H135918   8.055   4.727   5.244  0.5787  0.7619  0.3476
11991TIP3    H235919   8.090   4.662   5.376  0.2537  0.1655  0.1418
11992TIP3   OH235920   6.806   2.067   2.552  0.1841 -0.7439 -0.2797
11992TIP3    H135921   6.819   2.129   2.624  1.6588 -1.3080 -0.0394
11992TIP3    H235922   6.760   2.117   2.485 -0.3418  0.0618  0.6687
11993TIP3   OH235923   1.152   6.558   5.144 -0.5537 -0.3722 -0.6172
11993TIP3    H135924   1.096   6.519   5.077 -2.5145 -0.8039  1.2074
11993TIP3    H235925   1.149   6.497   5.217 -1.5396  1.8780  1.2945
11994TIP3   OH235926   0.758   0.593   0.575  0.3352  0.9795 -0.3617
11994TIP3    H135927   0.825   0.525   0.585 -1.6643 -1.0934 -0.5571
11994TIP3    H235928   0.776   0.656   0.644  0.2481 -1.4967  1.9983
11995TIP3   OH235929   6.827   2.167   0.626  0.0970  0.4968 -0.1205
11995TIP3    H135930   6.843   2.187   0.534 -1.4968  0.5075 -0.4016
11995TIP3    H235931   6.914   2.166   0.665  0.7075  1.6283 -1.3951
11996TIP3   OH235932   2.394   5.570   6.671 -0.3659 -0.1417  0.1071
11996TIP3    H135933   2.424   5.505   6.607 -1.4797 -2.1705  1.6337
11996TIP3    H235934   2.329   5.622   6.623 -0.8861 -1.3855 -0.5680
11997TIP3   OH235935   7.518   4.846   1.393 -0.1365  0.4670 -0.0255
11997TIP3    H135936   7.434   4.882   1.423 -0.2886 -0.3188  0.5008
11997TIP3    H235937   7.566   4.827   1.473 -0.6864 -1.9892 -0.2260
11998TIP3   OH235938   4.622   0.163   0.588 -0.0795  0.3452  0.2365
11998TIP3    H135939   4.578   0.238   0.626 -1.4950 -1.0165  1.3670
11998TIP3    H235940   4.683   0.134   0.656 -0.9583 -0.7007  0.6024
11999TIP3   OH235941   0.568   4.746   6.485  0.0074 -0.2977 -0.0773
11999TIP3    H135942   0.540   4.789   6.404  0.8490  2.8620  1.2175
11999TIP3    H235943   0.663   4.739   6.477  0.1062  0.1204  0.6309
12000TIP3   OH235944   0.208   4.647   6.139 -0.3142  0.3551  0.1528
12000TIP3    H135945   0.291   4.606   6.117 -0.0385  0.4789  0.9274
12000TIP3    H235946   0.151   4.575   6.165  0.2678  0.4607  1.8213
12001TIP3   OH235947   7.068   1.908   0.754 -0.0679 -0.0318  0.2936
12001TIP3    H135948   7.134   1.869   0.811 -1.4977  0.6197  2.4595
12001TIP3    H235949   7.088   2.001   0.754  0.4982 -0.1309 -1.0932
12002TIP3   OH235950   6.751   1.977   1.586 -0.7066 -0.0819  0.4003
12002TIP3    H135951   6.812   1.919   1.630 -1.2495 -0.3635  0.7923
12002TIP3    H235952   6.677   1.921   1.562  0.2617 -0.2909 -2.3231
12003TIP3   OH235953   4.475   3.202   0.776  0.2890 -0.0968 -0.1717
12003TIP3    H135954   4.436   3.285   0.747 -3.1211 -1.1342  1.1733
12003TIP3    H235955   4.539   3.227   0.842 -1.9787  1.4013  1.5278
12004TIP3   OH235956   7.286   0.782   0.790  0.0964  0.1332 -0.0493
12004TIP3    H135957   7.217   0.736   0.742  0.9732  0.4456 -1.6236
12004TIP3    H235958   7.367   0.759   0.744  0.9334  0.5807  1.1734
12005TIP3   OH235959   4.191   0.173   6.280  0.2202 -0.2098 -0.2841
12005TIP3    H135960   4.096   0.170   6.279  0.1746  0.9179 -0.6206
12005TIP3    H235961   4.217   0.104   6.341 -0.8148 -0.4052 -0.0538
12006TIP3   OH235962   6.596   4.923   1.885  0.1406 -0.1583  0.3034
12006TIP3    H135963   6.590   5.006   1.933  2.2920 -0.8754  1.8864
12006TIP3    H235964   6.671   4.878   1.923  0.4493 -1.8345 -2.1299
12007TIP3   OH235965   1.272   7.405   5.732 -0.4850  0.6382 -0.2242
12007TIP3    H135966   1.310   7.461   5.801  0.9200  0.0830 -0.5207
12007TIP3    H235967   1.237   7.467   5.668 -0.1223  1.1827  0.0935
12008TIP3   OH235968   1.244   4.899   6.524  0.2529 -0.0697  0.7206
12008TIP3    H135969   1.282   4.939   6.446  0.5308 -1.0351  0.3552
12008TIP3    H235970   1.150   4.913   6.514 -0.0362 -3.0059 -1.4433
12009TIP3   OH235971   2.638   5.482   4.487 -0.4045  0.3906 -0.4548
12009TIP3    H135972   2.579   5.539   4.537 -1.7948 -0.0400 -1.5666
12009TIP3    H235973   2.719   5.533   4.480 -1.0436  1.5102  0.0491
12010TIP3   OH235974   7.499   2.917   2.970  0.1905 -0.3460 -0.8978
12010TIP3    H135975   7.593   2.931   2.957  0.5615 -1.8878  0.0200
12010TIP3    H235976   7.486   2.824   2.951 -0.8120 -0.5915  0.8900
12011TIP3   OH235977   0.933   6.593   6.529  1.0026 -0.1507 -0.6784
12011TIP3    H135978   0.983   6.633   6.601  1.1356 -0.5359 -0.5551
12011TIP3    H235979   0.926   6.501   6.554 -0.7213  0.1101 -0.1474
12012TIP3   OH235980   0.713   5.118   5.628 -0.4760 -0.1414  0.4919
12012TIP3    H135981   0.770   5.165   5.567  0.7797  1.0722  2.5057
12012TIP3    H235982   0.758   5.035   5.642  0.2782  0.3778  1.2458
12013TIP3   OH235983   8.426   3.923   0.492 -0.3005  0.4370  0.1058
12013TIP3    H135984   8.407   3.994   0.552  0.3969 -0.0583  0.9163
12013TIP3    H235985   8.521   3.910   0.498 -0.2993  0.0068 -0.6719
12014TIP3   OH235986   2.837   6.065   6.723  0.2430 -0.0738 -0.1570
12014TIP3    H135987   2.791   5.989   6.758 -1.2486  1.1240  0.6111
12014TIP3    H235988   2.832   6.056   6.628  0.1488 -0.9649 -0.0669
12015TIP3   OH235989   1.674   6.859   5.240  0.2560  0.2869  0.6466
12015TIP3    H135990   1.693   6.795   5.309 -0.6308  0.3970  1.0027
12015TIP3    H235991   1.587   6.836   5.210  0.3636  0.6775  0.0383
12016TIP3   OH235992   0.762   6.289   4.614  0.1518 -0.4131  0.3937
12016TIP3    H135993   0.798   6.302   4.702  0.1391  0.3914  0.2881
12016TIP3    H235994   0.761   6.195   4.601 -1.1365 -0.6004  1.7909
12017TIP3   OH235995   1.622   7.721   6.032 -0.6619 -0.2230 -0.4327
12017TIP3    H135996   1.612   7.695   6.123  0.2396 -0.6675 -0.4602
12017TIP3    H235997   1.715   7.713   6.014 -0.7277  0.5736 -1.1824
12018TIP3   OH235998   2.218   6.926   6.877  0.0543 -0.4428 -0.2033
12018TIP3    H135999   2.267   6.962   6.951  1.6633 -0.0431 -1.4701
12018TIP3    H236000   2.127   6.950   6.896  0.6807  1.3084  0.6933
12019TIP3   OH236001   3.701   0.221   6.782  0.4475 -0.0619  0.2808
12019TIP3    H136002   3.742   0.257   6.703  1.3695  1.0633  1.2455
12019TIP3    H236003   3.774   0.187   6.833  0.0192  0.5946  1.3388
12020TIP3   OH236004   2.388   7.451   4.302 -0.2754  0.1971  0.7132
12020TIP3    H136005   2.453   7.405   4.248 -0.4820 -1.0292  1.4762
12020TIP3    H236006   2.306   7.404   4.285 -0.7738  1.1714  0.4389
12021TIP3   OH236007   3.924   6.209   3.736  0.0659  0.4286 -0.7582
12021TIP3    H136008   3.846   6.194   3.683  0.5670 -0.8761 -1.1308
12021TIP3    H236009   3.960   6.122   3.751 -0.7103  0.6116  2.7040
12022TIP3   OH236010   1.648   7.136   6.877 -0.0091 -0.5575 -0.7154
12022TIP3    H136011   1.562   7.178   6.882  0.4589  0.5317 -1.5460
12022TIP3    H236012   1.710   7.206   6.900  0.8446 -0.5355 -2.9505
12023TIP3   OH236013   1.398   5.289   3.988  0.5117 -0.1586  0.5562
12023TIP3    H136014   1.373   5.216   4.045 -1.2135  0.1131  0.1877
12023TIP3    H236015   1.384   5.367   4.042 -0.1971  0.0381  0.1026
12024TIP3   OH236016   1.987   6.750   6.155 -0.1436 -0.2979 -0.6579
12024TIP3    H136017   1.898   6.774   6.182 -0.3745 -2.4956  0.6226
12024TIP3    H236018   1.978   6.664   6.115  1.5466 -1.0036  0.4378
12025TIP3   OH236019   7.045   0.892   0.648  0.4365 -0.0537 -0.1888
12025TIP3    H136020   6.998   0.950   0.587 -0.7759  0.4997  1.2478
12025TIP3    H236021   6.999   0.808   0.640 -1.1467  0.6192  1.5760
12026TIP3   OH236022   2.767   8.014   0.178  0.0908 -0.7625 -0.2337
12026TIP3    H136023   2.724   7.930   0.157 -1.0607 -0.3264  0.3119
12026TIP3    H236024   2.766   8.062   0.096 -0.3111 -0.8343 -0.2741
12027TIP3   OH236025   6.701   3.384   0.818 -1.2041  0.0568  0.1003
12027TIP3    H136026   6.711   3.299   0.775 -0.8982  1.2733 -2.3114
12027TIP3    H236027   6.606   3.396   0.826 -1.3286  0.5875 -1.8787
12028TIP3   OH236028   1.269   3.916   1.303  0.1750 -0.3897 -0.9656
12028TIP3    H136029   1.186   3.938   1.343  0.3301  0.5391 -1.1274
12028TIP3    H236030   1.315   4.000   1.295  0.7037 -0.7441 -1.8111
12029TIP3   OH236031   1.236   4.659   5.430  0.1027  0.3664 -0.4470
12029TIP3    H136032   1.155   4.709   5.441  0.0824  0.4622 -1.0030
12029TIP3    H236033   1.297   4.721   5.391  0.6774  0.5064  0.6580
12030TIP3   OH236034   8.146   2.461   0.084  0.3685  0.3912 -0.0241
12030TIP3    H136035   8.191   2.389   0.127 -2.5343 -1.0845  0.6957
12030TIP3    H236036   8.124   2.427  -0.003 -0.8070  0.4442  0.2376
12031TIP3   OH236037   0.951   6.487   4.955  0.3337 -0.6354  0.1674
12031TIP3    H136038   1.017   6.441   4.904  0.3219 -0.9839  0.4667
12031TIP3    H236039   0.881   6.423   4.967 -0.4143 -0.0141 -0.8387
12032TIP3   OH236040   1.942   4.319   5.367 -0.0750 -0.2709 -0.2078
12032TIP3    H136041   1.894   4.245   5.329  0.7289 -0.8098 -0.1792
12032TIP3    H236042   1.887   4.348   5.440 -0.6592 -0.4876 -0.5610
12033TIP3   OH236043   1.056   2.755   1.141 -0.1939 -0.3846  0.4397
12033TIP3    H136044   1.108   2.825   1.181 -0.2878  0.7632 -1.3560
12033TIP3    H236045   1.087   2.751   1.051 -0.4368 -2.4517  0.4320
12034TIP3   OH236046   2.917   5.009   5.022 -0.0972  0.4020  0.7775
12034TIP3    H136047   2.879   4.944   4.963  2.1196  0.9818 -1.3940
12034TIP3    H236048   2.939   4.961   5.102  1.7709 -1.6068 -0.8933
12035TIP3   OH236049   4.616   2.634   0.692  0.1389  0.1938 -0.2926
12035TIP3    H136050   4.540   2.662   0.640 -0.0351  0.1533 -0.0628
12035TIP3    H236051   4.643   2.552   0.652  0.4409  0.5129 -0.7598
12036TIP3   OH236052   1.601   6.280   6.719 -0.2882 -0.3892 -0.2493
12036TIP3    H136053   1.635   6.367   6.701 -0.5508 -0.3746 -0.6913
12036TIP3    H236054   1.555   6.288   6.803  0.0908 -0.2170 -0.0596
12037TIP3   OH236055   0.422   1.769   0.871  0.4505  0.8572  0.1306
12037TIP3    H136056   0.499   1.795   0.821 -1.7235 -2.0666 -5.2048
12037TIP3    H236057   0.348   1.798   0.819 -1.9935 -3.2874  1.0640
12038TIP3   OH236058   2.380   6.377   6.786 -0.0581  0.5685 -0.4940
12038TIP3    H136059   2.454   6.320   6.768  0.0460  0.5803 -0.1143
12038TIP3    H236060   2.303   6.321   6.774  0.1078 -0.5203  2.7599
12039TIP3   OH236061   7.992   2.971   0.180 -0.3361 -0.0030 -0.0812
12039TIP3    H136062   7.920   2.997   0.238 -0.0480  0.4281  0.0800
12039TIP3    H236063   8.050   2.920   0.236  0.2094  0.8584  0.1355
12040TIP3   OH236064   8.481   4.144   0.714  0.3919  0.1511  0.2228
12040TIP3    H136065   8.495   4.082   0.785  1.6504  0.6156  0.3825
12040TIP3    H236066   8.426   4.212   0.753  0.4326  0.0076  0.5359
12041TIP3   OH236067   1.449   6.876   6.361  0.0351 -0.3673 -0.5598
12041TIP3    H136068   1.405   6.956   6.334  0.2762  0.5245  1.5792
12041TIP3    H236069   1.421   6.810   6.297 -0.9980  1.1715 -1.7167
12042TIP3   OH236070   2.535   7.034   6.294  0.3761 -0.1395  0.2113
12042TIP3    H136071   2.605   6.976   6.325  0.4423 -0.1530  0.0386
12042TIP3    H236072   2.473   7.038   6.366 -0.4142 -1.6757 -0.3605
12043TIP3   OH236073   4.515   0.521   6.039  0.0749  0.2830 -0.3622
12043TIP3    H136074   4.453   0.452   6.063  0.6859 -0.2490 -0.2865
12043TIP3    H236075   4.571   0.530   6.116  1.8304 -1.1956 -1.4197
12044TIP3   OH236076   2.707   4.617   5.831 -0.1444 -0.7082 -0.4978
12044TIP3    H136077   2.674   4.527   5.840  2.0203 -1.4585  0.2249
12044TIP3    H236078   2.683   4.660   5.913 -2.8125 -0.0469 -1.5766
12045TIP3   OH236079   3.139   7.472   6.802 -0.0391  0.3563  0.5267
12045TIP3    H136080   3.131   7.437   6.713  1.0560  0.3514  0.4271
12045TIP3    H236081   3.058   7.522   6.815  0.5415  1.7438 -1.0887
12046TIP3   OH236082   7.748   0.994   4.235  0.7017 -0.4939  0.3250
12046TIP3    H136083   7.720   0.911   4.197  3.0959 -1.1788  0.0065
12046TIP3    H236084   7.778   0.971   4.323  4.6327 -0.5969 -0.9606
12047TIP3   OH236085   3.912   7.999   6.217  0.1973  0.2366  0.2122
12047TIP3    H136086   3.948   7.970   6.134  1.2214  0.7718  0.4585
12047TIP3    H236087   3.984   7.988   6.280  0.4329  2.6847  0.4283
12048TIP3   OH236088   4.230   5.706   6.358  0.3226 -0.9768 -0.2521
12048TIP3    H136089   4.265   5.795   6.367 -0.2066 -0.7965  0.0635
12048TIP3    H236090   4.243   5.684   6.266 -0.9083 -0.0022 -0.6667
12049TIP3   OH236091   4.401   5.597   6.052  0.8442  0.2625  0.3235
12049TIP3    H136092   4.326   5.617   5.997  1.2773  1.9432  0.3248
12049TIP3    H236093   4.378   5.514   6.094 -1.1033  0.8346  0.4594
12050TIP3   OH236094   4.761   5.252   5.602 -0.3209  0.1340 -0.1627
12050TIP3    H136095   4.772   5.342   5.633  1.4732  0.0650 -0.5442
12050TIP3    H236096   4.672   5.228   5.628 -0.8323  2.0440 -0.1271
12051TIP3   OH236097   3.450   6.469   4.992  0.0332  0.0032 -0.3748
12051TIP3    H136098   3.532   6.502   5.028  0.6262 -2.4894  0.7056
12051TIP3    H236099   3.411   6.544   4.948  2.1584  1.6218  0.3998
12052TIP3   OH236100   8.225   1.614   0.371  0.4201  0.2539 -0.5455
12052TIP3    H136101   8.130   1.626   0.373  0.4674  0.5461  0.3056
12052TIP3    H236102   8.260   1.701   0.392  0.8405 -0.3576  1.3476
12053TIP3   OH236103   2.256   7.331   6.721 -0.0799  0.1076 -0.0980
12053TIP3    H136104   2.312   7.341   6.644 -0.5029  0.2478 -0.3863
12053TIP3    H236105   2.307   7.275   6.781 -0.2514 -1.0121 -0.9764
12054TIP3   OH236106   3.986   5.629   6.494  0.0523  0.2669  0.4469
12054TIP3    H136107   3.954   5.549   6.452  0.5835  1.3180 -2.0853
12054TIP3    H236108   4.075   5.639   6.461 -0.1372  2.0851  0.4240
12055TIP3   OH236109   1.165   6.943   5.925 -0.2043  0.5076  0.5884
12055TIP3    H136110   1.123   6.877   5.981  1.9472 -2.0358 -0.6627
12055TIP3    H236111   1.134   6.922   5.837 -0.9045  2.3638  0.3650
12056TIP3   OH236112   2.234   5.997   3.940  0.2320  0.1667 -0.3351
12056TIP3    H136113   2.174   6.071   3.950 -1.3294 -0.9137 -1.3778
12056TIP3    H236114   2.286   6.020   3.863  0.4605  0.6449 -0.0433
12057TIP3   OH236115   1.654   7.084   4.359 -0.3342 -0.6108  0.2703
12057TIP3    H136116   1.573   7.056   4.317  0.1892 -0.9870 -0.4941
12057TIP3    H236117   1.706   7.004   4.367  0.4817 -0.1543 -0.4053
12058TIP3   OH236118   2.554   7.985   6.282 -0.2399  0.1642 -0.0254
12058TIP3    H136119   2.631   8.041   6.290 -0.1971  0.3381 -1.5868
12058TIP3    H236120   2.553   7.934   6.364  0.9870  0.8284  0.4149
12059TIP3   OH236121   3.154   6.425   5.800  0.4155  0.2225 -0.3578
12059TIP3    H136122   3.103   6.486   5.748  0.1962 -0.3241 -0.7948
12059TIP3    H236123   3.090   6.381   5.857  0.4616 -0.1285 -0.5735
12060TIP3   OH236124   7.728   0.888   0.419  0.2709 -0.0969  0.3264
12060TIP3    H136125   7.754   0.981   0.415  1.4029 -0.4469 -0.7177
12060TIP3    H236126   7.637   0.887   0.389  1.0506  0.3774 -2.1552
12061TIP3   OH236127   0.064   5.905   4.674  0.5854  0.1090 -0.2121
12061TIP3    H136128   0.130   5.885   4.607  0.3855 -0.9615 -0.1026
12061TIP3    H236129   0.115   5.917   4.755  0.6377 -1.0372 -0.0609
12062TIP3   OH236130   8.061   2.744   1.784 -0.0299 -0.0086 -0.2132
12062TIP3    H136131   8.040   2.747   1.877  0.4658 -0.5254 -0.0770
12062TIP3    H236132   8.007   2.673   1.750  0.5634 -0.5186 -0.1061
12063TIP3   OH236133   2.324   7.829   5.699 -0.0694  0.0902 -0.2326
12063TIP3    H136134   2.374   7.748   5.692  1.8304  1.1868  0.4911
12063TIP3    H236135   2.256   7.820   5.631 -1.3766 -3.0842  1.3812
12064TIP3   OH236136   1.720   4.930   5.969 -0.2562 -0.0944  0.4226
12064TIP3    H136137   1.702   4.950   5.877 -1.5556  1.0124  0.8982
12064TIP3    H236138   1.789   4.863   5.966  0.8301  1.0530 -1.3246
12065TIP3   OH236139   1.577   4.104   1.263 -0.9122 -0.0480 -0.4163
12065TIP3    H136140   1.646   4.168   1.282 -0.0845 -1.3071  0.9329
12065TIP3    H236141   1.555   4.121   1.171  2.7643 -1.0183 -1.5847
12066TIP3   OH236142   2.369   6.057   3.236 -0.2138  0.2324 -0.3069
12066TIP3    H136143   2.286   6.095   3.208  0.1118  1.0131 -0.2033
12066TIP3    H236144   2.400   6.009   3.158  0.6603  2.3580 -1.3156
12067TIP3   OH236145   3.231   7.956   5.581  0.2739 -0.5174 -0.7869
12067TIP3    H136146   3.201   7.879   5.532  1.4850 -0.7836 -1.1369
12067TIP3    H236147   3.160   8.019   5.571 -0.7868 -1.6253 -0.4014
12068TIP3   OH236148   1.139   6.332   4.812 -0.1223 -0.3171 -0.0280
12068TIP3    H136149   1.095   6.263   4.763  1.5591 -0.6543 -1.1142
12068TIP3    H236150   1.205   6.365   4.751  1.9641 -0.6948  2.0028
12069TIP3   OH236151   3.257   6.436   6.475  0.6184 -0.2683 -0.0120
12069TIP3    H136152   3.324   6.435   6.407  1.4259  0.5543  0.7425
12069TIP3    H236153   3.190   6.374   6.445  0.0506  1.4548 -2.4316
12070TIP3   OH236154   1.088   3.691   1.387 -0.5765 -0.3110  0.2729
12070TIP3    H136155   1.029   3.648   1.448  0.1001 -0.6219  0.7152
12070TIP3    H236156   1.093   3.782   1.418 -0.0923 -0.5112  0.7910
12071TIP3   OH236157   2.635   7.644   6.852  0.0932  0.0670  0.5693
12071TIP3    H136158   2.658   7.551   6.858 -1.3961 -0.2475  2.0675
12071TIP3    H236159   2.571   7.656   6.923 -2.0236  1.5089 -1.5232
12072TIP3   OH236160   1.951   7.092   6.818 -0.2947 -0.3165  0.0768
12072TIP3    H136161   1.918   7.104   6.906 -0.1523  1.2331 -0.0672
12072TIP3    H236162   1.927   7.003   6.795  0.1556 -0.9200  1.8847
12073TIP3   OH236163   3.914   0.474   5.873  0.7418 -0.5655  0.2979
12073TIP3    H136164   3.996   0.522   5.865 -0.8396  1.7657 -2.8526
12073TIP3    H236165   3.879   0.500   5.959  1.7192  1.0269  0.2296
12074TIP3   OH236166   3.917   4.567   5.043  0.1462  0.3827  0.2989
12074TIP3    H136167   3.911   4.538   4.952  0.7946  1.4547 -0.1051
12074TIP3    H236168   3.828   4.590   5.067  0.0122  0.3415 -0.1598
12075TIP3   OH236169   0.793   5.492   5.269  0.2128 -0.0978  0.3127
12075TIP3    H136170   0.883   5.519   5.250  0.0946  1.3033  1.6971
12075TIP3    H236171   0.772   5.535   5.352 -2.4501  1.3163 -1.0345
12076TIP3   OH236172   2.605   6.480   6.149 -0.4560  0.2765 -0.2968
12076TIP3    H136173   2.556   6.488   6.067 -1.1568 -0.5271  0.0272
12076TIP3    H236174   2.586   6.560   6.197  0.3185  0.9534 -1.1031
12077TIP3   OH236175   3.624   6.551   5.892 -0.3782 -0.0699 -0.2520
12077TIP3    H136176   3.666   6.636   5.884 -0.6891 -0.0449 -1.6494
12077TIP3    H236177   3.563   6.562   5.965 -1.3410  1.3059 -1.2294
12078TIP3   OH236178   2.911   7.814   6.500  0.6962 -0.9608  0.0505
12078TIP3    H136179   2.956   7.748   6.447  0.7208 -1.3209  0.5116
12078TIP3    H236180   2.961   7.894   6.486 -0.4959 -0.5400 -2.0909
12079TIP3   OH236181   8.262   2.811   3.272 -0.0152  0.3928 -0.6195
12079TIP3    H136182   8.239   2.718   3.268  1.6679 -0.0236 -0.9394
12079TIP3    H236183   8.257   2.841   3.181  0.7200  0.2922 -0.6945
12080TIP3   OH236184   1.833   6.935   3.750  0.4215 -0.2460 -0.7004
12080TIP3    H136185   1.813   7.027   3.733  1.0839  0.2385  1.0018
12080TIP3    H236186   1.760   6.886   3.710 -0.0473  1.0289 -1.4099
12081TIP3   OH236187   2.037   7.123   5.014 -0.6076 -0.0089 -0.0322
12081TIP3    H136188   2.126   7.134   4.981 -0.7748  0.5044 -0.3250
12081TIP3    H236189   2.019   7.029   5.003  0.6067 -0.4811  1.9030
12082TIP3   OH236190   4.965   5.428   6.441  0.3460 -0.0035  0.0092
12082TIP3    H136191   4.943   5.336   6.429 -0.3493  0.1899 -0.2616
12082TIP3    H236192   4.942   5.469   6.357  2.9985 -0.0140 -0.7659
12083TIP3   OH236193   1.672   5.844   5.798  0.7689 -0.6278  0.0990
12083TIP3    H136194   1.591   5.797   5.817  2.4777 -3.2197  1.3283
12083TIP3    H236195   1.679   5.844   5.703 -1.3997  0.9884 -0.0979
12084TIP3   OH236196   2.849   7.899   4.685 -0.1121 -0.3645 -0.3463
12084TIP3    H136197   2.808   7.825   4.639 -0.8485 -1.0169  1.2961
12084TIP3    H236198   2.778   7.963   4.694 -0.3399 -0.7737  0.9689
12085TIP3   OH236199   1.258   4.910   5.715  1.0627  0.0755 -0.0118
12085TIP3    H136200   1.227   4.964   5.642  1.5690  1.2491  0.6353
12085TIP3    H236201   1.200   4.833   5.714  0.8053  0.2754 -1.3863
12086TIP3   OH236202   4.476   0.108   2.849 -0.1586 -0.2283  0.1580
12086TIP3    H136203   4.405   0.127   2.787  0.0398 -1.2788 -0.4023
12086TIP3    H236204   4.556   0.133   2.802 -0.1876  1.5868  1.0409
12087TIP3   OH236205   5.250   5.212   5.972  0.5770 -1.0604 -0.0428
12087TIP3    H136206   5.156   5.205   5.955  0.4751 -0.3676  0.2223
12087TIP3    H236207   5.257   5.271   6.046  1.2692 -0.4884 -0.5530
12088TIP3   OH236208   6.871   3.482   0.181  0.2473  0.3629  0.5664
12088TIP3    H136209   6.911   3.562   0.214 -0.9962  0.9588  0.6686
12088TIP3    H236210   6.825   3.508   0.101 -0.0409 -0.2655  0.5177
12089TIP3   OH236211   0.967   5.979   5.092  0.0011  0.2151 -0.3263
12089TIP3    H136212   1.046   5.929   5.071  0.7610  1.5184 -0.6449
12089TIP3    H236213   0.897   5.935   5.045  0.6020 -0.7388 -0.3335
12090TIP3   OH236214   1.089   4.160   6.450  0.8531  0.2394 -0.1230
12090TIP3    H136215   1.120   4.156   6.540  0.9130 -0.3616 -0.1707
12090TIP3    H236216   0.994   4.162   6.457  0.7885 -1.8109 -0.1063
12091TIP3   OH236217   2.296   7.199   4.959  0.5443 -0.1125 -0.4027
12091TIP3    H136218   2.379   7.246   4.968  1.4294 -1.3078 -1.9607
12091TIP3    H236219   2.311   7.115   5.002 -0.1917  0.0606  0.1914
12092TIP3   OH236220   4.013   7.680   6.562 -0.1705  0.0328 -0.0980
12092TIP3    H136221   4.079   7.711   6.624  0.5268  0.5381 -1.0855
12092TIP3    H236222   4.034   7.724   6.480 -1.5071 -0.1003 -0.5279
12093TIP3   OH236223   1.933   6.251   6.326  0.0703  0.0955 -0.2939
12093TIP3    H136224   1.997   6.320   6.305 -0.4181 -0.0555 -2.3020
12093TIP3    H236225   1.861   6.265   6.265 -2.0821  0.5638  2.2817
12094TIP3   OH236226   7.328   2.128   1.437 -0.3269  0.4067  0.2884
12094TIP3    H136227   7.262   2.123   1.507  1.6512  0.4162  2.1944
12094TIP3    H236228   7.309   2.052   1.381 -2.1305  0.5801  0.6422
12095TIP3   OH236229   8.063   0.895   0.423  0.0229 -0.3398  0.1933
12095TIP3    H136230   8.024   0.946   0.352 -0.9072  0.7571  1.4639
12095TIP3    H236231   8.143   0.943   0.446 -0.0368 -0.3097  0.3366
12096TIP3   OH236232   4.488   4.510   6.082  0.2180  0.2126  0.6146
12096TIP3    H136233   4.402   4.553   6.075  0.2480  0.2754  0.6365
12096TIP3    H236234   4.542   4.555   6.017  0.3264  0.3908  0.8286
12097TIP3   OH236235   8.162   3.211   1.347 -0.0540 -0.1045 -0.2600
12097TIP3    H136236   8.094   3.158   1.388  1.4723 -1.1392  0.9794
12097TIP3    H236237   8.155   3.191   1.254 -1.7449  0.1777 -0.2238
12098TIP3   OH236238   2.229   6.825   6.046 -0.2182  0.3802  0.1457
12098TIP3    H136239   2.198   6.914   6.026 -1.3461 -0.0328  0.0427
12098TIP3    H236240   2.152   6.780   6.081  0.7629 -0.0715  1.7620
12099TIP3   OH236241   3.601   6.604   5.526 -0.1479 -0.1889 -0.7117
12099TIP3    H136242   3.629   6.561   5.445 -1.1408  1.7239 -2.1039
12099TIP3    H236243   3.588   6.532   5.587 -1.3322 -1.8509 -2.8477
12100TIP3   OH236244   0.020   2.248   1.643 -0.3946 -0.0998  0.2885
12100TIP3    H136245   0.048   2.299   1.719 -2.2015  1.3614 -0.0096
12100TIP3    H236246   0.033   2.157   1.670 -1.1256  0.3900  2.3887
12101TIP3   OH236247   2.698   6.820   5.861  1.0581 -0.0741 -0.5018
12101TIP3    H136248   2.776   6.858   5.902 -0.5295  2.6791  0.0790
12101TIP3    H236249   2.636   6.808   5.933 -0.0338  0.3254 -1.3601
12102TIP3   OH236250   2.444   5.127   6.277 -0.2746  0.0729  0.1108
12102TIP3    H136251   2.445   5.223   6.279 -0.9245  0.0875 -0.1125
12102TIP3    H236252   2.500   5.100   6.350  1.2041  0.6291 -0.7888
12103TIP3   OH236253   5.624   0.345   5.372 -0.1442  0.4035  0.3171
12103TIP3    H136254   5.687   0.388   5.314 -0.4809  0.5110  0.0324
12103TIP3    H236255   5.543   0.394   5.360 -0.0969  0.7126  1.2131
12104TIP3   OH236256   2.003   6.075   4.405  0.3251  0.0447 -0.1056
12104TIP3    H136257   2.031   6.157   4.366  0.5456  1.0504  2.0792
12104TIP3    H236258   2.066   6.059   4.476 -0.8833 -0.9553  0.7745
12105TIP3   OH236259   1.026   5.174   6.959  0.3364  0.0142 -0.3190
12105TIP3    H136260   1.065   5.257   6.932 -0.2950  0.4424  0.0402
12105TIP3    H236261   1.004   5.129   6.877  1.8825 -0.3871 -0.5180
12106TIP3   OH236262   2.826   5.357   5.317 -0.1328 -0.1171 -0.0886
12106TIP3    H136263   2.883   5.385   5.246  0.1394 -1.9208 -0.6014
12106TIP3    H236264   2.737   5.365   5.281 -0.0067 -0.8005 -0.5642
12107TIP3   OH236265   2.164   3.817   5.779  0.0994 -0.0227  0.3215
12107TIP3    H136266   2.106   3.788   5.849 -0.8988  2.1591  0.4419
12107TIP3    H236267   2.246   3.841   5.823 -0.6172  1.6022  0.8177
12108TIP3   OH236268   6.417   2.540   1.415 -0.5706  0.3774  0.1755
12108TIP3    H136269   6.362   2.479   1.464 -0.4268 -0.4689 -0.6908
12108TIP3    H236270   6.461   2.485   1.350 -1.1288  1.5472 -1.2287
12109TIP3   OH236271   7.808   0.197   5.216  0.2757 -0.3009  0.1576
12109TIP3    H136272   7.800   0.164   5.127 -1.9717  0.4894  0.0522
12109TIP3    H236273   7.892   0.244   5.217  1.2705 -1.9915 -0.9568
12110TIP3   OH236274   5.851   0.051   6.496  0.5489 -0.3441  0.4414
12110TIP3    H136275   5.930   0.095   6.465 -0.2394  0.4961 -0.4281
12110TIP3    H236276   5.815   0.109   6.563 -0.1692  0.0732 -0.2839
12111TIP3   OH236277   1.837   6.976   4.730  0.1838 -0.1743 -0.3145
12111TIP3    H136278   1.926   6.943   4.736  0.6637  0.8084 -1.8304
12111TIP3    H236279   1.792   6.936   4.805  1.9702 -0.3841  0.6848
12112TIP3   OH236280   2.663   5.029   5.386  0.0705 -0.6836 -0.7130
12112TIP3    H136281   2.672   4.934   5.376 -0.4943 -0.6886 -1.1786
12112TIP3    H236282   2.733   5.053   5.446 -0.2402 -1.5009 -0.0116
12113TIP3   OH236283   3.484   5.670   6.471  0.1371 -0.0113  0.6820
12113TIP3    H136284   3.447   5.757   6.459  1.1239  0.3274  0.0252
12113TIP3    H236285   3.530   5.675   6.555  0.7637  0.2984  0.3176
12114TIP3   OH236286   1.292   6.866   6.599 -0.1399  0.0439 -0.2821
12114TIP3    H136287   1.280   6.775   6.623  1.7223 -0.5582 -1.5335
12114TIP3    H236288   1.347   6.864   6.521  1.3332  2.2713  0.6298
12115TIP3   OH236289   2.331   7.499   6.395  0.0326 -0.2753 -0.0094
12115TIP3    H136290   2.357   7.549   6.472 -2.0099 -0.0273  0.5442
12115TIP3    H236291   2.373   7.414   6.407  1.0194  0.2884  0.5758
12116TIP3   OH236292   3.381   5.924   6.432 -0.1235 -0.3768  0.1195
12116TIP3    H136293   3.344   5.934   6.345 -1.8652 -1.3942  0.7377
12116TIP3    H236294   3.316   5.962   6.491  0.8094 -0.1575  1.0327
12117TIP3   OH236295   3.281   6.624   3.746 -0.3268 -0.0886 -0.1792
12117TIP3    H136296   3.186   6.621   3.758 -0.5275 -3.5862 -1.9136
12117TIP3    H236297   3.298   6.562   3.674  3.2364  0.6492 -0.0674
12118TIP3   OH236298   2.656   5.300   6.230  0.2061 -0.4234  0.2890
12118TIP3    H136299   2.685   5.391   6.229  0.2582 -0.4425 -0.8304
12118TIP3    H236300   2.722   5.253   6.281 -0.1342  0.2623  1.3728
12119TIP3   OH236301   0.349   1.801   1.408  0.1980  0.2143  0.4986
12119TIP3    H136302   0.444   1.788   1.413  0.0407 -1.3180 -0.2178
12119TIP3    H236303   0.330   1.867   1.475  2.0359  2.0835 -0.7490
12120TIP3   OH236304   1.149   3.457   6.379  0.3695 -0.2055 -0.2670
12120TIP3    H136305   1.107   3.530   6.425  1.0010  1.9066 -2.8922
12120TIP3    H236306   1.093   3.382   6.398 -1.6043  1.4287  0.6467
12121TIP3   OH236307   3.090   7.512   5.324  0.1651  0.0653  0.1663
12121TIP3    H136308   3.181   7.491   5.345  0.2349  0.0665 -0.1344
12121TIP3    H236309   3.047   7.427   5.315 -0.1537  0.0733  1.5639
12122TIP3   OH236310   4.071   4.597   5.613  0.2715 -0.2989  0.0563
12122TIP3    H136311   4.003   4.546   5.657 -0.1278 -0.3725 -0.6374
12122TIP3    H236312   4.150   4.543   5.620 -0.3244 -1.3623 -1.3386
12123TIP3   OH236313   7.083   1.016   4.795  0.1766 -0.1502 -0.0518
12123TIP3    H136314   7.110   1.104   4.820 -0.4572  0.9946 -3.2476
12123TIP3    H236315   7.160   0.978   4.752 -0.4776 -0.1032 -1.2700
12124TIP3   OH236316   2.296   6.083   4.530 -0.3540 -0.0496  0.2913
12124TIP3    H136317   2.309   6.119   4.442  0.5591 -0.2795  0.3325
12124TIP3    H236318   2.339   5.998   4.528 -2.9968 -1.4379  0.0158
12125TIP3   OH236319   7.185   2.108   0.415  0.1145 -0.7510  0.1552
12125TIP3    H136320   7.228   2.046   0.475 -1.0253  0.0256  1.8351
12125TIP3    H236321   7.257   2.162   0.381  0.6546 -0.3673  1.8454
12126TIP3   OH236322   3.115   4.035   4.090 -0.1982 -0.2530 -0.1523
12126TIP3    H136323   3.085   4.064   4.004 -0.7448 -0.2270  0.0442
12126TIP3    H236324   3.126   4.115   4.141  3.1655 -0.0085 -1.1396
12127TIP3   OH236325   2.733   6.787   3.352 -0.7740  0.1176 -0.2008
12127TIP3    H136326   2.725   6.846   3.428 -2.1102 -0.3533  0.0310
12127TIP3    H236327   2.735   6.699   3.390 -0.4852 -0.0746 -0.6568
12128TIP3   OH236328   8.434   3.610   0.249  0.0302  0.1625  0.1156
12128TIP3    H136329   8.444   3.522   0.286 -0.5940 -0.7161 -1.7242
12128TIP3    H236330   8.452   3.669   0.322  1.3618 -1.4843  1.1617
12129TIP3   OH236331   7.298   3.693   0.261  0.0319 -0.5019  0.3216
12129TIP3    H136332   7.306   3.707   0.355  0.3254 -0.2492  0.2586
12129TIP3    H236333   7.320   3.600   0.249  2.8534  0.1423  0.1621
12130TIP3   OH236334   4.948   7.250   5.192 -0.6105  0.1660  0.5413
12130TIP3    H136335   4.997   7.239   5.274  2.6936 -1.5635 -1.5699
12130TIP3    H236336   4.917   7.162   5.171  0.7355  0.0964 -1.3110
12131TIP3   OH236337   2.909   5.818   6.535 -0.1068  0.0754 -0.1238
12131TIP3    H136338   2.849   5.838   6.463  0.8297  0.4284 -0.8298
12131TIP3    H236339   2.889   5.727   6.558 -0.1747 -0.1631 -1.0869
12132TIP3   OH236340   1.378   7.108   6.017  0.0766  0.2526 -0.0042
12132TIP3    H136341   1.387   7.185   5.960  0.1529 -0.2468 -0.6693
12132TIP3    H236342   1.318   7.051   5.970  0.8685 -0.5746 -0.0238
12133TIP3   OH236343   0.821   3.334   0.667  0.2624  0.3981 -0.1717
12133TIP3    H136344   0.742   3.325   0.613  0.6383  0.0322 -0.6724
12133TIP3    H236345   0.845   3.426   0.661 -2.3765  1.4182  3.2036
12134TIP3   OH236346   5.415   5.434   4.979  0.7445  0.3230  0.0619
12134TIP3    H136347   5.441   5.472   4.895  0.5092 -0.5924 -0.4331
12134TIP3    H236348   5.335   5.384   4.959  1.4105 -0.9631  0.5648
12135TIP3   OH236349   2.425   5.217   6.815 -0.2733 -0.0289  0.4233
12135TIP3    H136350   2.340   5.189   6.849 -0.8135  1.0845 -0.0126
12135TIP3    H236351   2.410   5.304   6.779  1.0345  0.1475  0.2660
12136TIP3   OH236352   1.344   3.162   0.970  0.8163  0.1834 -0.0624
12136TIP3    H136353   1.251   3.155   0.993  0.4320 -0.4473 -1.7153
12136TIP3    H236354   1.386   3.089   1.016  0.6160  0.8445  1.1985
12137TIP3   OH236355   7.280   1.181   6.135 -0.5897  0.4227  0.3145
12137TIP3    H136356   7.232   1.245   6.187 -1.0925  1.0107 -0.8484
12137TIP3    H236357   7.217   1.151   6.069  0.3936  0.6453 -0.7571
12138TIP3   OH236358   3.588   6.193   3.996  0.4337 -0.4787  0.3929
12138TIP3    H136359   3.565   6.279   3.961 -0.5677 -0.7206  0.4461
12138TIP3    H236360   3.654   6.159   3.936  0.0144 -0.1383 -0.2626
12139TIP3   OH236361   2.307   5.899   6.515 -0.1196  0.7313  0.0136
12139TIP3    H136362   2.369   5.950   6.463  0.5669  0.9717  1.0631
12139TIP3    H236363   2.354   5.878   6.595 -1.3540  0.8094  0.7755
12140TIP3   OH236364   4.401   0.601   2.616  0.0885 -0.6987  0.1032
12140TIP3    H136365   4.313   0.573   2.642 -0.7653  2.0138  0.2770
12140TIP3    H236366   4.452   0.520   2.616 -2.4148 -2.3550 -0.1214
12141TIP3   OH236367   5.150   0.075   6.486  0.0159  0.4628 -0.5759
12141TIP3    H136368   5.196  -0.004   6.455  1.4215  1.2541 -0.5669
12141TIP3    H236369   5.103   0.107   6.410 -0.8032 -0.5605 -0.5001
12142TIP3   OH236370   0.536   6.367   4.812 -0.1465  0.1427 -0.4651
12142TIP3    H136371   0.485   6.291   4.783  0.3554 -0.3900  0.0440
12142TIP3    H236372   0.614   6.367   4.757  1.1139 -1.2366  1.2606
12143TIP3   OH236373   1.596   6.935   5.993 -0.3394 -0.5298 -0.0779
12143TIP3    H136374   1.539   7.011   6.009 -0.1173 -0.2470 -0.6003
12143TIP3    H236375   1.535   6.863   5.976 -0.5812 -0.9292  2.3694
12144TIP3   OH236376   3.230   7.555   2.379  0.0105 -0.0714 -0.2859
12144TIP3    H136377   3.166   7.500   2.425  0.5628 -0.7426 -0.3202
12144TIP3    H236378   3.181   7.634   2.356 -0.5087 -0.0911  0.6959
12145TIP3   OH236379   0.947   1.065   0.534 -0.2855 -0.0133  0.2270
12145TIP3    H136380   0.941   1.149   0.488  0.4168 -0.6172 -0.9810
12145TIP3    H236381   0.971   1.002   0.467 -0.1143 -1.0669  1.2582
12146TIP3   OH236382   4.346   0.044   4.790 -0.1514  0.0295 -0.0632
12146TIP3    H136383   4.408   0.117   4.797  0.0040 -0.0214 -0.9183
12146TIP3    H236384   4.399  -0.033   4.812 -0.4510  0.2177  1.4170
12147TIP3   OH236385   2.456   4.913   4.533  0.5442  0.5401  0.0057
12147TIP3    H136386   2.368   4.945   4.550  0.0853  0.1722 -1.5878
12147TIP3    H236387   2.463   4.833   4.585 -0.1169  0.4836  0.0080
12148TIP3   OH236388   3.943   6.481   5.011  0.2055  0.2507 -0.5256
12148TIP3    H136389   3.972   6.489   5.101  1.1307 -0.9834 -0.6935
12148TIP3    H236390   4.011   6.526   4.960  1.1483 -1.4300 -0.8052
12149TIP3   OH236391   4.259   6.038   6.958  0.0511  0.2917 -0.4054
12149TIP3    H136392   4.330   6.019   6.897  0.1638 -0.0536 -0.1681
12149TIP3    H236393   4.226   6.124   6.931  2.1573  1.5876  0.9891
12150TIP3   OH236394   3.693   6.801   6.299  0.5331  0.2625 -0.9529
12150TIP3    H136395   3.622   6.747   6.333  0.0623  0.3804 -1.7488
12150TIP3    H236396   3.725   6.848   6.376  1.4333 -1.6738 -0.1035
12151TIP3   OH236397   3.382   7.595   6.841 -0.0617  0.4338  0.0479
12151TIP3    H136398   3.299   7.557   6.810 -0.7368  2.3700 -0.6022
12151TIP3    H236399   3.371   7.602   6.936 -0.7528  0.9194 -0.0618
12152TIP3   OH236400   1.965   6.471   4.492 -0.1636 -0.3547  0.0487
12152TIP3    H136401   2.036   6.534   4.506 -0.4045 -0.1001  0.1200
12152TIP3    H236402   1.948   6.434   4.579 -0.0154 -0.5276  0.0050
12153TIP3   OH236403   2.774   7.888   5.154 -0.0192 -0.3100 -0.5470
12153TIP3    H136404   2.797   7.953   5.220  0.7466 -0.3540 -0.7646
12153TIP3    H236405   2.856   7.841   5.136 -0.6055 -1.4624 -0.2615
12154TIP3   OH236406   2.294   6.238   5.898 -0.7409  0.1274 -0.4475
12154TIP3    H136407   2.218   6.261   5.844  0.6833 -1.8587 -3.4367
12154TIP3    H236408   2.321   6.151   5.866  2.6375  0.6741  0.6970
12155TIP3   OH236409   3.163   5.590   6.272 -0.7054  0.2806 -0.3076
12155TIP3    H136410   3.131   5.674   6.242 -0.2430  0.3238 -0.6829
12155TIP3    H236411   3.174   5.601   6.367 -0.1869  0.7931 -0.4248
12156TIP3   OH236412   2.850   2.169   1.192 -0.5678 -0.0840 -0.5029
12156TIP3    H136413   2.894   2.252   1.210 -0.1808 -0.1121 -1.3124
12156TIP3    H236414   2.880   2.111   1.262 -0.3675  0.2774 -0.2824
12157TIP3   OH236415   1.704   5.381   5.758  0.1266 -0.2950  0.3019
12157TIP3    H136416   1.713   5.342   5.671 -2.7242  0.9046 -0.5762
12157TIP3    H236417   1.638   5.327   5.802  0.0218  0.3636  0.9692
12158TIP3   OH236418   2.804   7.959   5.776 -0.2686  0.1121 -0.0185
12158TIP3    H136419   2.854   7.936   5.855  0.5503 -0.0221 -0.5694
12158TIP3    H236420   2.735   8.018   5.807 -0.6082 -0.7884  0.9652
12159TIP3   OH236421   1.056   5.606   5.249  0.2088 -0.1184 -0.1278
12159TIP3    H136422   1.005   5.670   5.298  0.3379 -0.6951  0.7719
12159TIP3    H236423   1.105   5.657   5.185 -0.7924  0.5293 -0.3726
12160TIP3   OH236424   1.766   6.162   5.221  0.3948  0.7271 -0.0414
12160TIP3    H136425   1.726   6.246   5.196  0.8672  0.7497 -0.7740
12160TIP3    H236426   1.705   6.096   5.189  0.5531  0.7741 -0.4442
12161TIP3   OH236427   3.083   7.293   4.764  0.1885 -0.0874 -0.0626
12161TIP3    H136428   2.988   7.305   4.768  0.2576 -0.1063  2.0042
12161TIP3    H236429   3.095   7.231   4.692 -1.3033  0.5117 -0.8547
12162TIP3   OH236430   2.134   7.094   5.282 -0.0596 -0.2501 -0.2178
12162TIP3    H136431   2.090   7.179   5.289 -0.2860 -0.3753 -0.1143
12162TIP3    H236432   2.095   7.054   5.204  0.4456 -0.0279 -0.5884
12163TIP3   OH236433   5.447   0.758   3.605 -0.1527  0.2282 -0.2121
12163TIP3    H136434   5.412   0.669   3.611  1.2149 -0.4236 -1.6697
12163TIP3    H236435   5.454   0.787   3.696  0.3685 -1.5445  0.3219
12164TIP3   OH236436   7.338   1.936   0.562  0.0501  0.1591  0.5123
12164TIP3    H136437   7.386   1.916   0.642 -0.1495  0.4609  0.7092
12164TIP3    H236438   7.349   1.858   0.507  1.4699  0.5535  0.2084
12165TIP3   OH236439   5.491   0.406   4.459  0.0493  0.4980 -0.1031
12165TIP3    H136440   5.536   0.400   4.543  0.9450  2.0945 -0.4634
12165TIP3    H236441   5.480   0.499   4.443  0.1303  0.2198 -1.8899
12166TIP3   OH236442   6.929   3.481   0.967 -0.3940  0.3047  0.8515
12166TIP3    H136443   6.865   3.489   0.896  0.1253  2.1482  0.5538
12166TIP3    H236444   7.002   3.434   0.928 -0.8462 -0.2586  0.6778
12167TIP3   OH236445   3.314   4.801   4.856 -0.3536  0.3229 -0.1464
12167TIP3    H136446   3.248   4.807   4.925 -0.4507  1.7710 -0.3342
12167TIP3    H236447   3.375   4.872   4.875  1.6889 -1.5837  0.5532
12168TIP3   OH236448   2.123   6.283   4.250  0.7907  0.0574  0.8660
12168TIP3    H136449   2.154   6.372   4.238 -0.9799  0.5275 -0.3121
12168TIP3    H236450   2.200   6.228   4.236  1.8069  1.3729  1.2746
12169TIP3   OH236451   1.390   7.361   4.845 -1.1834 -0.4194 -0.4628
12169TIP3    H136452   1.331   7.383   4.916 -2.9211 -3.0217 -1.0067
12169TIP3    H236453   1.353   7.281   4.808  1.1090 -0.5182 -2.6568
12170TIP3   OH236454   4.884   0.965   4.929  0.3127  0.3273 -0.0218
12170TIP3    H136455   4.822   0.898   4.957  0.4132  0.5455  0.7188
12170TIP3    H236456   4.970   0.923   4.933  0.3271  0.3561 -0.0132
12171TIP3   OH236457   6.979   3.581   1.236  0.3014  0.0814 -0.2854
12171TIP3    H136458   6.984   3.549   1.146  0.4558  0.3436 -0.3703
12171TIP3    H236459   6.938   3.667   1.229  0.2259  0.0622 -0.0932
12172TIP3   OH236460   1.832   5.806   6.036 -0.0903 -0.2523  0.1333
12172TIP3    H136461   1.783   5.792   5.955  0.6361 -0.5128 -0.2693
12172TIP3    H236462   1.769   5.790   6.105 -1.0437  1.1902 -0.3951
12173TIP3   OH236463   2.525   6.963   6.894 -0.7595 -0.3060  0.1349
12173TIP3    H136464   2.447   6.908   6.899 -0.8021 -0.2088  0.5413
12173TIP3    H236465   2.584   6.927   6.960 -0.8165  0.1819  0.4535
12174TIP3   OH236466   1.196   5.269   3.384 -0.0575 -0.0087 -0.1457
12174TIP3    H136467   1.133   5.272   3.312  0.9693 -0.6194 -1.0903
12174TIP3    H236468   1.207   5.176   3.403 -0.1391  0.1378  0.6353
12175TIP3   OH236469   5.910   1.865   1.873 -0.3976 -0.7493 -0.1325
12175TIP3    H136470   5.831   1.812   1.886 -0.4957 -0.3587  0.8445
12175TIP3    H236471   5.886   1.952   1.903  1.2110 -1.2221  2.6428
12176TIP3   OH236472   4.108   6.182   6.244 -0.1310 -0.0354  0.0387
12176TIP3    H136473   4.020   6.155   6.270 -0.9164  2.5294  0.1495
12176TIP3    H236474   4.128   6.128   6.167 -0.6651 -2.5684  1.6243
12177TIP3   OH236475   7.043   0.168  -0.034  0.5181 -0.3220  0.1787
12177TIP3    H136476   7.077   0.213   0.044  1.6891 -1.0665  0.1175
12177TIP3    H236477   7.010   0.085  -0.001 -2.2420  0.8273  0.3889
12178TIP3   OH236478   1.857   6.569   4.271  0.1133  0.4519  0.0837
12178TIP3    H136479   1.886   6.655   4.301 -2.2878  1.0400  0.8123
12178TIP3    H236480   1.874   6.510   4.344  0.5340  0.5684  0.0782
12179TIP3   OH236481   2.717   7.371   6.292 -0.3906  0.3066 -0.3552
12179TIP3    H136482   2.649   7.340   6.232  0.0247 -0.6248 -0.3559
12179TIP3    H236483   2.744   7.455   6.256 -1.3233  0.5399 -0.5296
12180TIP3   OH236484   0.004   1.285   0.952 -0.1787  0.9374  0.1048
12180TIP3    H136485   0.064   1.343   0.998 -1.9387  1.9412  1.1720
12180TIP3    H236486   0.060   1.218   0.913  1.5773  1.6238  1.4296
12181TIP3   OH236487   1.723   2.328   0.548  0.0453  0.1698  0.2301
12181TIP3    H136488   1.714   2.417   0.583  0.6592  0.1000  0.5619
12181TIP3    H236489   1.817   2.313   0.543 -0.0549 -0.8868  1.2600
12182TIP3   OH236490   2.048   4.331   0.020 -0.1536 -0.0793  0.1065
12182TIP3    H136491   2.071   4.376  -0.062 -2.0784  1.7717  0.5561
12182TIP3    H236492   2.075   4.391   0.089 -2.4551  0.2968  0.7216
12183TIP3   OH236493   2.161   6.637   6.406 -0.5222  0.4264 -0.7648
12183TIP3    H136494   2.170   6.717   6.459 -1.6059  0.7323 -1.0277
12183TIP3    H236495   2.139   6.569   6.470 -0.5958  0.5455 -0.6624
12184TIP3   OH236496   0.968   2.634   1.876  0.2615 -0.4946 -0.2514
12184TIP3    H136497   0.931   2.720   1.897 -2.7658 -1.8078  0.0266
12184TIP3    H236498   0.952   2.624   1.782  0.0498 -1.0251 -0.1593
12185TIP3   OH236499   1.919   5.049   5.213  0.0968 -0.3960  0.0125
12185TIP3    H136500   1.845   4.988   5.208 -0.2880  0.1469 -0.9868
12185TIP3    H236501   1.996   4.995   5.197 -0.1811 -0.7629 -0.0987
12186TIP3   OH236502   8.270   2.619   1.188 -0.1120  0.2299  0.9204
12186TIP3    H136503   8.177   2.599   1.194 -0.0947  0.6283  2.6928
12186TIP3    H236504   8.290   2.668   1.268  1.1894  1.8899 -0.3619
12187TIP3   OH236505   1.028   5.273   5.789 -0.3043  0.2673  0.1465
12187TIP3    H136506   0.971   5.276   5.866 -0.8017  0.4197 -0.2245
12187TIP3    H236507   0.968   5.273   5.714  0.1773  0.2444 -0.2454
12188TIP3   OH236508   1.023   4.019   0.360  0.5165 -0.0915  0.0269
12188TIP3    H136509   0.959   4.083   0.329  0.9959  0.4515  0.1416
12188TIP3    H236510   1.076   4.068   0.423 -0.5758 -1.2278  1.8636
12189TIP3   OH236511   0.577   6.872   4.782 -0.0869  0.2189  0.6762
12189TIP3    H136512   0.501   6.887   4.838 -0.4281 -2.5050  1.0175
12189TIP3    H236513   0.549   6.802   4.723  0.9160  1.7573 -1.6677
12190TIP3   OH236514   2.674   7.647   3.821  0.1269 -0.2683  0.0456
12190TIP3    H136515   2.612   7.693   3.764  0.4369 -1.4006 -1.2320
12190TIP3    H236516   2.618   7.602   3.885 -0.4062 -1.3311 -1.1356
12191TIP3   OH236517   0.803   6.644   6.818 -0.1688  0.7326 -0.2910
12191TIP3    H136518   0.895   6.666   6.806 -0.7034  1.9814 -2.4278
12191TIP3    H236519   0.756   6.704   6.761 -2.2470 -0.5878 -0.0484
12192TIP3   OH236520   1.226   6.633   4.502  0.0293 -0.8186  0.0940
12192TIP3    H136521   1.186   6.666   4.582 -1.4608 -0.1471 -0.9017
12192TIP3    H236522   1.240   6.711   4.448  3.2037 -0.9627  0.6038
12193TIP3   OH236523   7.654   2.613   0.478  0.0875 -0.1112  0.5395
12193TIP3    H136524   7.593   2.550   0.514 -2.2508  1.5870 -0.3277
12193TIP3    H236525   7.599   2.683   0.442  2.5206  1.4907 -0.2531
12194TIP3   OH236526   8.371   1.517   1.507  0.6571  0.2652 -0.1936
12194TIP3    H136527   8.430   1.452   1.545 -0.5273  0.3127  1.7907
12194TIP3    H236528   8.318   1.467   1.444  0.1285 -0.6153  0.9171
12195TIP3   OH236529   2.942   7.403   5.930  0.6822  0.2589  0.2057
12195TIP3    H136530   2.941   7.374   5.839  3.3238  0.9687 -0.0976
12195TIP3    H236531   2.884   7.480   5.932 -0.3940 -0.5257 -0.5760
12196TIP3   OH236532   7.143   3.262   0.407  0.0477 -0.1124 -0.5724
12196TIP3    H136533   7.158   3.239   0.499  0.8729 -0.7579 -0.8647
12196TIP3    H236534   7.063   3.215   0.383 -0.0499 -0.1130 -0.2409
12197TIP3   OH236535   4.281   5.663   3.580  0.3671  0.1345 -0.0230
12197TIP3    H136536   4.272   5.719   3.503 -2.5145 -0.9909 -0.5843
12197TIP3    H236537   4.351   5.602   3.559  1.5502  1.6429 -0.5652
12198TIP3   OH236538   2.194   7.692   5.971 -0.5596  0.5596 -0.0146
12198TIP3    H136539   2.248   7.710   5.895 -1.8417  1.7137 -0.6922
12198TIP3    H236540   2.244   7.727   6.045  2.1152 -3.3303  0.1507
12199TIP3   OH236541   1.375   0.792   0.574 -0.1623  0.4415 -0.2948
12199TIP3    H136542   1.353   0.796   0.481  1.0121 -1.8633 -0.7090
12199TIP3    H236543   1.435   0.718   0.581  0.1992  0.9310  2.2231
12200TIP3   OH236544   3.459   6.609   6.112 -0.0071 -0.3579  0.4286
12200TIP3    H136545   3.515   6.686   6.110 -1.8928  1.0024 -0.9854
12200TIP3    H236546   3.381   6.637   6.160 -0.6171 -1.4291  0.0779
12201TIP3   OH236547   2.217   2.763   0.249  0.2780  0.1759 -0.1801
12201TIP3    H136548   2.208   2.776   0.154 -1.0941  1.4522  0.1053
12201TIP3    H236549   2.291   2.819   0.274  1.0896 -0.6942 -0.5886
12202TIP3   OH236550   3.563   6.958   5.724 -0.0259  0.2804 -0.0942
12202TIP3    H136551   3.566   7.044   5.683  0.4883  0.4121  0.2075
12202TIP3    H236552   3.653   6.941   5.751  0.4807 -1.6802 -2.8249
12203TIP3   OH236553   0.919   2.609   0.059 -0.5052  0.0938 -0.0102
12203TIP3    H136554   0.850   2.589   0.123  1.3372 -0.7443  1.7564
12203TIP3    H236555   0.880   2.675   0.002 -2.8482 -0.5135  0.8283
12204TIP3   OH236556   1.569   6.055   5.964  0.4366 -0.1520 -0.0570
12204TIP3    H136557   1.567   6.105   5.882 -0.1471 -0.6612 -0.3633
12204TIP3    H236558   1.652   6.007   5.961  0.1770 -0.5719 -0.5975
12205TIP3   OH236559   1.186   1.262   1.384 -0.0531  0.0764  0.1912
12205TIP3    H136560   1.161   1.212   1.461 -0.1231 -0.3052 -0.0760
12205TIP3    H236561   1.113   1.249   1.323  0.1754  0.0638 -0.0790
12206TIP3   OH236562   5.288   6.706   0.475  0.4039 -0.3378  0.2160
12206TIP3    H136563   5.340   6.744   0.404 -0.9776  0.0216 -0.6279
12206TIP3    H236564   5.258   6.622   0.441 -2.0041  0.7516 -0.4860
12207TIP3   OH236565   2.148   5.565   4.004  0.0685  0.1941  0.1093
12207TIP3    H136566   2.168   5.472   3.992  1.1318  0.4271  0.0290
12207TIP3    H236567   2.102   5.568   4.088  0.8561 -0.3069  0.5754
12208TIP3   OH236568   4.366   4.766   4.741  0.0473 -0.5832  0.0236
12208TIP3    H136569   4.284   4.723   4.715  0.9806 -2.1901 -0.3736
12208TIP3    H236570   4.408   4.703   4.800 -0.0747  1.2310  2.1051
12209TIP3   OH236571   5.023   6.399   6.833  0.0277 -0.2572  0.4046
12209TIP3    H136572   5.089   6.468   6.833 -0.8853  0.6454 -0.2984
12209TIP3    H236573   4.992   6.396   6.742 -1.4994 -0.0717  0.9102
12210TIP3   OH236574   7.677   2.322   1.742  0.7620 -0.3401 -0.4318
12210TIP3    H136575   7.680   2.350   1.651 -0.0403 -0.5457 -0.5221
12210TIP3    H236576   7.683   2.226   1.738  0.0747 -0.3923 -0.3086
12211TIP3   OH236577   6.924   1.024   0.121  0.3368 -0.2296 -1.0344
12211TIP3    H136578   7.002   1.024   0.065  0.2343  0.8226 -1.1899
12211TIP3    H236579   6.872   1.098   0.090 -0.7934 -1.0008 -1.0106
12212TIP3   OH236580   3.371   6.244   4.385  0.1664 -0.4245  0.5253
12212TIP3    H136581   3.336   6.272   4.300 -1.5279 -0.2831  1.2464
12212TIP3    H236582   3.342   6.153   4.394  0.5865 -0.5315  0.8277
12213TIP3   OH236583   0.776   2.324   0.543  0.3864  0.1502 -0.0084
12213TIP3    H136584   0.813   2.290   0.624 -0.9278 -0.3835  0.3873
12213TIP3    H236585   0.719   2.395   0.572  0.3292  0.3088 -0.5131
12214TIP3   OH236586   3.657   6.177   5.484  0.2742 -0.5530  0.2244
12214TIP3    H136587   3.648   6.262   5.441  0.0225 -0.6040  0.1777
12214TIP3    H236588   3.663   6.198   5.577 -0.9268 -0.5583  0.3076
12215TIP3   OH236589   0.045   3.806   1.235  0.3900  0.1818  0.4517
12215TIP3    H136590   0.029   3.730   1.178 -0.5321  0.5098  0.2503
12215TIP3    H236591   0.017   3.777   1.322  0.8453  0.0086  0.5387
12216TIP3   OH236592   1.502   1.785   0.320 -0.4226  0.0069  0.0246
12216TIP3    H136593   1.587   1.827   0.335  0.1350 -1.0145 -0.2692
12216TIP3    H236594   1.510   1.698   0.359 -1.2880 -0.1602 -0.1475
12217TIP3   OH236595   1.776   4.057   6.640 -0.7208  0.3365 -0.1403
12217TIP3    H136596   1.764   4.097   6.726  0.4205 -0.4947  0.4024
12217TIP3    H236597   1.855   4.097   6.605 -0.4711 -0.2653 -0.2691
12218TIP3   OH236598   2.587   5.219   5.975  0.3870 -0.5697 -0.6553
12218TIP3    H136599   2.595   5.238   6.068 -1.3562 -0.6490 -0.4583
12218TIP3    H236600   2.579   5.124   5.969 -0.8981 -0.4654 -0.7502
12219TIP3   OH236601   5.589   0.482   2.943 -0.0651 -0.2197 -0.0193
12219TIP3    H136602   5.574   0.519   3.030 -0.3896  0.2718 -0.2848
12219TIP3    H236603   5.546   0.542   2.883 -0.2853 -0.8310 -0.4872
12220TIP3   OH236604   1.441   6.794   2.773  0.2118 -0.2504  0.2976
12220TIP3    H136605   1.448   6.832   2.861 -0.2986 -2.2760  1.2334
12220TIP3    H236606   1.519   6.739   2.765 -0.1080 -0.6278 -0.2487
12221TIP3   OH236607   3.357   6.527   6.713  0.3344  0.0983  0.3263
12221TIP3    H136608   3.284   6.525   6.775 -0.7441  0.0237 -0.9187
12221TIP3    H236609   3.317   6.506   6.629  2.0500 -1.4034 -0.1407
12222TIP3   OH236610   0.845   4.452   0.399 -0.1581  0.4242  0.5814
12222TIP3    H136611   0.907   4.521   0.419  0.2743  0.4136 -0.6587
12222TIP3    H236612   0.779   4.493   0.343 -1.6091  0.5809  2.3664
12223TIP3   OH236613   1.776   7.083   6.266 -0.2722 -0.0579  0.1666
12223TIP3    H136614   1.861   7.124   6.275 -0.8988  1.4009 -0.3776
12223TIP3    H236615   1.713   7.156   6.270 -1.3585 -0.8552 -1.4865
12224TIP3   OH236616   1.671   5.901   6.629  0.0889  0.4166 -0.0268
12224TIP3    H136617   1.738   5.959   6.594  1.1289 -0.8937 -0.2367
12224TIP3    H236618   1.603   5.899   6.561  0.1291  1.2325 -0.0973
12225TIP3   OH236619   7.511   0.732   0.645  0.4585  0.8669 -0.0850
12225TIP3    H136620   7.519   0.643   0.611 -0.9087 -0.4384  2.7963
12225TIP3    H236621   7.523   0.789   0.569 -2.1181 -1.8670 -2.6791
12226TIP3   OH236622   8.079   4.064   0.842 -0.5813  0.5067 -0.7101
12226TIP3    H136623   8.152   4.090   0.900  1.1025 -1.2022 -2.0114
12226TIP3    H236624   8.109   4.087   0.754 -2.2321  1.0835 -1.1449
12227TIP3   OH236625   8.470   2.431   0.914  0.2369  0.0555 -0.2719
12227TIP3    H136626   8.421   2.401   0.837 -0.5610  3.2245 -1.0792
12227TIP3    H236627   8.528   2.499   0.880  1.6758 -0.2366  1.5363
12228TIP3   OH236628   2.272   6.932   5.027  0.2997  0.5525 -0.1099
12228TIP3    H136629   2.284   6.877   4.950 -0.6057 -0.4887  0.4843
12228TIP3    H236630   2.271   6.870   5.101 -0.8508  1.3487  0.5497
12229TIP3   OH236631   2.775   7.607   6.194 -0.2813  0.0169 -0.1044
12229TIP3    H136632   2.739   7.637   6.110 -0.2421  0.3770  0.0034
12229TIP3    H236633   2.780   7.687   6.247 -0.4275 -0.2311  0.2842
12230TIP3   OH236634   5.762   6.935   6.594  0.0577 -0.1631  0.6227
12230TIP3    H136635   5.828   6.903   6.533 -1.4488  0.7715 -1.5813
12230TIP3    H236636   5.690   6.872   6.587 -1.0253  1.1441 -0.2755
12231TIP3   OH236637   7.723   4.904   0.622  0.1537 -0.3495 -0.7373
12231TIP3    H136638   7.724   4.985   0.569 -2.0737  0.4514  0.4149
12231TIP3    H236639   7.695   4.836   0.561 -1.0730  0.3223 -0.9308
12232TIP3   OH236640   1.217   4.760   6.047  0.0943  0.6491 -0.9000
12232TIP3    H136641   1.309   4.785   6.048 -0.1727  1.6563 -0.4760
12232TIP3    H236642   1.199   4.735   5.957  0.6038  1.1601 -1.1426
12233TIP3   OH236643   2.570   7.787   5.316 -0.2249  0.2255  0.0842
12233TIP3    H136644   2.613   7.780   5.401 -0.1565  1.3974  0.1466
12233TIP3    H236645   2.631   7.838   5.263 -0.7462  0.3887 -0.3555
12234TIP3   OH236646   2.485   7.844   6.505  0.5228  0.0202  0.1928
12234TIP3    H136647   2.458   7.753   6.514 -0.8182  0.5643  1.9168
12234TIP3    H236648   2.468   7.883   6.591 -2.5489  2.8346 -1.5670
12235TIP3   OH236649   3.838   4.268   5.057  0.1520  0.0368 -0.1642
12235TIP3    H136650   3.898   4.204   5.093 -2.1674 -1.1900  1.6925
12235TIP3    H236651   3.862   4.350   5.100  0.4892 -0.4495  0.5817
12236TIP3   OH236652   5.414   5.965   6.345  0.3510  0.1859  0.1195
12236TIP3    H136653   5.370   5.880   6.346  1.2172 -0.2664  0.4251
12236TIP3    H236654   5.409   5.993   6.253  2.6251 -1.5780 -0.6024
12237TIP3   OH236655   1.966   3.025   6.650 -0.2276  0.4786  0.1734
12237TIP3    H136656   1.950   3.046   6.558  1.0668  0.1191 -0.1556
12237TIP3    H236657   1.987   2.932   6.650 -1.5376  0.1661  1.0250
12238TIP3   OH236658   7.932   2.934   1.179 -0.0901 -0.1369 -0.1319
12238TIP3    H136659   7.888   2.927   1.094 -1.8174  0.6634  0.6512
12238TIP3    H236660   8.004   2.995   1.164  0.4606 -1.0699 -1.3357
12239TIP3   OH236661   7.903   3.131   1.372 -0.1204 -0.3204  0.1180
12239TIP3    H136662   7.816   3.159   1.400 -0.8525 -0.9593 -1.5237
12239TIP3    H236663   7.888   3.062   1.308  1.6123 -1.0344  0.4420
12240TIP3   OH236664   4.692   6.243   5.073  0.0952  0.3395 -0.1368
12240TIP3    H136665   4.615   6.285   5.111 -0.2734 -0.7455  0.3169
12240TIP3    H236666   4.670   6.232   4.981 -0.5681 -0.5920  0.1294
12241TIP3   OH236667   3.566   4.641   5.374 -0.4539  0.2067  0.0041
12241TIP3    H136668   3.470   4.648   5.382 -0.2342  1.9872  1.4153
12241TIP3    H236669   3.594   4.726   5.341  0.7576  0.1261  0.7887
12242TIP3   OH236670   2.688   6.816   5.563  0.1135  0.1754 -0.0684
12242TIP3    H136671   2.743   6.894   5.567  0.5588 -0.0019 -2.2247
12242TIP3    H236672   2.690   6.780   5.651  2.2269  1.0225  0.2456
12243TIP3   OH236673   8.493   1.769   1.193  0.1457 -0.1681  0.3895
12243TIP3    H136674   8.481   1.863   1.180  0.5968  0.3454  3.4438
12243TIP3    H236675   8.404   1.735   1.206  0.1996  0.3288  2.1985
12244TIP3   OH236676   1.664   5.443   6.208  0.3072 -0.5905 -0.1788
12244TIP3    H136677   1.708   5.435   6.293 -0.1107 -1.2991 -0.0164
12244TIP3    H236678   1.730   5.416   6.144  1.8814  3.5616 -0.4687
12245TIP3   OH236679   1.608   6.889   5.656 -0.1624 -0.6478  0.1728
12245TIP3    H136680   1.677   6.931   5.708  0.3502  0.0038 -1.0288
12245TIP3    H236681   1.608   6.936   5.573 -2.7608  0.0276  0.5194
12246TIP3   OH236682   6.230   0.092   5.351 -0.1738 -0.0523  0.0898
12246TIP3    H136683   6.260   0.177   5.384  0.0070 -0.4736  1.0280
12246TIP3    H236684   6.164   0.064   5.414  2.2801 -2.2257  1.7636
12247TIP3   OH236685   8.015   2.025   0.978  0.0791  0.1479  0.3427
12247TIP3    H136686   7.971   2.015   1.062  1.4484 -1.8025  0.8632
12247TIP3    H236687   8.097   2.070   0.999  0.3798 -0.2520  0.0269
12248TIP3   OH236688   8.034   2.880   2.094  0.5856 -0.0726 -0.2921
12248TIP3    H136689   8.038   2.789   2.124 -2.8727  0.0382  0.6428
12248TIP3    H236690   8.023   2.932   2.173  1.2918  1.1033 -0.9380
12249TIP3   OH236691   4.604   7.129   4.915  0.3225 -0.3255 -0.2907
12249TIP3    H136692   4.621   7.213   4.872 -0.4427 -0.4427 -0.8330
12249TIP3    H236693   4.621   7.064   4.847 -2.5111 -0.4422 -0.9491
12250TIP3   OH236694   4.736   6.488   5.917  0.2563 -0.0828 -0.0879
12250TIP3    H136695   4.761   6.576   5.943  2.3871 -1.4292  2.7365
12250TIP3    H236696   4.680   6.457   5.988 -1.1829 -0.6973 -1.4758
12251TIP3   OH236697   2.879   7.960   6.932 -0.0236 -0.3910  0.4273
12251TIP3    H136698   2.824   7.950   6.854 -0.0897 -0.0530  0.4281
12251TIP3    H236699   2.969   7.959   6.898 -0.0745  0.8701  0.2067
12252TIP3   OH236700   0.690   3.892   0.195 -0.1205  0.6377 -0.6644
12252TIP3    H136701   0.754   3.902   0.266  0.9373 -1.8743 -1.2202
12252TIP3    H236702   0.728   3.942   0.123  1.6444 -1.4317 -1.2240
12253TIP3   OH236703   5.261   6.697   4.780  0.2931  0.0857  0.5608
12253TIP3    H136704   5.230   6.606   4.787  1.9299 -0.3577  2.6033
12253TIP3    H236705   5.226   6.728   4.697 -0.9896 -2.1561  0.2227
12254TIP3   OH236706   4.106   6.442   6.148 -0.5259 -0.2093  0.5837
12254TIP3    H136707   4.013   6.461   6.158 -0.2689 -0.0948  3.2786
12254TIP3    H236708   4.123   6.373   6.213  1.3213  0.0355  0.4008
12255TIP3   OH236709   7.551   2.643   6.047 -0.1034  0.4062  0.7340
12255TIP3    H136710   7.626   2.670   6.100 -0.7971  1.6549  1.1160
12255TIP3    H236711   7.475   2.662   6.102 -0.6754 -1.6853  0.7124
12256TIP3   OH236712   3.439   5.020   6.566  0.1604  0.1905 -0.9488
12256TIP3    H136713   3.383   5.095   6.545  1.0869  1.0509 -0.3807
12256TIP3    H236714   3.470   5.037   6.655  0.2665 -0.9428 -0.7608
12257TIP3   OH236715   3.703   6.457   6.409 -0.2391 -0.2624  0.0454
12257TIP3    H136716   3.678   6.515   6.481 -1.2192 -0.2273 -0.3122
12257TIP3    H236717   3.798   6.446   6.418 -0.1955  0.6205  0.6867
12258TIP3   OH236718   2.319   6.317   5.022  0.2220 -0.4000 -0.1765
12258TIP3    H136719   2.308   6.372   5.099 -0.2818  0.0100 -0.5398
12258TIP3    H236720   2.317   6.228   5.056 -0.3314 -0.2329  0.2428
12259TIP3   OH236721   3.361   7.834   6.685 -0.4629  0.0197 -0.4056
12259TIP3    H136722   3.384   7.745   6.712  0.4913  0.4110  0.0826
12259TIP3    H236723   3.385   7.838   6.593 -0.2405 -0.1395 -0.3556
12260TIP3   OH236724   2.331   5.327   0.928  0.2099  0.2533  0.0771
12260TIP3    H136725   2.385   5.406   0.931  2.7933 -1.3806 -0.9389
12260TIP3    H236726   2.342   5.287   1.014  0.8751 -0.1979 -0.2059
12261TIP3   OH236727   5.321   6.730   5.878 -0.4626  0.0166 -0.4128
12261TIP3    H136728   5.245   6.711   5.822 -0.7618  0.7696 -0.2550
12261TIP3    H236729   5.354   6.643   5.901  0.8880 -0.3375 -3.4191
12262TIP3   OH236730   6.651   6.683   6.447 -0.2606 -0.1228  0.3065
12262TIP3    H136731   6.645   6.771   6.484  0.1158 -0.4349  1.1125
12262TIP3    H236732   6.587   6.683   6.375  0.5180  1.1662 -0.4208
12263TIP3   OH236733   4.692   6.559   5.193  0.4882 -0.1559  0.2233
12263TIP3    H136734   4.632   6.484   5.198  1.0767 -0.5625  1.4421
12263TIP3    H236735   4.683   6.591   5.104 -3.9041  1.7482  1.1704
12264TIP3   OH236736   2.753   6.257   6.119  0.3473  0.1326  0.0675
12264TIP3    H136737   2.710   6.339   6.144  0.1008  0.3590 -1.0798
12264TIP3    H236738   2.794   6.276   6.035  1.2746 -0.5824  0.3564
12265TIP3   OH236739   3.176   4.406   5.551  0.9025 -0.0679  0.0660
12265TIP3    H136740   3.134   4.486   5.519 -0.2852 -0.7719 -0.1318
12265TIP3    H236741   3.246   4.389   5.488 -0.9168 -0.9932 -1.7630
12266TIP3   OH236742   4.189   5.427   5.676 -0.6026  0.6405 -0.2006
12266TIP3    H136743   4.136   5.364   5.725  0.1420 -1.7258 -2.3201
12266TIP3    H236744   4.139   5.444   5.597  0.0489  1.3317 -0.4734
12267TIP3   OH236745   2.817   1.208   1.962 -0.0084 -0.1588 -0.2441
12267TIP3    H136746   2.892   1.158   1.994 -0.0316  0.7497  1.2951
12267TIP3    H236747   2.790   1.261   2.037 -2.0324 -0.2956 -0.8510
12268TIP3   OH236748   3.709   5.121   5.510 -0.0696 -0.3964 -0.2632
12268TIP3    H136749   3.769   5.188   5.546  0.5146 -0.1840 -1.5955
12268TIP3    H236750   3.650   5.101   5.582  0.3699  0.8507  0.4678
12269TIP3   OH236751   2.391   3.119   0.835 -0.1587 -0.0620 -0.0883
12269TIP3    H136752   2.429   3.064   0.903 -0.7016  0.0077  0.2742
12269TIP3    H236753   2.325   3.171   0.880 -1.0367 -0.5407 -0.8034
12270TIP3   OH236754   3.909   6.233   6.796 -0.3913 -0.1758 -0.2546
12270TIP3    H136755   3.991   6.191   6.823  0.7150  1.2031 -1.4292
12270TIP3    H236756   3.851   6.160   6.774  0.5355 -1.1570  0.4893
12271TIP3   OH236757   7.250   5.591   5.340 -0.5942  0.5162  0.7473
12271TIP3    H136758   7.235   5.600   5.435 -1.6050 -1.2792  0.7779
12271TIP3    H236759   7.321   5.527   5.333 -0.2644  0.9309  0.3033
12272TIP3   OH236760   0.259   2.793   0.160 -0.1525 -0.3044 -0.3032
12272TIP3    H136761   0.346   2.792   0.121 -0.0179  1.0263 -0.0556
12272TIP3    H236762   0.199   2.781   0.086  0.1711  0.6907 -0.7369
12273TIP3   OH236763   0.682   5.016   0.659  0.1197  0.2112 -0.2205
12273TIP3    H136764   0.744   5.081   0.693 -0.0770 -0.1141  0.7860
12273TIP3    H236765   0.604   5.067   0.637 -0.8507  0.0695  2.6423
12274TIP3   OH236766   4.453   7.494   5.711 -0.0499 -0.4878  0.0798
12274TIP3    H136767   4.436   7.400   5.710  0.4876 -0.6433  2.6067
12274TIP3    H236768   4.518   7.506   5.779 -4.0527  2.3083  3.6592
12275TIP3   OH236769   1.889   4.220   0.369  0.3631  0.3408 -0.0669
12275TIP3    H136770   1.881   4.136   0.414 -0.7336  0.3391 -0.2670
12275TIP3    H236771   1.884   4.197   0.276  0.7882  0.5540 -0.1440
12276TIP3   OH236772   4.742   7.331   4.725 -0.5265  0.2254  0.5488
12276TIP3    H136773   4.807   7.397   4.699 -1.0149  1.0061  1.2547
12276TIP3    H236774   4.696   7.309   4.644  0.8794 -0.6422 -0.0389
12277TIP3   OH236775   3.585   6.379   5.689 -0.2616 -0.2869 -0.0483
12277TIP3    H136776   3.609   6.430   5.767 -2.1470  1.0756 -0.3340
12277TIP3    H236777   3.498   6.344   5.709 -1.1330  0.7791 -1.8568
12278TIP3   OH236778   5.367   2.357   6.758 -0.2153  0.2027  0.2048
12278TIP3    H136779   5.391   2.354   6.850  0.5578 -1.6355 -0.0409
12278TIP3    H236780   5.451   2.355   6.712 -0.5873  1.3378 -0.5371
12279TIP3   OH236781   7.683   1.638   5.815  0.4717 -0.2439  0.1017
12279TIP3    H136782   7.611   1.612   5.873  0.1095 -1.7978 -0.9884
12279TIP3    H236783   7.646   1.627   5.727  1.7468 -0.1632 -0.4463
12280TIP3   OH236784   6.332   7.315   6.623 -0.7616 -0.0843 -0.4615
12280TIP3    H136785   6.350   7.396   6.671 -2.7247  0.6455 -0.8868
12280TIP3    H236786   6.239   7.300   6.637 -0.6062 -1.7475 -1.2045
12281TIP3   OH236787   5.743   7.240   6.625  0.0830  0.1188  0.2134
12281TIP3    H136788   5.775   7.256   6.713 -2.0056  0.6357  0.8914
12281TIP3    H236789   5.759   7.147   6.610 -0.1082 -0.0961  1.3504
12282TIP3   OH236790   4.942   6.699   5.247 -0.0214 -0.0579  0.1218
12282TIP3    H136791   4.860   6.654   5.229  0.0789 -0.5596  0.9131
12282TIP3    H236792   5.010   6.639   5.217  0.1559 -0.9980  2.3348
12283TIP3   OH236793   6.267   0.974   6.920 -0.3559  0.0885  0.1776
12283TIP3    H136794   6.258   1.038   6.990  1.4442 -1.4311  1.8767
12283TIP3    H236795   6.357   0.985   6.888 -1.1872  0.8292 -1.9819
12284TIP3   OH236796   5.014   5.473   4.310  0.1745  0.1310  0.8495
12284TIP3    H136797   4.942   5.426   4.269 -0.0373  1.5645 -0.4602
12284TIP3    H236798   5.091   5.419   4.292 -0.4181 -0.9332  1.4644
12285TIP3   OH236799   2.204   1.401   0.554  0.3546 -0.1762  0.0996
12285TIP3    H136800   2.182   1.309   0.565  1.7520 -0.6758 -1.1815
12285TIP3    H236801   2.252   1.405   0.471  0.4192  1.6765  0.2053
12286TIP3   OH236802   3.690   7.772   4.432  0.1672 -1.1676  0.1195
12286TIP3    H136803   3.674   7.735   4.345  0.5535  1.0211 -0.9212
12286TIP3    H236804   3.700   7.696   4.489  0.6465 -2.6460 -1.8815
12287TIP3   OH236805   3.460   5.891   3.649  0.1284 -0.4209 -0.1902
12287TIP3    H136806   3.395   5.872   3.716 -0.0283  0.7114 -0.0105
12287TIP3    H236807   3.536   5.837   3.672  0.3755  0.5594  1.3647
12288TIP3   OH236808   3.767   5.982   6.906 -0.0267 -0.3450  0.2009
12288TIP3    H136809   3.722   6.041   6.967  0.2661 -0.4449  0.5155
12288TIP3    H236810   3.729   6.002   6.821 -0.7815 -0.5405  0.4887
12289TIP3   OH236811   4.141   1.968   0.042  0.0129  0.3882 -0.0178
12289TIP3    H136812   4.084   1.909   0.091  0.2873  0.3064  0.2061
12289TIP3    H236813   4.228   1.930   0.050 -0.1040 -0.2371 -1.5064
12290TIP3   OH236814   4.112   5.862   6.762  0.6879  0.1030  0.1150
12290TIP3    H136815   4.115   5.775   6.804 -0.1504  0.0361  0.0484
12290TIP3    H236816   4.115   5.923   6.836 -0.4855 -0.0124  0.2790
12291TIP3   OH236817   2.940   3.618   1.242 -0.0108 -0.1512 -0.5519
12291TIP3    H136818   2.941   3.686   1.175 -0.4882  0.2508 -0.1597
12291TIP3    H236819   3.012   3.642   1.301  0.9204 -0.9463 -1.3411
12292TIP3   OH236820   3.121   5.768   5.096 -0.2289  0.9978  0.1216
12292TIP3    H136821   3.060   5.799   5.028 -1.2231  0.8731  0.9478
12292TIP3    H236822   3.071   5.775   5.177  0.2459 -0.8286  0.5802
12293TIP3   OH236823   4.532   4.397   2.717 -0.1132  0.4721  0.0515
12293TIP3    H136824   4.608   4.339   2.716 -0.4033 -0.0204  2.5192
12293TIP3    H236825   4.539   4.448   2.636  1.7777 -0.9076 -0.6841
12294TIP3   OH236826   1.616   4.548   0.293  0.1622  0.4510  0.2114
12294TIP3    H136827   1.645   4.566   0.204 -0.0681  0.9241  0.2261
12294TIP3    H236828   1.555   4.474   0.285 -1.0431  1.4685 -0.2342
12295TIP3   OH236829   4.939   5.809   5.612 -0.1713  0.0559 -0.1479
12295TIP3    H136830   4.968   5.834   5.699  1.0328  1.0627 -0.8076
12295TIP3    H236831   4.865   5.867   5.593 -0.4460 -0.1790  0.2138
12296TIP3   OH236832   5.240   5.869   5.836  0.2516  0.0059  0.4393
12296TIP3    H136833   5.309   5.935   5.830  1.2632 -1.1680 -1.3739
12296TIP3    H236834   5.163   5.911   5.798 -0.2035  1.4667  2.8395
12297TIP3   OH236835   6.926   0.471   6.716 -1.0547  0.0324  0.4838
12297TIP3    H136836   6.843   0.496   6.757 -1.4485  1.2941 -1.0276
12297TIP3    H236837   6.949   0.546   6.660  1.5130  0.0485  1.4695
12298TIP3   OH236838   3.646   7.627   6.819  0.7681 -0.0819 -0.1547
12298TIP3    H136839   3.659   7.672   6.736  1.3406 -0.9958 -0.5691
12298TIP3    H236840   3.552   7.611   6.824  0.6402  0.5940 -0.2872
12299TIP3   OH236841   2.213   3.231   1.000 -0.0691  0.2379  0.1353
12299TIP3    H136842   2.146   3.242   0.932 -0.4354 -0.1134  0.4397
12299TIP3    H236843   2.169   3.254   1.081 -0.0041 -0.6002  0.4146
12300TIP3   OH236844   2.994   7.372   6.545 -0.6787 -0.0507  0.0164
12300TIP3    H136845   3.034   7.330   6.469 -1.9538 -1.1372 -0.0656
12300TIP3    H236846   2.947   7.302   6.589 -3.3286  1.3768 -0.4445
12301TIP3   OH236847   2.307   4.860   1.246  0.1732  0.1406 -0.3883
12301TIP3    H136848   2.232   4.903   1.288  0.5131  0.2969  0.0610
12301TIP3    H236849   2.300   4.769   1.273 -0.3685 -0.0312 -1.0853
12302TIP3   OH236850   6.269   0.324   5.526  0.1813 -0.0029  0.6341
12302TIP3    H136851   6.294   0.294   5.614 -0.8020  0.7350  1.1795
12302TIP3    H236852   6.305   0.412   5.520  0.1207  0.0019  0.3471
12303TIP3   OH236853   1.404   3.349   0.400  0.0751 -0.1986  0.0728
12303TIP3    H136854   1.320   3.325   0.438  0.8858 -2.1683  0.6950
12303TIP3    H236855   1.456   3.269   0.405  2.0200  1.0164 -0.2200
12304TIP3   OH236856   1.625   7.404   3.914  0.5038  0.6536  0.5194
12304TIP3    H136857   1.639   7.457   3.993  0.1125  0.7391  0.5319
12304TIP3    H236858   1.642   7.465   3.842 -2.4442  1.5253  0.4980
12305TIP3   OH236859   6.103   5.411   4.317 -0.0464 -0.4473 -0.2109
12305TIP3    H136860   6.155   5.333   4.296  1.6211  0.3861  0.7429
12305TIP3    H236861   6.076   5.397   4.408 -2.4547 -1.3761 -1.0114
12306TIP3   OH236862   6.653   0.263   6.511 -0.2323 -0.0175  0.2893
12306TIP3    H136863   6.699   0.235   6.591  1.4157  1.2791 -0.1798
12306TIP3    H236864   6.720   0.262   6.443 -1.5754 -0.8833 -1.0566
12307TIP3   OH236865   1.056   3.783   0.539  0.1612  0.0572  0.1530
12307TIP3    H136866   1.125   3.790   0.605 -0.7012  1.2823  0.9423
12307TIP3    H236867   1.037   3.874   0.515  0.3402 -0.3641 -1.6714
12308TIP3   OH236868   4.954   4.183   6.061 -0.0978  0.0293  0.3294
12308TIP3    H136869   4.868   4.216   6.035  1.1151  1.9476 -1.3399
12308TIP3    H236870   4.978   4.236   6.137  1.0914  1.8399 -1.2922
12309TIP3   OH236871   2.800   1.233   0.782  0.3698  0.6070 -0.0554
12309TIP3    H136872   2.752   1.312   0.806 -1.0458 -0.1788 -0.2146
12309TIP3    H236873   2.808   1.238   0.687 -0.9621 -0.1157 -0.2152
12310TIP3   OH236874   5.128   5.546   6.068 -0.3708 -0.7596 -0.0255
12310TIP3    H136875   5.185   5.475   6.099 -0.2208 -0.2540  0.8759
12310TIP3    H236876   5.062   5.555   6.136 -0.9293 -0.6556 -0.5818
12311TIP3   OH236877   6.644   7.389   4.600 -0.5026 -0.1489 -0.1985
12311TIP3    H136878   6.580   7.456   4.578 -0.1989  0.1139 -0.2779
12311TIP3    H236879   6.717   7.403   4.538 -0.0035  0.0780  0.4405
12312TIP3   OH236880   4.369   4.966   4.571  0.1850 -0.2052  0.1664
12312TIP3    H136881   4.296   5.022   4.596 -0.4263 -1.1592  0.5398
12312TIP3    H236882   4.356   4.885   4.620  0.2140 -1.2602 -1.5247
12313TIP3   OH236883   5.737   7.529   6.498 -0.0636  0.1844 -0.4838
12313TIP3    H136884   5.735   7.484   6.414  3.3996  0.9905 -1.0717
12313TIP3    H236885   5.778   7.467   6.558 -0.8540  0.2873  0.1642
12314TIP3   OH236886   7.942   3.860   0.703  0.1409  0.1610  0.1054
12314TIP3    H136887   7.990   3.937   0.733  0.4845 -0.4347  1.1077
12314TIP3    H236888   8.010   3.796   0.680 -0.1482 -0.0184 -0.2560
12315TIP3   OH236889   1.006   0.207   1.508 -0.0286 -0.0917 -0.1076
12315TIP3    H136890   1.091   0.164   1.498  0.3398  0.6259 -0.0430
12315TIP3    H236891   0.943   0.136   1.494  0.5588 -0.4194 -1.2611
12316TIP3   OH236892   3.371   3.462   0.787  0.4947  0.1967  0.7197
12316TIP3    H136893   3.429   3.498   0.720 -0.8443 -0.1495 -0.6544
12316TIP3    H236894   3.330   3.538   0.828 -1.5248  0.3093 -1.4453
12317TIP3   OH236895   5.814   5.663   4.925  0.3198 -0.0496  0.4393
12317TIP3    H136896   5.901   5.697   4.945  0.0335  0.0509  1.5579
12317TIP3    H236897   5.758   5.701   4.993 -0.9530  1.5028 -1.4393
12318TIP3   OH236898   2.483   4.411   6.345 -0.1901  0.9138  0.0538
12318TIP3    H136899   2.510   4.325   6.312 -1.1654 -0.2522  2.1622
12318TIP3    H236900   2.542   4.473   6.302  0.9678 -0.8714 -1.0028
12319TIP3   OH236901   3.885   7.216   6.064 -0.4414 -0.1133  0.2678
12319TIP3    H136902   3.882   7.290   6.002 -0.9891  0.7247  1.2849
12319TIP3    H236903   3.855   7.141   6.013 -2.2441  0.8441 -0.1079
12320TIP3   OH236904   2.144   2.785   1.315 -0.3714  0.3936  0.4068
12320TIP3    H136905   2.146   2.703   1.266  0.7403  0.9093 -0.4350
12320TIP3    H236906   2.076   2.837   1.272  0.8959  1.0164 -0.9222
12321TIP3   OH236907   3.356   6.738   4.964 -0.3997  0.6915  0.0387
12321TIP3    H136908   3.379   6.831   4.957 -1.0683  1.0132  1.8749
12321TIP3    H236909   3.286   6.735   5.029 -0.9443 -1.0177 -0.6036
12322TIP3   OH236910   4.132   4.164   0.362  0.0572  0.1853  0.1811
12322TIP3    H136911   4.073   4.236   0.337 -1.3823 -1.1694 -0.4051
12322TIP3    H236912   4.214   4.208   0.385 -0.5135  1.9614 -1.0108
12323TIP3   OH236913   2.057   5.292   5.686  0.5934  0.4377 -0.3858
12323TIP3    H136914   1.985   5.239   5.720  1.4868  0.3309  1.4038
12323TIP3    H236915   2.069   5.262   5.596 -1.4476  0.3107 -0.6290
12324TIP3   OH236916   0.868   2.097   0.202 -0.0657 -0.0564 -0.4673
12324TIP3    H136917   0.800   2.099   0.270 -0.4665 -0.0635 -0.8668
12324TIP3    H236918   0.915   2.016   0.218 -1.8117 -1.3675 -1.7954
12325TIP3   OH236919   2.629   3.237   0.300 -0.1655  0.3327  0.2409
12325TIP3    H136920   2.537   3.229   0.323 -0.0678 -1.4972  0.1267
12325TIP3    H236921   2.640   3.177   0.226  0.9466  1.1027 -0.2205
12326TIP3   OH236922   2.842   4.810   5.607  0.1666 -0.6776  0.0523
12326TIP3    H136923   2.926   4.771   5.583  1.1337  0.6745  1.1659
12326TIP3    H236924   2.776   4.755   5.563  1.6246 -1.6935 -0.8911
12327TIP3   OH236925   3.042   6.921   6.472  0.1503 -0.0199  0.1320
12327TIP3    H136926   2.962   6.868   6.467  0.0102  0.2380 -0.4822
12327TIP3    H236927   3.019   7.002   6.427 -0.3869  1.5474  3.0981
12328TIP3   OH236928   0.239   0.027   5.360 -0.3183 -0.0915 -0.4606
12328TIP3    H136929   0.332   0.030   5.380 -0.0243 -0.8199 -1.6769
12328TIP3    H236930   0.235   0.007   5.267 -1.6654  1.9081 -0.8718
12329TIP3   OH236931   2.323   6.954   5.768  0.3015  0.3326 -0.0185
12329TIP3    H136932   2.314   6.867   5.808 -0.8183  0.4851  0.0697
12329TIP3    H236933   2.418   6.968   5.762  0.5349 -1.6203 -1.5979
12330TIP3   OH236934   3.906   5.054   6.480 -0.1644 -0.0295  0.1754
12330TIP3    H136935   3.922   4.998   6.556 -0.6710 -0.4142 -0.0011
12330TIP3    H236936   3.949   5.137   6.502  2.6238 -1.2073 -0.5148
12331TIP3   OH236937   5.973   5.759   6.195  0.8829  0.0460  0.0769
12331TIP3    H136938   5.942   5.850   6.194 -0.6494 -0.4650 -1.7278
12331TIP3    H236939   6.045   5.758   6.132  1.0714  0.0698  0.2933
12332TIP3   OH236940   0.161   2.582   0.797  0.0739  0.2904  0.3852
12332TIP3    H136941   0.172   2.667   0.839  1.3820 -0.3233  1.3153
12332TIP3    H236942   0.181   2.598   0.705  2.0504  0.6625  0.8510
12333TIP3   OH236943   2.327   3.219   0.061 -0.3078 -0.4866  0.3352
12333TIP3    H136944   2.326   3.312   0.039  1.4639 -0.4168  0.5221
12333TIP3    H236945   2.300   3.216   0.153 -0.3704 -0.1578  0.3282
12334TIP3   OH236946   2.009   2.995   2.099 -0.4988  0.1220 -0.0726
12334TIP3    H136947   2.048   3.010   2.185  0.2320  0.5206 -0.4676
12334TIP3    H236948   2.060   3.050   2.040 -2.2733  1.3881 -0.4680
12335TIP3   OH236949   6.017   4.718   6.058 -0.1429 -0.5228 -0.0593
12335TIP3    H136950   6.111   4.710   6.076  0.2696  3.7061  0.1372
12335TIP3    H236951   6.012   4.785   5.989 -3.0789  0.0584  0.6673
12336TIP3   OH236952   0.857   3.468   0.234  0.1237 -0.0407 -0.2741
12336TIP3    H136953   0.806   3.436   0.160 -0.3972 -0.6702  0.3486
12336TIP3    H236954   0.825   3.417   0.309  1.7394 -0.5069  0.1114
12337TIP3   OH236955   4.101   7.339   6.661 -0.1988  0.8774 -0.2541
12337TIP3    H136956   4.034   7.337   6.728 -0.2017  0.0685 -0.2766
12337TIP3    H236957   4.174   7.387   6.700 -0.2664  0.5549  0.2606
12338TIP3   OH236958   0.742   2.949   0.484 -0.0843  0.0765 -0.4436
12338TIP3    H136959   0.754   2.873   0.427  0.4019  0.4361 -0.8305
12338TIP3    H236960   0.707   3.017   0.426 -0.2648  0.2252 -0.1578
12339TIP3   OH236961   3.396   7.062   3.733 -0.0230 -0.2321 -0.2112
12339TIP3    H136962   3.382   7.015   3.815  1.8512 -0.7254 -0.1455
12339TIP3    H236963   3.447   7.002   3.679 -1.1747  0.1142 -1.7344
12340TIP3   OH236964   2.688   6.485   5.731 -0.3472 -0.1036  0.5572
12340TIP3    H136965   2.634   6.472   5.809  0.6665  0.9110  1.4551
12340TIP3    H236966   2.768   6.435   5.748 -1.5212 -2.7670 -1.3808
12341TIP3   OH236967   7.209   0.353   5.647 -0.0474 -0.5193 -0.1651
12341TIP3    H136968   7.302   0.331   5.648 -0.0387 -0.5772 -1.5603
12341TIP3    H236969   7.191   0.385   5.736  1.3759 -0.2054  0.0199
12342TIP3   OH236970   3.325   4.116   0.273  0.0837  0.4427 -0.0160
12342TIP3    H136971   3.407   4.090   0.231  0.2858  0.9699  0.0512
12342TIP3    H236972   3.257   4.070   0.223  0.3808  0.4035 -0.3876
12343TIP3   OH236973   4.065   7.449   5.093 -0.4026  0.2189  0.0385
12343TIP3    H136974   3.991   7.391   5.111 -0.7088  0.2040 -1.2230
12343TIP3    H236975   4.025   7.535   5.077 -0.2674 -0.0554 -1.8837
12344TIP3   OH236976   5.114   7.075   5.748 -0.5956 -0.3117 -0.0066
12344TIP3    H136977   5.196   7.029   5.732 -1.0252 -1.8362  1.9593
12344TIP3    H236978   5.141   7.159   5.787  0.0834  0.0659 -1.2526
12345TIP3   OH236979   4.667   7.368   3.803 -0.1226  0.2294  0.2713
12345TIP3    H136980   4.719   7.407   3.733 -0.6627 -0.2681 -0.4110
12345TIP3    H236981   4.621   7.442   3.843 -0.9954  0.3288 -0.8975
12346TIP3   OH236982   4.205   6.186   5.378  0.0943  0.2582  0.1560
12346TIP3    H136983   4.110   6.190   5.368 -0.0514 -0.9750  1.0119
12346TIP3    H236984   4.237   6.259   5.325 -1.2772  0.2055 -0.7797
12347TIP3   OH236985   3.631   7.152   4.053  0.1218 -0.2167  0.3094
12347TIP3    H136986   3.700   7.130   4.116  0.2526  0.4941  0.4214
12347TIP3    H236987   3.652   7.242   4.025 -0.3288 -0.2779 -0.2242
12348TIP3   OH236988   6.779   0.096   6.709 -0.4976  0.5284 -0.2354
12348TIP3    H136989   6.742   0.047   6.783 -2.9625 -0.4726 -2.0575
12348TIP3    H236990   6.873   0.100   6.728 -0.7775 -1.5434  1.8904
12349TIP3   OH236991   3.144   6.529   6.901 -0.0715  0.7034 -0.4992
12349TIP3    H136992   3.080   6.542   6.971 -0.7879 -0.3748 -0.9448
12349TIP3    H236993   3.099   6.473   6.837  1.2753  0.0219 -0.8711
12350TIP3   OH236994   5.271   7.849   4.220  0.1736 -0.1495  0.2386
12350TIP3    H136995   5.335   7.832   4.150 -0.6716  0.9361 -0.8156
12350TIP3    H236996   5.296   7.935   4.254  0.0399 -0.2844  0.6761
12351TIP3   OH236997   5.356   6.921   6.814 -0.3037 -0.4180 -0.2017
12351TIP3    H136998   5.267   6.954   6.804 -0.5040 -1.1561 -0.9268
12351TIP3    H236999   5.412   6.996   6.796 -0.7764  0.0600  0.3014
12352TIP3   OH237000   0.241   2.664   0.518 -0.5475 -0.2584  0.7013
12352TIP3    H137001   0.218   2.575   0.493  0.1740 -0.0819 -0.6548
12352TIP3    H237002   0.185   2.720   0.465  1.0708  0.1237 -0.6465
12353TIP3   OH237003   3.314   5.020   4.500 -0.4751 -0.0539  0.9800
12353TIP3    H137004   3.253   5.070   4.446  0.7004 -0.2687 -0.6095
12353TIP3    H237005   3.262   4.947   4.534 -1.3763  0.3861  0.5659
12354TIP3   OH237006   8.278   0.368   5.959  0.1687 -0.1474  0.2343
12354TIP3    H137007   8.216   0.431   5.996  1.4611 -0.3691  2.8698
12354TIP3    H237008   8.223   0.295   5.930 -0.8982  0.0466  1.6951
12355TIP3   OH237009   6.964   0.398   4.796 -0.5913  0.5020 -0.2437
12355TIP3    H137010   6.874   0.387   4.826 -0.4764  0.2471  0.0101
12355TIP3    H237011   6.996   0.309   4.781 -0.5087  0.6085 -0.7085
12356TIP3   OH237012   3.840   6.974   4.225 -0.2109  0.4322 -0.3918
12356TIP3    H137013   3.792   6.891   4.227  0.1729  0.2325  1.5573
12356TIP3    H237014   3.923   6.953   4.182 -0.5418  0.0359 -0.8327
12357TIP3   OH237015   3.871   7.939   4.587  0.8738 -0.0047 -0.3731
12357TIP3    H137016   3.794   7.896   4.550  0.9147 -1.8234  1.5728
12357TIP3    H237017   3.839   8.026   4.611 -0.6516 -0.7812  0.5437
12358TIP3   OH237018   0.325   1.435   0.179 -0.0240 -0.0373  0.4639
12358TIP3    H137019   0.372   1.456   0.098  1.0659  0.3241  1.1853
12358TIP3    H237020   0.237   1.471   0.165  0.2255  0.2372 -0.4562
12359TIP3   OH237021   1.167   4.299   0.070  0.1749  0.0956 -0.3305
12359TIP3    H137022   1.154   4.383   0.025 -2.1678 -0.5547 -0.9674
12359TIP3    H237023   1.111   4.306   0.148  0.7131 -0.5073  0.1048
12360TIP3   OH237024   3.922   5.568   4.012 -0.3019  0.1464 -0.0788
12360TIP3    H137025   3.885   5.630   3.950 -1.5898 -0.2938  0.2289
12360TIP3    H237026   3.984   5.516   3.961 -0.0425  0.9478 -0.5860
12361TIP3   OH237027   4.237   6.592   3.772 -0.0028  0.5669 -0.3680
12361TIP3    H137028   4.264   6.601   3.863 -0.4618  1.2253 -0.2893
12361TIP3    H237029   4.255   6.501   3.749  1.0854  0.6805  0.0625
12362TIP3   OH237030   5.866   6.708   5.504  0.2321  0.0870 -0.4111
12362TIP3    H137031   5.783   6.687   5.462  1.3488  0.0936 -2.6742
12362TIP3    H237032   5.918   6.749   5.436  2.4329 -0.7437  0.7085
12363TIP3   OH237033   2.852   2.996   1.240 -0.5555 -0.7194  0.7719
12363TIP3    H137034   2.944   2.973   1.249  0.0078  0.7374 -0.9142
12363TIP3    H237035   2.835   2.991   1.146 -2.4144 -1.7519  1.1333
12364TIP3   OH237036   4.942   7.263   6.340 -0.4332  0.5095  0.1822
12364TIP3    H137037   4.928   7.172   6.314 -0.4252  0.8012 -0.8684
12364TIP3    H237038   5.009   7.258   6.408  1.1883 -0.1079 -1.3994
12365TIP3   OH237039   1.819   0.684   1.679 -0.0570  0.0495 -0.2792
12365TIP3    H137040   1.762   0.637   1.619  0.3934 -0.7909 -0.0661
12365TIP3    H237041   1.867   0.615   1.725  0.0611  0.6974  0.5879
12366TIP3   OH237042   2.127   3.398   1.686 -0.2791 -0.0262 -0.1926
12366TIP3    H137043   2.066   3.418   1.615 -1.0293  0.5082  0.5829
12366TIP3    H237044   2.076   3.414   1.766  1.0848  1.0746  0.4701
12367TIP3   OH237045   3.443   7.898   4.856  0.0134  0.5077  0.6785
12367TIP3    H137046   3.378   7.861   4.796  1.7733 -0.2659 -0.7998
12367TIP3    H237047   3.421   7.990   4.861  1.0982  1.0660 -2.9485
12368TIP3   OH237048   2.940   6.955   5.256 -0.1299 -0.5130 -0.0998
12368TIP3    H137049   2.846   6.941   5.267 -0.3888  0.5276 -0.9428
12368TIP3    H237050   2.970   6.981   5.343 -0.4733 -1.6061  0.3600
12369TIP3   OH237051   4.942   4.158   4.830 -0.2682  0.0670  0.1300
12369TIP3    H137052   4.876   4.127   4.767  0.3059  0.1854 -0.5268
12369TIP3    H237053   5.004   4.086   4.837 -1.6312 -0.9449  2.4309
12370TIP3   OH237054   6.282   5.558   6.375  0.3401  0.2446  0.6670
12370TIP3    H137055   6.284   5.544   6.470  0.1282 -4.1867  0.1337
12370TIP3    H237056   6.194   5.534   6.349  0.5347  1.0109 -0.7295
12371TIP3   OH237057   1.092   2.348   0.573  0.0206 -0.3415 -0.4205
12371TIP3    H137058   1.017   2.364   0.516 -0.0922 -0.8837 -0.4203
12371TIP3    H237059   1.151   2.294   0.521  1.2756  1.6483 -1.1258
12372TIP3   OH237060   3.905   7.477   5.867  0.2331 -0.3498 -1.0028
12372TIP3    H137061   3.986   7.445   5.827  0.9607  0.5533 -0.2857
12372TIP3    H237062   3.932   7.555   5.916 -1.2206  0.4274 -1.4121
12373TIP3   OH237063   3.200   4.476   5.061  0.3973  0.4015  0.5452
12373TIP3    H137064   3.242   4.490   4.976  0.1709  1.7684  0.6613
12373TIP3    H237065   3.111   4.448   5.039  0.4120  0.5176  0.3383
12374TIP3   OH237066   6.214   6.653   5.891 -0.2989  0.6590  0.3744
12374TIP3    H137067   6.175   6.738   5.910 -0.5572  1.0249 -1.6613
12374TIP3    H237068   6.143   6.590   5.908 -0.2011  0.8514  1.5765
12375TIP3   OH237069   3.559   6.946   4.434  0.1197  0.4854  0.0709
12375TIP3    H137070   3.586   6.876   4.374 -0.2469 -0.6850  1.2433
12375TIP3    H237071   3.635   7.004   4.438  1.2720 -1.0429  0.8094
12376TIP3   OH237072   3.205   6.080   3.900 -0.0553 -1.2065  0.1578
12376TIP3    H137073   3.214   5.987   3.881  0.1900 -1.1706  0.1013
12376TIP3    H237074   3.166   6.117   3.820  0.6308 -1.1195 -0.1456
12377TIP3   OH237075   1.737   3.448   0.646  0.2208 -0.3786  0.0681
12377TIP3    H137076   1.746   3.355   0.626 -0.0860 -0.2294 -0.8157
12377TIP3    H237077   1.705   3.451   0.736  0.0323 -1.1307  0.0284
12378TIP3   OH237078   4.039   6.733   6.584 -0.1125 -0.0030 -0.2595
12378TIP3    H137079   4.051   6.785   6.663  0.5372 -0.6012  0.0402
12378TIP3    H237080   4.032   6.643   6.616  2.8733 -0.5573 -1.0758
12379TIP3   OH237081   4.667   7.662   4.528  0.1592  0.1449  0.1797
12379TIP3    H137082   4.703   7.740   4.572  0.7877  0.2524 -0.5250
12379TIP3    H237083   4.602   7.629   4.589 -0.1824  1.2860  0.4519
12380TIP3   OH237084   2.741   2.775   0.564 -0.0609 -0.1107  0.3299
12380TIP3    H137085   2.674   2.718   0.527  1.0002 -0.5068 -1.0638
12380TIP3    H237086   2.766   2.832   0.491  1.6731 -0.5097  0.5963
12381TIP3   OH237087   3.937   6.449   2.838 -0.3810 -0.1058  0.5423
12381TIP3    H137088   3.847   6.431   2.865 -0.7296 -0.8456 -1.0991
12381TIP3    H237089   3.944   6.545   2.844 -0.5003 -0.2136  3.0237
12382TIP3   OH237090   7.913   3.158   1.768  0.0776  0.0791  0.3775
12382TIP3    H137091   7.955   3.092   1.824 -0.6309  1.4880  2.6389
12382TIP3    H237092   7.823   3.127   1.758  0.9952 -1.8147 -2.6812
12383TIP3   OH237093   3.659   4.616   5.124 -0.2838 -0.2690 -0.3041
12383TIP3    H137094   3.585   4.590   5.070 -1.5906  2.1362  0.2395
12383TIP3    H237095   3.647   4.568   5.206  0.0651 -1.6625 -1.0586
12384TIP3   OH237096   3.369   1.630   0.507  0.5715  0.3811  0.0050
12384TIP3    H137097   3.341   1.721   0.505  0.9522  0.4873 -2.0713
12384TIP3    H237098   3.315   1.589   0.574 -2.1298  1.3470 -1.5213
12385TIP3   OH237099   4.343   7.248   5.300 -0.0786  0.1248  0.5082
12385TIP3    H137100   4.336   7.334   5.340 -1.6943 -0.1794  0.9166
12385TIP3    H237101   4.343   7.187   5.374 -1.7458 -0.3697  0.1110
12386TIP3   OH237102   1.691   4.091   0.703 -0.3427  0.1031  0.1557
12386TIP3    H137103   1.782   4.119   0.692 -0.4193  0.2561 -0.0955
12386TIP3    H237104   1.695   3.996   0.707 -0.0688  0.1450  1.0938
12387TIP3   OH237105   4.333   5.386   6.224  0.0779 -0.0193 -0.0088
12387TIP3    H137106   4.300   5.346   6.143 -1.6876 -0.8066  1.0669
12387TIP3    H237107   4.302   5.328   6.293  1.5730  0.6495  1.2334
12388TIP3   OH237108   2.434   6.533   3.728 -0.1875  0.1968  0.0809
12388TIP3    H137109   2.414   6.606   3.669  0.6091 -0.7688 -1.4191
12388TIP3    H237110   2.463   6.575   3.808  0.0543  1.5471 -0.6947
12389TIP3   OH237111   5.109   6.716   6.104  0.0997  0.0599  0.1977
12389TIP3    H137112   5.183   6.663   6.075 -0.0730 -1.0194  1.6256
12389TIP3    H237113   5.135   6.806   6.088  2.5427 -0.1986  2.3852
12390TIP3   OH237114   5.516   7.658   6.659  0.3936 -0.2628 -0.3584
12390TIP3    H137115   5.578   7.632   6.591 -0.7764 -0.8722 -1.2149
12390TIP3    H237116   5.446   7.592   6.655 -0.6363  0.7783  0.1362
12391TIP3   OH237117   7.030   6.043   6.192  0.0967 -0.0083 -0.2116
12391TIP3    H137118   7.048   6.096   6.114  0.9060  2.3971  1.5672
12391TIP3    H237119   6.935   6.041   6.198  0.0371  0.0481 -1.0765
12392TIP3   OH237120   6.840   6.416   3.949  0.2497 -0.0215  0.5902
12392TIP3    H137121   6.784   6.477   3.901  2.0339  0.3163 -1.1321
12392TIP3    H237122   6.869   6.466   4.027 -0.1602  0.5210  0.3981
12393TIP3   OH237123   2.013   2.674   2.317  0.0774  0.2134 -0.7518
12393TIP3    H137124   2.074   2.745   2.336  0.2792 -0.0304 -0.4707
12393TIP3    H237125   2.036   2.645   2.229 -1.9223  2.4202 -2.0517
12394TIP3   OH237126   4.356   4.903   6.060 -0.1235  0.1452  0.1248
12394TIP3    H137127   4.452   4.903   6.051 -0.2190 -0.9692 -1.0525
12394TIP3    H237128   4.331   4.813   6.040 -1.6027  0.9126 -1.5601
12395TIP3   OH237129   5.042   7.479   5.563  0.1477 -0.0624  0.3121
12395TIP3    H137130   4.948   7.477   5.543 -0.0867  1.0726  1.2818
12395TIP3    H237131   5.077   7.402   5.518 -1.2816 -0.6135  0.1067
12396TIP3   OH237132   5.320   6.300   6.567 -0.8405 -0.2806 -0.2252
12396TIP3    H137133   5.292   6.211   6.548 -3.2129  0.1005  1.2582
12396TIP3    H237134   5.251   6.356   6.532  0.3344  0.9505 -0.6308
12397TIP3   OH237135   6.920   5.989   6.646  0.0391  0.1114  0.0625
12397TIP3    H137136   6.856   6.037   6.594 -0.8764 -1.5828 -0.4444
12397TIP3    H237137   6.926   6.037   6.728 -0.1265  1.6061 -0.7872
12398TIP3   OH237138   2.711   1.597   0.184  0.2137  0.0818 -0.3651
12398TIP3    H137139   2.649   1.565   0.250  1.7394 -1.1286  0.4958
12398TIP3    H237140   2.718   1.526   0.121  2.6254 -0.8033  0.8619
12399TIP3   OH237141   4.719   5.378   3.260 -0.0098  0.0277  1.2035
12399TIP3    H137142   4.683   5.301   3.216 -1.7970  1.6791 -0.3294
12399TIP3    H237143   4.732   5.350   3.350  0.1553 -2.3007  0.5092
12400TIP3   OH237144   1.921   1.463   0.394 -0.4390 -0.0840  0.0267
12400TIP3    H137145   1.876   1.379   0.407 -1.0597  0.3196  0.4818
12400TIP3    H237146   1.880   1.522   0.456  0.6797  0.3076  0.4097
12401TIP3   OH237147   3.197   2.283   1.411  0.4601 -0.2789  0.1065
12401TIP3    H137148   3.261   2.259   1.345  2.6587 -1.2778  2.5162
12401TIP3    H237149   3.147   2.203   1.427 -1.2395  0.4045 -1.5062
12402TIP3   OH237150   1.230   2.549   0.752  0.5992  0.5174 -0.0690
12402TIP3    H137151   1.312   2.580   0.714  1.2845 -2.3542 -1.0608
12402TIP3    H237152   1.169   2.546   0.678  0.8683 -1.5011 -0.2367
12403TIP3   OH237153   2.120   3.542   1.197 -0.3149  0.4841 -0.2235
12403TIP3    H137154   2.142   3.547   1.104 -0.3931 -3.3909 -0.5104
12403TIP3    H237155   2.139   3.452   1.222 -4.0270  0.3502  2.5642
12404TIP3   OH237156   4.896   5.225   5.347  0.1119 -0.0176 -1.0189
12404TIP3    H137157   4.984   5.189   5.345  0.2156  0.0628  0.9146
12404TIP3    H237158   4.847   5.165   5.404 -0.5363  1.0672 -0.4018
12405TIP3   OH237159   2.330   2.776   2.569  0.2141 -0.2972  0.3326
12405TIP3    H137160   2.382   2.771   2.648 -0.6503  0.2285  0.9417
12405TIP3    H237161   2.393   2.799   2.500  0.6317  1.2809  1.2140
12406TIP3   OH237162   6.319   0.079   6.041  0.5158  0.0150  0.7816
12406TIP3    H137163   6.241   0.026   6.058  0.9672 -1.2819 -1.0259
12406TIP3    H237164   6.377   0.060   6.114  0.2778 -1.2685  0.6500
12407TIP3   OH237165   3.212   7.299   4.534 -0.1680 -0.1079  0.1824
12407TIP3    H137166   3.188   7.275   4.444  0.9056 -1.6576  0.2950
12407TIP3    H237167   3.306   7.283   4.539  0.1475  1.9180  0.9916
12408TIP3   OH237168   3.555   5.512   3.585 -0.1232  0.1963 -0.4733
12408TIP3    H137169   3.612   5.567   3.640  0.8405 -1.1496 -0.0949
12408TIP3    H237170   3.492   5.474   3.646  0.2287 -0.3855 -0.4619
12409TIP3   OH237171   6.226   7.263   5.727  0.1243 -0.3529  0.4119
12409TIP3    H137172   6.304   7.227   5.684 -1.0129  1.6338 -3.5160
12409TIP3    H237173   6.155   7.207   5.697 -0.4976  0.0458  1.1188
12410TIP3   OH237174   4.429   7.986   3.781 -0.9315 -0.0154  0.2693
12410TIP3    H137175   4.406   7.904   3.737  0.8001 -0.3919  0.0545
12410TIP3    H237176   4.366   7.993   3.853 -2.3571 -0.5190 -0.9020
12411TIP3   OH237177   3.674   7.641   6.225 -0.0369 -0.4466  0.2128
12411TIP3    H137178   3.680   7.546   6.232 -0.2596 -0.3918  1.3241
12411TIP3    H237179   3.761   7.669   6.195 -0.0632 -1.0215 -0.4049
12412TIP3   OH237180   3.236   5.491   0.778  0.4075 -0.9919 -0.1367
12412TIP3    H137181   3.229   5.558   0.710 -0.6198 -0.8144  0.1418
12412TIP3    H237182   3.175   5.519   0.846  0.0257 -2.1726  0.0138
12413TIP3   OH237183   1.730   3.445   0.186  0.3007  0.9927 -0.0669
12413TIP3    H137184   1.823   3.450   0.163  0.3909 -0.0928  0.0643
12413TIP3    H237185   1.715   3.521   0.243  1.0909  1.2135 -0.1577
12414TIP3   OH237186   4.192   5.678   5.830  0.3533  0.3432  0.3838
12414TIP3    H137187   4.112   5.643   5.868  0.0887 -0.2730 -0.7245
12414TIP3    H237188   4.216   5.616   5.761  2.0001  0.3186  0.9469
12415TIP3   OH237189   4.444   7.642   6.084  0.7293 -0.0057 -0.6834
12415TIP3    H137190   4.384   7.702   6.040 -0.3621 -1.0146 -0.5978
12415TIP3    H237191   4.394   7.561   6.094  1.9903 -0.7475 -0.2829
12416TIP3   OH237192   4.591   7.280   5.157 -0.1358  0.1957 -0.0505
12416TIP3    H137193   4.521   7.261   5.219 -1.1886  1.0465 -0.9602
12416TIP3    H237194   4.573   7.222   5.082  1.2832 -1.0303  0.5294
12417TIP3   OH237195   4.959   6.618   5.545 -0.1524  0.5317 -0.1427
12417TIP3    H137196   4.961   6.525   5.520 -0.7380  0.1455  1.2067
12417TIP3    H237197   4.931   6.663   5.466 -0.2026 -0.4781 -0.7140
12418TIP3   OH237198   1.670   2.830   0.013  0.5777 -0.2537 -0.7262
12418TIP3    H137199   1.616   2.763  -0.030  1.9817 -1.2659 -0.9422
12418TIP3    H237200   1.755   2.788   0.024  0.4853  0.2592  2.3341
12419TIP3   OH237201   2.669   2.445   0.117  0.7343  0.8227 -0.2047
12419TIP3    H137202   2.679   2.524   0.064  1.3283 -0.9048 -2.7393
12419TIP3    H237203   2.676   2.373   0.055  0.9707 -1.2714  2.1669
12420TIP3   OH237204   3.521   7.192   6.250  0.5678 -0.3810  0.0907
12420TIP3    H137205   3.462   7.230   6.314  0.7534 -1.3778  0.8711
12420TIP3    H237206   3.605   7.235   6.265  0.2781  0.3608 -0.3937
12421TIP3   OH237207   4.218   7.753   5.878  0.2411  0.4791  0.6108
12421TIP3    H137208   4.259   7.839   5.892 -1.6250  1.3916  0.6115
12421TIP3    H237209   4.216   7.743   5.783  0.9058  0.2058  0.6220
12422TIP3   OH237210   4.793   7.109   5.791 -0.0173  0.3187  0.3805
12422TIP3    H137211   4.729   7.044   5.821 -1.1787  0.9549 -0.6923
12422TIP3    H237212   4.805   7.167   5.866 -2.2417  1.3857 -0.0441
12423TIP3   OH237213   5.232   6.600   6.832  0.0438  0.3520 -0.4449
12423TIP3    H137214   5.255   6.625   6.742 -0.5724  2.9237  0.0619
12423TIP3    H237215   5.308   6.627   6.884 -0.5968  1.0952  0.1102
12424TIP3   OH237216   3.997   7.940   5.949 -0.1171  0.1139 -0.6358
12424TIP3    H137217   3.949   7.914   5.870  0.3082  0.2192 -0.9292
12424TIP3    H237218   4.087   7.954   5.919  0.0530  0.1217 -0.1269
12425TIP3   OH237219   3.776   7.179   6.500 -0.1249  0.0448 -0.1064
12425TIP3    H137220   3.787   7.254   6.441  0.3851 -0.3075 -0.4725
12425TIP3    H237221   3.792   7.215   6.587 -0.0874  0.4106 -0.2618
12426TIP3   OH237222   5.455   5.825   4.811 -0.1688 -0.2699  0.6118
12426TIP3    H137223   5.508   5.903   4.796 -1.5765  0.3429 -1.2976
12426TIP3    H237224   5.496   5.758   4.756 -0.5108 -0.1642  0.2219
12427TIP3   OH237225   2.656   4.526   0.757  0.4309  0.4779  0.4750
12427TIP3    H137226   2.732   4.507   0.701  1.1843  1.4184  1.1724
12427TIP3    H237227   2.679   4.489   0.842 -0.4671 -0.4133  0.3472
12428TIP3   OH237228   5.956   7.237   6.145 -0.4908  0.6397  0.1402
12428TIP3    H137229   6.034   7.181   6.142 -0.8512  0.1014  0.7035
12428TIP3    H237230   5.935   7.254   6.053 -0.9300 -0.9362 -0.0694
12429TIP3   OH237231   4.888   6.975   5.515  0.1983  0.1964  0.3567
12429TIP3    H137232   4.837   7.049   5.483  1.7045  0.6907 -0.9951
12429TIP3    H237233   4.914   6.928   5.436  0.5121 -0.9271  1.1194
12430TIP3   OH237234   3.418   6.106   6.949 -0.1990 -0.8203 -0.5555
12430TIP3    H137235   3.483   6.162   6.905  0.1052 -0.5438  0.2430
12430TIP3    H237236   3.403   6.034   6.888 -1.0693  0.4656 -1.8918
12431TIP3   OH237237   4.778   6.783   6.943  0.4598 -0.0936 -0.3387
12431TIP3    H137238   4.781   6.688   6.950 -1.5396 -0.0417  1.7251
12431TIP3    H237239   4.869   6.809   6.925  1.0901 -2.3345 -0.4644
12432TIP3   OH237240   5.483   5.042   5.892  0.2470 -0.0619 -0.4215
12432TIP3    H137241   5.449   5.027   5.803  0.5694  1.2964 -0.7855
12432TIP3    H237242   5.419   5.100   5.933  1.0401  0.8184 -0.4022
12433TIP3   OH237243   6.098   2.591   4.011 -0.6926 -0.6855  0.0256
12433TIP3    H137244   6.149   2.572   4.090  0.3246  0.5204 -0.3345
12433TIP3    H237245   6.154   2.562   3.939 -0.2524  1.1944 -0.4013
12434TIP3   OH237246   2.543   7.566   4.049  0.2972  0.7241  0.1411
12434TIP3    H137247   2.550   7.640   4.110  0.4427  2.0703 -1.4660
12434TIP3    H237248   2.451   7.568   4.022  0.5850  1.0676 -0.8171
12435TIP3   OH237249   6.968   0.948   5.268 -0.5575 -0.2721  0.4062
12435TIP3    H137250   7.003   0.990   5.347  0.3269  0.1653 -0.2215
12435TIP3    H237251   6.874   0.939   5.286 -0.5533  0.8728  1.0326
12436TIP3   OH237252   3.446   5.498   5.399 -0.1356 -0.3392 -0.1703
12436TIP3    H137253   3.467   5.591   5.397 -1.2034 -0.0817  0.1197
12436TIP3    H237254   3.523   5.455   5.361  0.4920  0.6306 -0.0078
12437TIP3   OH237255   3.814   6.886   6.547  0.1419 -0.0893 -0.6904
12437TIP3    H137256   3.813   6.981   6.535 -0.4217  0.0245  0.2239
12437TIP3    H237257   3.907   6.863   6.545  0.3206  0.5653 -0.2771
12438TIP3   OH237258   6.169   0.676   5.667  0.2193 -0.1696 -0.0924
12438TIP3    H137259   6.149   0.614   5.737  1.8939 -0.4300  0.1682
12438TIP3    H237260   6.251   0.644   5.629  1.3628  2.1582  0.3628
12439TIP3   OH237261   7.903   0.488   4.594 -0.2421 -0.5754 -0.4137
12439TIP3    H137262   7.836   0.474   4.661  0.3566 -0.8912  0.1256
12439TIP3    H237263   7.986   0.476   4.641  0.2809  2.4294 -0.4413
12440TIP3   OH237264   3.039   3.102   0.977  0.0216 -0.0374 -0.4368
12440TIP3    H137265   2.982   3.139   0.910  1.0682  0.4699 -1.0628
12440TIP3    H237266   3.124   3.145   0.963  0.1572  0.3519  1.4457
12441TIP3   OH237267   6.554   5.869   5.724  0.1668 -0.1681  0.1202
12441TIP3    H137268   6.496   5.825   5.787  1.7222  1.7497  2.9868
12441TIP3    H237269   6.610   5.799   5.691  1.5896 -0.6961  3.4623
12442TIP3   OH237270   2.116   7.428   5.900  0.5349  0.1970 -0.5795
12442TIP3    H137271   2.147   7.496   5.960  2.0342  0.0404 -1.1456
12442TIP3    H237272   2.120   7.348   5.952  0.7363  0.2406 -0.5236
12443TIP3   OH237273   7.358   0.049   6.723 -0.3901  0.6930 -0.4722
12443TIP3    H137274   7.435  -0.005   6.741 -1.6542 -0.9779 -0.0102
12443TIP3    H237275   7.371   0.080   6.633  0.2890 -0.4458 -0.7716
12444TIP3   OH237276   8.046   0.956   3.431  0.5632 -0.2257  0.3773
12444TIP3    H137277   7.968   0.928   3.479 -0.5742  1.2193 -0.6108
12444TIP3    H237278   8.043   0.906   3.349 -0.4501  1.3633 -0.5637
12445TIP3   OH237279   3.426   4.973   3.935  0.7255 -0.1041 -0.1335
12445TIP3    H137280   3.355   5.013   3.984 -0.1241 -0.0572 -1.3649
12445TIP3    H237281   3.439   4.887   3.975 -0.9249 -0.6402 -0.7315
12446TIP3   OH237282   5.855   7.636   5.754 -0.1580 -0.1181  0.1697
12446TIP3    H137283   5.827   7.716   5.710 -1.0732  0.2316  1.3559
12446TIP3    H237284   5.924   7.664   5.814 -2.0217  0.2158  2.2441
12447TIP3   OH237285   1.655   7.203   3.077 -0.1305 -0.4610 -0.4841
12447TIP3    H137286   1.591   7.171   3.141 -0.1564 -0.1205 -0.3404
12447TIP3    H237287   1.629   7.294   3.061  1.1653  0.1241  0.6347
12448TIP3   OH237288   0.909   3.883   0.775  0.2835 -0.2478  0.7090
12448TIP3    H137289   0.971   3.952   0.749 -0.3768 -0.5224 -1.7318
12448TIP3    H237290   0.955   3.801   0.756 -0.2118 -0.4619  0.4378
12449TIP3   OH237291   7.056   0.441   4.505 -0.0076  0.1298  0.1412
12449TIP3    H137292   7.012   0.357   4.497 -1.6035  1.0295 -1.0440
12449TIP3    H237293   6.988   0.501   4.535  1.5356  0.6604  2.6661
12450TIP3   OH237294   5.208   6.909   6.383 -0.7077 -0.4013  0.0228
12450TIP3    H137295   5.195   6.910   6.288 -1.0121 -1.4230  0.0486
12450TIP3    H237296   5.203   7.002   6.408  1.0711  0.0418 -1.1707
12451TIP3   OH237297   4.878   6.372   6.596  0.5848 -0.2991 -0.1106
12451TIP3    H137298   4.788   6.396   6.620  0.9727 -0.8825  2.0904
12451TIP3    H237299   4.879   6.276   6.599  1.4875 -0.2696  0.7411
12452TIP3   OH237300   4.559   5.807   6.439 -0.6153 -0.4423 -0.4734
12452TIP3    H137301   4.484   5.864   6.422 -0.0530  0.4873  0.1724
12452TIP3    H237302   4.540   5.767   6.524 -1.2992 -1.7041 -1.1969
12453TIP3   OH237303   4.387   2.961   4.307 -0.2795 -0.1333  0.3604
12453TIP3    H137304   4.361   2.965   4.399 -0.3167 -0.5356  0.3692
12453TIP3    H237305   4.365   2.871   4.280 -0.5466  0.0735 -0.1213
12454TIP3   OH237306   4.775   5.377   5.969 -0.1736 -0.3428  0.2075
12454TIP3    H137307   4.698   5.324   5.988 -1.0387  0.2489 -1.5175
12454TIP3    H237308   4.742   5.466   5.960  0.6561 -0.1141 -0.7604
12455TIP3   OH237309   6.257   4.641   6.233 -0.0060  0.0831 -0.3121
12455TIP3    H137310   6.341   4.595   6.230  0.0357  0.0588  0.8387
12455TIP3    H237311   6.192   4.571   6.241 -0.1911  0.0681 -1.8458
12456TIP3   OH237312   6.238   6.395   4.447  0.1834 -0.0536  0.2096
12456TIP3    H137313   6.282   6.359   4.523  2.6527  0.2691 -1.0251
12456TIP3    H237314   6.228   6.320   4.388  1.2223  0.3307 -0.4724
12457TIP3   OH237315   5.002   6.136   4.657  0.1088  0.3282 -0.1969
12457TIP3    H137316   5.090   6.106   4.633 -0.2844 -1.5233  0.5667
12457TIP3    H237317   4.977   6.081   4.731 -2.6364 -0.8433 -1.9002
12458TIP3   OH237318   2.705   6.743   6.832  0.1593 -0.3286  0.7010
12458TIP3    H137319   2.655   6.763   6.911 -0.3783  1.3823 -0.0285
12458TIP3    H237320   2.783   6.799   6.839 -1.6674  2.6903 -1.6917
12459TIP3   OH237321   8.247   1.954   0.197  0.4119 -0.1828  0.1839
12459TIP3    H137322   8.267   1.862   0.215 -2.8161 -0.8437  0.6269
12459TIP3    H237323   8.198   1.984   0.274  0.2243  1.5113 -0.5699
12460TIP3   OH237324   6.689   6.280   4.899  0.5023 -0.6438  0.1613
12460TIP3    H137325   6.746   6.210   4.929  0.0570 -1.4550 -0.8506
12460TIP3    H237326   6.653   6.318   4.979  1.9163 -0.5765  0.7663
12461TIP3   OH237327   4.306   6.716   6.495  0.0683  0.2297 -0.0399
12461TIP3    H137328   4.213   6.716   6.521 -0.0588 -0.3491 -0.4834
12461TIP3    H237329   4.306   6.677   6.408  1.1812 -3.7354  1.6140
12462TIP3   OH237330   7.241   0.320   3.786 -0.2427  0.2448 -0.1329
12462TIP3    H137331   7.290   0.288   3.862 -1.3440  1.7321  1.2399
12462TIP3    H237332   7.306   0.365   3.732  0.8028 -1.9317 -0.7614
12463TIP3   OH237333   4.361   5.926   2.629  0.1480  0.2002  0.0317
12463TIP3    H137334   4.372   5.989   2.558  0.3109 -0.4318 -0.5120
12463TIP3    H237335   4.268   5.903   2.627  0.4842 -1.1474 -1.1366
12464TIP3   OH237336   5.372   4.316   5.785  0.3641  0.3143 -0.0557
12464TIP3    H137337   5.440   4.382   5.773 -0.3635  1.1789  0.5417
12464TIP3    H237338   5.377   4.293   5.878 -0.6395  0.9223  0.1595
12465TIP3   OH237339   0.902   6.522   3.107 -0.1134 -0.3649 -0.1536
12465TIP3    H137340   0.832   6.509   3.172 -0.0141 -2.4645 -0.4499
12465TIP3    H237341   0.982   6.496   3.153  0.0448 -1.1957 -0.9015
12466TIP3   OH237342   4.742   5.796   6.217 -0.5970 -0.0314  0.2493
12466TIP3    H137343   4.761   5.890   6.206 -1.3702  0.0280 -0.6152
12466TIP3    H237344   4.687   5.792   6.295  1.2897 -0.0002  1.6081
12467TIP3   OH237345   3.917   6.810   4.843 -0.7433  0.5407  0.3464
12467TIP3    H137346   3.938   6.894   4.882 -0.4669  0.8399 -0.4307
12467TIP3    H237347   3.850   6.829   4.778 -1.0044  0.0947  0.4818
12468TIP3   OH237348   6.431   5.334   6.042 -0.1030  0.0959  0.1598
12468TIP3    H137349   6.403   5.418   6.006 -0.4654 -0.4627 -0.8790
12468TIP3    H237350   6.358   5.307   6.097  1.1670  1.7827  2.7873
12469TIP3   OH237351   1.092   0.019   5.482  0.0666  0.1926  0.2138
12469TIP3    H137352   1.100   0.080   5.556  1.2393 -1.1345  1.2091
12469TIP3    H237353   1.093  -0.068   5.523  0.9243 -0.5646 -1.3795
12470TIP3   OH237354   5.790   5.386   6.288  0.0706 -0.3134 -0.3879
12470TIP3    H137355   5.766   5.339   6.209  1.8203 -0.9524 -0.5562
12470TIP3    H237356   5.708   5.394   6.337 -1.1648  0.6758 -2.5349
12471TIP3   OH237357   3.781   6.671   3.912 -0.3560 -0.2485  0.3245
12471TIP3    H137358   3.821   6.632   3.834 -2.2594 -1.1129 -0.2616
12471TIP3    H237359   3.716   6.733   3.878 -1.2501 -0.6759  1.1979
12472TIP3   OH237360   0.768   1.317   0.634  0.2911 -0.1084  0.8121
12472TIP3    H137361   0.723   1.250   0.685 -0.4203  1.1034  1.8094
12472TIP3    H237362   0.827   1.359   0.697  0.4758  0.4147  0.2917
12473TIP3   OH237363   4.821   7.280   6.018 -0.1806  0.1517 -0.6872
12473TIP3    H137364   4.813   7.204   6.075 -1.0890  1.5574  1.1241
12473TIP3    H237365   4.912   7.309   6.028 -0.1476 -0.0213 -0.4850
12474TIP3   OH237366   3.450   7.503   4.008 -0.3253 -0.4987  0.2248
12474TIP3    H137367   3.518   7.446   3.972  0.1296 -0.2654  0.7182
12474TIP3    H237368   3.380   7.500   3.943  1.1974  1.3142 -1.5710
12475TIP3   OH237369   4.572   6.956   5.901 -0.9854  0.5794  0.2043
12475TIP3    H137370   4.533   6.893   5.841 -3.4922  1.7957  0.4867
12475TIP3    H237371   4.533   6.936   5.986 -0.1523  1.1394  0.7312
12476TIP3   OH237372   5.176   3.491   5.924  0.0407  0.1381  0.2986
12476TIP3    H137373   5.206   3.402   5.904 -0.0345  0.1626  0.0776
12476TIP3    H237374   5.102   3.505   5.865  1.4438  1.1797 -1.2464
12477TIP3   OH237375   5.831   6.807   5.970 -0.1792  0.0539  0.3886
12477TIP3    H137376   5.923   6.829   5.985 -0.2104  0.1338  0.4593
12477TIP3    H237377   5.825   6.714   5.991  0.1317 -0.2127 -0.7132
12478TIP3   OH237378   0.454   0.361   5.431  0.3899  0.4636 -0.0122
12478TIP3    H137379   0.416   0.301   5.495  1.1405  2.4991  2.4695
12478TIP3    H237380   0.546   0.336   5.427  0.3790  0.4467 -0.1423
12479TIP3   OH237381   3.651   5.725   5.151 -0.5154 -0.2441 -0.2976
12479TIP3    H137382   3.648   5.806   5.202 -0.1619 -0.0103 -0.6472
12479TIP3    H237383   3.559   5.702   5.137 -0.6581  1.3189 -2.1254
12480TIP3   OH237384   6.667   4.342   6.018 -0.0519 -0.3681  0.3220
12480TIP3    H137385   6.693   4.263   6.065  1.3275  0.0628  0.3238
12480TIP3    H237386   6.750   4.387   6.000 -0.8775  1.5724  1.2011
12481TIP3   OH237387   6.015   6.841   5.259  0.8310  0.1528 -0.7094
12481TIP3    H137388   6.029   6.936   5.255 -0.3274  0.3818  0.2506
12481TIP3    H237389   5.960   6.821   5.183  0.5600  0.3579 -0.5698
12482TIP3   OH237390   6.064   6.157   5.924 -0.2003 -0.0048  0.1304
12482TIP3    H137391   6.132   6.173   5.858 -0.5385  0.8670 -0.0210
12482TIP3    H237392   6.004   6.231   5.914 -1.8188 -1.3740 -0.5481
12483TIP3   OH237393   3.704   1.461   0.269 -0.4541  0.6646  0.3850
12483TIP3    H137394   3.626   1.460   0.213 -0.0376  0.3956 -0.1917
12483TIP3    H237395   3.770   1.507   0.218 -0.2524  0.9618  0.9099
12484TIP3   OH237396   5.114   6.449   4.766 -0.1173 -0.1328  0.2103
12484TIP3    H137397   5.128   6.354   4.771  0.0712  0.0018  3.4136
12484TIP3    H237398   5.019   6.459   4.759 -0.2509 -0.5415  1.3542
12485TIP3   OH237399   3.717   6.706   5.254 -0.6425  0.1308  0.1421
12485TIP3    H137400   3.799   6.660   5.272 -0.3107  0.9275  0.6372
12485TIP3    H237401   3.704   6.695   5.159 -0.5777 -0.9925  0.2509
12486TIP3   OH237402   4.269   7.119   6.026 -0.0133  0.3161  0.4420
12486TIP3    H137403   4.178   7.108   6.053 -0.1595  1.9068  0.6760
12486TIP3    H237404   4.318   7.057   6.080 -1.1008 -1.5787 -0.6910
12487TIP3   OH237405   7.392   5.192   5.145 -0.2588 -0.5725  0.8889
12487TIP3    H137406   7.361   5.262   5.087  0.3632 -0.6160  0.5000
12487TIP3    H237407   7.342   5.115   5.120  0.1667 -0.6439  0.2539
12488TIP3   OH237408   7.951   5.541   4.877  0.2313  0.2191  0.2615
12488TIP3    H137409   7.914   5.559   4.791  1.1183  0.4733 -0.0610
12488TIP3    H237410   7.919   5.453   4.898  0.6975 -0.1756 -0.6824
12489TIP3   OH237411   5.171   7.185   5.461  0.5312 -0.1241  0.3538
12489TIP3    H137412   5.226   7.156   5.388  2.7091  1.0798  1.4724
12489TIP3    H237413   5.177   7.114   5.525  0.7476  0.0007  0.4698
12490TIP3   OH237414   0.191   0.715   3.883  0.8374 -0.3016  0.3167
12490TIP3    H137415   0.207   0.808   3.897 -0.2699 -0.3644  2.2472
12490TIP3    H237416   0.163   0.682   3.969  0.7420 -2.3087 -0.4439
12491TIP3   OH237417   3.443   7.415   5.773  0.1656 -0.4384  0.6202
12491TIP3    H137418   3.465   7.480   5.706  1.1648 -1.4358 -0.0557
12491TIP3    H237419   3.512   7.425   5.839  0.9437 -1.5027 -0.0052
12492TIP3   OH237420   6.101   7.334   4.907 -0.4969 -0.0933 -0.0843
12492TIP3    H137421   6.170   7.297   4.852 -0.3209 -0.0905  0.1348
12492TIP3    H237422   6.076   7.415   4.862 -0.1770  0.0394 -0.0262
12493TIP3   OH237423   6.084   6.328   5.550 -0.1535  0.3321 -0.6548
12493TIP3    H137424   6.140   6.391   5.505 -2.0567  1.3442 -1.6797
12493TIP3    H237425   6.142   6.283   5.611  1.1695  3.4379  0.4724
12494TIP3   OH237426   5.420   7.178   5.802  0.0345  0.3718  0.5149
12494TIP3    H137427   5.494   7.144   5.752 -0.1854 -0.5595  0.8080
12494TIP3    H237428   5.431   7.273   5.800 -0.1729  0.3662 -1.6054
12495TIP3   OH237429   5.481   6.922   3.998 -0.4970 -0.4399  0.4992
12495TIP3    H137430   5.526   6.853   3.950 -0.3896  0.1313 -0.2308
12495TIP3    H237431   5.551   6.971   4.041 -0.5620 -0.6846  0.8900
12496TIP3   OH237432   0.443   1.489   4.246 -0.0457 -0.4970 -0.1248
12496TIP3    H137433   0.365   1.488   4.301 -0.8358 -0.7042 -1.2247
12496TIP3    H237434   0.451   1.400   4.213 -0.2334 -0.1204 -1.2241
12497TIP3   OH237435   6.065   7.014   4.476  0.8150 -0.0339  0.3991
12497TIP3    H137436   6.079   6.920   4.482 -1.4163 -0.7002 -3.1975
12497TIP3    H237437   6.153   7.051   4.471  1.6930 -2.3438 -2.6109
12498TIP3   OH237438   7.120   5.781   5.808  0.0467 -0.8627 -0.2734
12498TIP3    H137439   7.051   5.843   5.783 -1.3091 -2.4307 -0.4798
12498TIP3    H237440   7.149   5.812   5.893  0.7361  1.1885 -1.2168
12499TIP3   OH237441   6.102   6.702   6.444  0.2100 -0.2885 -0.1830
12499TIP3    H137442   6.010   6.719   6.423  0.1808 -0.0216  0.1641
12499TIP3    H237443   6.101   6.624   6.499  0.3101 -1.1767 -1.4005
12500TIP3   OH237444   5.736   5.708   6.038  0.5450 -0.2974 -0.0984
12500TIP3    H137445   5.789   5.773   5.993 -0.9996  2.3602  1.7644
12500TIP3    H237446   5.777   5.698   6.123  0.0992 -0.8927  0.0496
12501TIP3   OH237447   2.094   3.128   0.200  0.2317  0.0466 -0.0489
12501TIP3    H137448   2.074   3.217   0.228 -1.9452 -0.6552  0.7568
12501TIP3    H237449   2.027   3.108   0.135  1.2933 -0.6721 -0.9370
12502TIP3   OH237450   6.682   7.172   4.749  0.4493 -0.2510  0.0317
12502TIP3    H137451   6.714   7.119   4.676 -1.4727 -1.3355 -0.0465
12502TIP3    H237452   6.658   7.256   4.708  0.5372 -0.4220 -0.3747
12503TIP3   OH237453   8.044   0.411   5.170  0.0390 -0.1469  0.2975
12503TIP3    H137454   8.044   0.394   5.076  0.0439 -0.6159  0.3811
12503TIP3    H237455   8.117   0.472   5.184  0.0481 -0.0917  0.0004
12504TIP3   OH237456   5.069   6.442   6.092 -0.6140 -0.5012  0.0280
12504TIP3    H137457   5.048   6.529   6.060  0.6868  0.6495  2.1890
12504TIP3    H237458   5.004   6.424   6.160 -0.1181 -0.6930  0.4571
12505TIP3   OH237459   4.721   6.531   3.282 -0.0730 -0.0647 -0.0527
12505TIP3    H137460   4.738   6.482   3.362 -1.0348 -0.2451  0.0505
12505TIP3    H237461   4.708   6.621   3.311  3.4667  0.6379 -0.4218
12506TIP3   OH237462   0.308   0.232   4.506 -0.0186  0.2625  0.0146
12506TIP3    H137463   0.396   0.211   4.474 -0.7674 -1.5358 -0.8919
12506TIP3    H237464   0.302   0.186   4.590  0.7434  2.3227  1.2479
12507TIP3   OH237465   5.998   7.519   2.981  0.6012 -0.2066 -0.5629
12507TIP3    H137466   6.041   7.467   3.050 -1.2918 -0.9081  0.1164
12507TIP3    H237467   5.957   7.592   3.027 -0.6345 -0.6515 -0.9380
12508TIP3   OH237468   8.462   0.063   2.630  0.1731  0.0942  0.1885
12508TIP3    H137469   8.414   0.070   2.712  1.6524  1.8489  0.9375
12508TIP3    H237470   8.395   0.047   2.564 -1.3283  1.3830  1.3727
12509TIP3   OH237471   8.453   0.589   5.775  0.4209 -0.5472 -0.1570
12509TIP3    H137472   8.517   0.518   5.766  1.0991 -0.1776  1.6251
12509TIP3    H237473   8.384   0.553   5.829 -0.0027 -0.3496 -0.5620
12510TIP3   OH237474   5.907   5.994   6.566  0.1699 -0.3901 -0.4714
12510TIP3    H137475   5.970   5.924   6.552 -1.2523 -1.6157 -0.8694
12510TIP3    H237476   5.895   6.033   6.479  0.3063 -0.2058 -0.4090
12511TIP3   OH237477   5.447   6.969   4.687  0.0867  0.1142  0.0116
12511TIP3    H137478   5.381   6.954   4.755  0.1446  0.9704  0.2632
12511TIP3    H237479   5.530   6.972   4.734  0.4157 -1.8911 -0.4231
12512TIP3   OH237480   3.116   7.066   2.998 -0.2532 -0.0616  0.4366
12512TIP3    H137481   3.171   7.144   2.994  1.0912 -0.9535  1.0905
12512TIP3    H237482   3.079   7.067   3.086  1.1156 -1.0368  1.0452
12513TIP3   OH237483   8.332   3.406   0.446 -0.1759 -0.2543 -0.2418
12513TIP3    H137484   8.371   3.338   0.502 -0.4160 -1.6573 -1.7402
12513TIP3    H237485   8.277   3.358   0.385 -0.8350  1.3637 -0.9496
12514TIP3   OH237486   3.924   7.637   4.838  0.1206 -0.4724 -0.1690
12514TIP3    H137487   3.974   7.684   4.905  0.1785 -0.9040  0.0938
12514TIP3    H237488   3.852   7.695   4.817  0.1263 -0.3154  0.2427
12515TIP3   OH237489   3.991   1.916   0.709 -0.2878 -0.2106 -0.2238
12515TIP3    H137490   3.946   1.859   0.647 -1.6632 -0.0334  0.5806
12515TIP3    H237491   3.928   1.987   0.726  0.6753  0.5547  0.1917
12516TIP3   OH237492   6.464   6.693   6.233 -0.1999 -0.3199 -0.3663
12516TIP3    H137493   6.447   6.613   6.184 -1.0272 -1.4120  1.6091
12516TIP3    H237494   6.481   6.759   6.167  1.7781 -2.3952 -2.0138
12517TIP3   OH237495   7.538   1.512   4.202  0.1434 -0.8092  0.2609
12517TIP3    H137496   7.456   1.467   4.224 -0.5769  0.3642  0.0058
12517TIP3    H237497   7.579   1.529   4.286 -1.6529  1.8826  0.6412
12518TIP3   OH237498   5.307   7.209   3.267 -0.1470  0.2026  0.0508
12518TIP3    H137499   5.271   7.295   3.244  0.6690  0.6107  0.3073
12518TIP3    H237500   5.402   7.220   3.263 -0.0274 -1.0280 -1.1953
12519TIP3   OH237501   6.554   0.422   2.984  0.1943  0.3315  0.3714
12519TIP3    H137502   6.506   0.430   2.902  0.1812 -0.1376  0.3324
12519TIP3    H237503   6.487   0.427   3.052 -0.3829 -3.9414  0.2259
12520TIP3   OH237504   6.095   6.904   5.874  0.2905  0.6826 -0.4435
12520TIP3    H137505   6.049   6.950   5.804 -0.0091  0.7255 -0.2152
12520TIP3    H237506   6.119   6.973   5.936  1.7144  0.8406 -1.1445
12521TIP3   OH237507   6.483   5.509   5.247  0.3158 -0.4084  0.3293
12521TIP3    H137508   6.424   5.436   5.229  1.5080 -1.7126  1.5817
12521TIP3    H237509   6.520   5.490   5.333  1.2833  1.2576  0.3173
12522TIP3   OH237510   6.468   6.358   5.781 -0.3331 -0.3205  0.1135
12522TIP3    H137511   6.512   6.278   5.810  1.6234  0.8832  0.5246
12522TIP3    H237512   6.465   6.350   5.686 -1.8249 -1.7090  0.2350
12523TIP3   OH237513   5.291   6.689   4.127 -0.2225  0.1995  0.2833
12523TIP3    H137514   5.342   6.623   4.174 -0.9128 -0.0573  0.6729
12523TIP3    H237515   5.356   6.756   4.102  0.4487 -0.5392  0.0279
12524TIP3   OH237516   6.458   7.898   5.335 -0.4018 -0.5106 -0.6386
12524TIP3    H137517   6.535   7.948   5.362 -0.8325  0.7767 -1.7198
12524TIP3    H237518   6.491   7.836   5.270  0.0969 -1.5095  0.5426
12525TIP3   OH237519   6.375   7.026   5.176 -0.4946 -0.2762  0.3334
12525TIP3    H137520   6.309   6.962   5.199 -1.2357  0.8333  1.3702
12525TIP3    H237521   6.405   7.000   5.089 -1.6616 -1.2906  0.2257
12526TIP3   OH237522   8.360  -0.021   5.425 -0.8921  0.0502  0.2558
12526TIP3    H137523   8.331  -0.049   5.338 -0.1575  0.2103 -0.0363
12526TIP3    H237524   8.374   0.073   5.417  4.2697 -0.6788 -0.9090
12527TIP3   OH237525   6.602   5.356   6.254  0.2295  0.5040 -0.2254
12527TIP3    H137526   6.533   5.333   6.316 -0.7047 -0.2780 -1.5202
12527TIP3    H237527   6.556   5.367   6.170  1.9395 -2.1232 -1.5906
12528TIP3   OH237528   5.374   6.466   5.653  0.2688  0.2517  0.0222
12528TIP3    H137529   5.375   6.523   5.576  2.8995  0.0274 -0.1276
12528TIP3    H237530   5.343   6.381   5.620  1.5966  0.0932 -0.8362
12529TIP3   OH237531   3.867   6.493   3.716  0.6065  0.2453  0.5619
12529TIP3    H137532   3.782   6.475   3.676 -0.0735 -0.6458  2.3926
12529TIP3    H237533   3.912   6.408   3.717  1.0171  0.4611  0.7762
12530TIP3   OH237534   6.732   0.010   4.927  0.2401 -0.2783  0.4453
12530TIP3    H137535   6.684  -0.056   4.877 -1.7672  1.1171  0.4525
12530TIP3    H237536   6.663   0.066   4.964  1.9041  2.0475  0.1001
12531TIP3   OH237537   4.611   6.142   6.188  0.7939 -1.1586  0.1713
12531TIP3    H137538   4.585   6.211   6.127 -0.3678  0.0544  1.9944
12531TIP3    H237539   4.693   6.108   6.153 -0.6861 -1.6208 -2.9642
12532TIP3   OH237540   7.008   3.990   6.238  0.1175  0.2348  0.0712
12532TIP3    H137541   6.920   3.956   6.254  0.4344 -0.3478  0.5987
12532TIP3    H237542   7.000   4.084   6.252 -0.5167  0.2376 -0.2931
12533TIP3   OH237543   5.602   5.527   4.111 -0.0409  0.1497 -0.5605
12533TIP3    H137544   5.549   5.453   4.083 -1.3107  0.7553  0.1541
12533TIP3    H237545   5.678   5.488   4.154 -0.8026 -0.7477 -0.0092
12534TIP3   OH237546   3.806   7.278   3.709 -0.1792 -0.3933  0.5637
12534TIP3    H137547   3.779   7.369   3.711  0.0305 -0.2522 -1.6535
12534TIP3    H237548   3.829   7.262   3.617 -0.8164 -2.8302  0.7941
12535TIP3   OH237549   6.533   4.569   4.954 -0.3170 -0.1907  0.2991
12535TIP3    H137550   6.613   4.533   4.915 -1.5945 -2.0308 -0.6934
12535TIP3    H237551   6.462   4.534   4.899 -2.0430 -1.3360  3.1409
12536TIP3   OH237552   7.593   5.670   4.523  0.2073  0.1817 -0.4913
12536TIP3    H137553   7.590   5.750   4.472 -1.4773  0.1521 -0.4692
12536TIP3    H237554   7.537   5.687   4.599  0.6748 -0.6405  0.0514
12537TIP3   OH237555   5.322   6.465   5.919  0.4974  0.1695  0.5283
12537TIP3    H137556   5.335   6.461   5.825 -0.4582 -1.2377  0.4491
12537TIP3    H237557   5.228   6.454   5.931  0.5768  0.5946  1.6392
12538TIP3   OH237558   7.320   6.820   3.511 -0.2893  0.5133  0.0086
12538TIP3    H137559   7.300   6.912   3.501 -2.8118 -0.1416 -1.2913
12538TIP3    H237560   7.331   6.787   3.422  2.2597 -0.1383  0.5025
12539TIP3   OH237561   6.381   7.220   5.411  0.4606  0.0629 -0.3221
12539TIP3    H137562   6.326   7.290   5.377 -1.3747 -0.4039  1.5794
12539TIP3    H237563   6.421   7.181   5.333  0.0889  2.0234 -1.5326
12540TIP3   OH237564   6.406   6.239   4.983  0.2357  0.2536 -0.1755
12540TIP3    H137565   6.441   6.328   4.983  1.6244 -0.2670  0.7301
12540TIP3    H237566   6.447   6.197   4.908  0.2010  0.1519 -0.1378
12541TIP3   OH237567   4.181   6.275   6.865  0.3504 -0.1288 -0.0595
12541TIP3    H137568   4.201   6.307   6.777  0.4869  1.6759  0.6215
12541TIP3    H237569   4.131   6.346   6.906  1.2575 -0.4964  1.7182
12542TIP3   OH237570   2.650   0.875   0.204 -0.3682 -0.1022 -0.0401
12542TIP3    H137571   2.662   0.813   0.132  2.1168  0.1186  0.1513
12542TIP3    H237572   2.610   0.823   0.274 -1.2222 -0.7125 -0.9618
12543TIP3   OH237573   7.096  -0.003   3.997  0.0966 -0.7370 -0.1628
12543TIP3    H137574   7.146  -0.072   4.042  1.0439 -0.4359 -0.7261
12543TIP3    H237575   7.118   0.077   4.044 -1.4374 -0.8971  0.8356
12544TIP3   OH237576   6.298   7.227   4.138 -0.4273 -0.1312  0.0700
12544TIP3    H137577   6.324   7.309   4.096  0.9601 -0.1733  0.8057
12544TIP3    H237578   6.308   7.161   4.069  0.2417  0.0496 -0.0142
12545TIP3   OH237579   3.972   6.551   5.309 -0.1830 -0.4635  0.2134
12545TIP3    H137580   3.995   6.485   5.374  0.9237 -0.4352 -0.1244
12545TIP3    H237581   4.041   6.617   5.317  0.2909 -0.7345 -1.3673
12546TIP3   OH237582   5.478   7.123   4.459  0.1840 -0.1669  0.1706
12546TIP3    H137583   5.555   7.179   4.467  0.5416 -0.7799  1.1754
12546TIP3    H237584   5.483   7.064   4.535 -1.2722 -0.2116  0.2646
12547TIP3   OH237585   4.611   6.969   3.825 -0.3697 -0.3282 -0.8499
12547TIP3    H137586   4.686   6.953   3.883 -2.1773  1.9137  2.2789
12547TIP3    H237587   4.569   6.884   3.816  0.3140 -0.8392  0.6458
12548TIP3   OH237588   3.587   0.680   0.223 -0.5155 -0.2009  0.4664
12548TIP3    H137589   3.538   0.599   0.211 -1.0966  0.4375 -1.7280
12548TIP3    H237590   3.674   0.661   0.187 -1.1655  0.6392 -1.5946
12549TIP3   OH237591   4.778   5.920   4.329 -0.3318 -0.0721 -0.7120
12549TIP3    H137592   4.836   5.857   4.372  0.8248  0.0720 -2.0066
12549TIP3    H237593   4.809   6.005   4.357  1.3848  0.0834 -2.9239
12550TIP3   OH237594   7.470   6.627   2.965 -0.1835  0.5402  0.2169
12550TIP3    H137595   7.427   6.703   3.002  0.8230  1.1344  0.1809
12550TIP3    H237596   7.563   6.649   2.965 -0.0414  0.0364 -1.4729
12551TIP3   OH237597   5.572   7.075   6.803 -0.4136  0.1651 -0.3379
12551TIP3    H137598   5.592   7.168   6.813  0.5399 -0.1666  0.8829
12551TIP3    H237599   5.639   7.042   6.744 -0.3773  0.1146 -0.2674
12552TIP3   OH237600   3.131   1.723   0.786  0.3322 -0.2935 -0.0044
12552TIP3    H137601   3.049   1.701   0.741  0.1432  0.3621  0.0230
12552TIP3    H237602   3.130   1.818   0.794  0.8181 -0.3299  0.5359
12553TIP3   OH237603   4.169   6.484   5.542 -0.1911 -0.1971  0.4511
12553TIP3    H137604   4.158   6.579   5.546  1.7194  0.0532  0.0767
12553TIP3    H237605   4.084   6.449   5.569 -0.3281  1.5900  2.4734
12554TIP3   OH237606   6.601   6.920   6.594  0.0958 -0.6213 -0.5610
12554TIP3    H137607   6.521   6.945   6.639 -0.1129 -1.2479 -0.5921
12554TIP3    H237608   6.662   6.897   6.664 -0.7723 -3.2657 -0.6494
12555TIP3   OH237609   6.249   7.963   5.683  0.0636  0.1308  0.4189
12555TIP3    H137610   6.208   8.019   5.749 -0.6902  0.9577 -0.7292
12555TIP3    H237611   6.178   7.906   5.653 -0.0015  0.8562 -0.8251
12556TIP3   OH237612   7.636   6.382   2.733  0.0298  0.1652  0.2690
12556TIP3    H137613   7.592   6.390   2.817  0.3662  1.6809  0.3132
12556TIP3    H237614   7.727   6.406   2.751  0.2184 -0.0159 -0.4187
12557TIP3   OH237615   8.237   1.850   4.301 -0.8183  0.2707  0.0166
12557TIP3    H137616   8.193   1.934   4.318 -0.2953  0.5872 -0.1691
12557TIP3    H237617   8.175   1.801   4.247 -0.5254  1.1218 -1.1278
12558TIP3   OH237618   5.492   6.508   4.242  0.0585  0.0276 -0.0339
12558TIP3    H137619   5.570   6.563   4.246  0.2205 -0.2582  0.9056
12558TIP3    H237620   5.517   6.435   4.186  0.1843  0.3799 -0.4360
12559TIP3   OH237621   7.299   6.759   3.250 -0.1230  0.3821  0.2523
12559TIP3    H137622   7.366   6.759   3.182 -1.2359 -0.0075 -0.8692
12559TIP3    H237623   7.222   6.796   3.207 -0.5861  0.9753  1.5680
12560TIP3   OH237624   7.201   6.528   4.203 -0.0683  0.0407 -0.7278
12560TIP3    H137625   7.259   6.580   4.147  0.9303 -0.6747 -0.3750
12560TIP3    H237626   7.233   6.439   4.194 -0.4053 -0.1971  0.3584
12561TIP3   OH237627   5.436   0.941   4.175 -0.1254  0.4026 -0.1070
12561TIP3    H137628   5.472   0.940   4.264 -0.6823 -0.1565  0.1160
12561TIP3    H237629   5.470   1.021   4.136 -0.5480  1.0621  0.8822
12562TIP3   OH237630   1.343   0.148   6.714 -0.1559 -0.2930  0.3771
12562TIP3    H137631   1.373   0.128   6.803  1.6077  0.4250 -0.0238
12562TIP3    H237632   1.280   0.219   6.726  1.7580  1.3700  0.9034
12563TIP3   OH237633   7.457   7.361   4.902  0.2157  0.1971 -0.3294
12563TIP3    H137634   7.520   7.404   4.844 -0.3555  2.1357  0.4426
12563TIP3    H237635   7.512   7.313   4.965  0.9195  1.0404 -0.2851
12564TIP3   OH237636   1.997   1.131   5.220 -0.0441 -0.7085  0.1357
12564TIP3    H137637   1.975   1.208   5.273  0.6471 -1.8038  2.0909
12564TIP3    H237638   1.921   1.119   5.163  0.8517  2.7957 -1.8981
12565TIP3   OH237639   7.582   6.759   3.481 -0.0022 -0.9095 -0.0894
12565TIP3    H137640   7.606   6.747   3.389  1.4864  1.0908 -0.0036
12565TIP3    H237641   7.490   6.784   3.479  0.3998  0.5601 -1.1755
12566TIP3   OH237642   1.744   3.039   0.173  1.0259  0.2440  0.1112
12566TIP3    H137643   1.714   3.122   0.138 -0.0555  0.7004  2.0293
12566TIP3    H237644   1.733   2.977   0.101 -2.4681  0.8613  0.0509
12567TIP3   OH237645   5.245   7.286   4.414  0.1554  0.0262 -0.5029
12567TIP3    H137646   5.167   7.236   4.389 -1.0065  1.3571  0.4090
12567TIP3    H237647   5.308   7.220   4.441 -1.2127 -0.9882  0.2709
12568TIP3   OH237648   5.383   6.943   3.585  0.0821  0.5496  0.3314
12568TIP3    H137649   5.460   6.891   3.610 -0.6501 -0.0945  1.2926
12568TIP3    H237650   5.343   6.893   3.515 -1.2159 -0.7830  1.9681
12569TIP3   OH237651   0.732   0.294   5.469 -0.0660 -0.2468 -0.3533
12569TIP3    H137652   0.752   0.367   5.527 -2.7267  1.0657 -0.9973
12569TIP3    H237653   0.777   0.219   5.507  0.7264  1.2329  1.6716
12570TIP3   OH237654   5.480   7.512   3.128  0.1455 -0.3098  0.0088
12570TIP3    H137655   5.394   7.470   3.131  0.1862 -0.3530  0.6513
12570TIP3    H237656   5.475   7.582   3.194 -0.1286  1.0946 -1.4697
12571TIP3   OH237657   3.094   7.745   5.464  0.1147  0.2698  0.4643
12571TIP3    H137658   3.077   7.666   5.412  0.6724  0.0499  0.6210
12571TIP3    H237659   3.063   7.723   5.552  2.0836 -0.4653  0.9776
12572TIP3   OH237660   7.411   5.475   6.739 -0.1177  0.6373  0.2835
12572TIP3    H137661   7.493   5.452   6.694  0.1949 -0.2836  1.3022
12572TIP3    H237662   7.362   5.393   6.744 -0.9055  1.0940  0.0779
12573TIP3   OH237663   6.146   7.452   4.506  0.4236 -0.2268  0.3969
12573TIP3    H137664   6.111   7.478   4.420  0.2180 -0.4118  0.4269
12573TIP3    H237665   6.168   7.359   4.496 -0.7426 -0.5673  0.9193
12574TIP3   OH237666   6.080   7.674   5.076 -0.1764  0.2355  0.2322
12574TIP3    H137667   6.084   7.738   5.005 -0.5350  1.0789  0.9435
12574TIP3    H237668   6.171   7.649   5.092  0.2623  2.5982  1.7049
12575TIP3   OH237669   5.629   5.797   4.374  0.4358  0.0129 -0.4942
12575TIP3    H137670   5.697   5.743   4.414 -0.5390 -1.7910 -1.2370
12575TIP3    H237671   5.564   5.734   4.343 -0.2480  1.5752 -2.2602
12576TIP3   OH237672   6.304   7.479   4.056  0.0587  0.5167  0.5011
12576TIP3    H137673   6.374   7.524   4.104 -0.4434  1.4335  0.3961
12576TIP3    H237674   6.241   7.549   4.037  0.5865  0.3136 -2.1356
12577TIP3   OH237675   6.649   6.109   5.829  0.2967 -0.2682  0.1866
12577TIP3    H137676   6.733   6.112   5.783 -0.7208  1.2553 -1.6572
12577TIP3    H237677   6.615   6.022   5.811  1.2398 -0.7196  0.5369
12578TIP3   OH237678   5.031   6.543   5.794 -0.1407  0.1356 -0.0622
12578TIP3    H137679   5.020   6.557   5.700 -0.0644  2.6426  0.2553
12578TIP3    H237680   4.945   6.514   5.824 -0.9090  1.8158 -0.5394
12579TIP3   OH237681   6.225   4.724   3.889 -0.8388 -0.4084  0.7976
12579TIP3    H137682   6.130   4.731   3.900 -0.8084 -2.5877  2.7686
12579TIP3    H237683   6.258   4.710   3.978  1.5026  1.8278  0.3383
12580TIP3   OH237684   2.264   4.148   2.064 -0.2268  0.3159 -0.0049
12580TIP3    H137685   2.267   4.054   2.082  1.4270  0.6538  1.6477
12580TIP3    H237686   2.206   4.183   2.132  2.0228  0.9372  1.6445
12581TIP3   OH237687   6.872   7.688   5.108 -0.2557 -0.7780 -0.3941
12581TIP3    H137688   6.934   7.672   5.037 -1.8739  0.8533 -2.2338
12581TIP3    H237689   6.845   7.601   5.136  1.2370 -1.4676 -1.0125
12582TIP3   OH237690   5.616   6.042   4.719 -0.2917  0.2346  0.2987
12582TIP3    H137691   5.703   6.070   4.747  0.1927 -1.1279  0.2109
12582TIP3    H237692   5.622   6.042   4.623  0.2784 -1.8039  0.3057
12583TIP3   OH237693   2.308   1.698   0.969  0.4003 -0.6614  0.3681
12583TIP3    H137694   2.331   1.733   0.883  2.2594 -0.0758  1.0697
12583TIP3    H237695   2.223   1.738   0.989 -0.3856 -1.3453 -1.4791
12584TIP3   OH237696   0.144   1.011   3.921 -0.1276 -0.0318  0.3345
12584TIP3    H137697   0.232   1.039   3.896 -0.1555  0.7056  1.0479
12584TIP3    H237698   0.120   1.068   3.993 -0.6748 -1.1004  1.0121
12585TIP3   OH237699   3.842   2.702   0.786  0.2883  0.4845 -0.3355
12585TIP3    H137700   3.765   2.699   0.730 -0.1844 -1.2617  0.3739
12585TIP3    H237701   3.904   2.758   0.739 -0.8991  0.8042 -1.5467
12586TIP3   OH237702   4.677   5.274   3.535  0.8476 -0.5909 -0.1585
12586TIP3    H137703   4.746   5.329   3.570 -0.0245  1.1484 -1.1223
12586TIP3    H237704   4.596   5.312   3.569  0.2612 -1.6855 -0.2844
12587TIP3   OH237705   2.881   3.820   0.387  0.2358  0.0965 -0.3104
12587TIP3    H137706   2.851   3.819   0.296 -1.3117 -1.6679  0.1866
12587TIP3    H237707   2.835   3.893   0.428 -0.2766 -0.0754 -0.5743
12588TIP3   OH237708   3.853   3.011   1.484 -0.9012 -0.5493 -1.0283
12588TIP3    H137709   3.843   2.944   1.417 -0.5405  0.5605 -2.2187
12588TIP3    H237710   3.942   3.000   1.518 -1.1437 -1.2193 -0.5990
12589TIP3   OH237711   6.431   5.656   3.420 -0.6788  0.5731 -0.4610
12589TIP3    H137712   6.493   5.698   3.360  1.1076 -0.1350  0.8571
12589TIP3    H237713   6.439   5.706   3.501 -0.5906 -0.5535  0.2366
12590TIP3   OH237714   5.878   6.126   5.559 -0.9232  0.6768 -0.0240
12590TIP3    H137715   5.892   6.146   5.467 -1.2031  0.3092 -0.1443
12590TIP3    H237716   5.925   6.196   5.606  0.2697  0.1540 -0.4328
12591TIP3   OH237717   6.435   6.727   4.688 -0.8773  0.0405 -0.5554
12591TIP3    H137718   6.511   6.727   4.745 -1.5004  2.0023  0.3092
12591TIP3    H237719   6.463   6.677   4.611  0.5589 -1.0716  0.6478
12592TIP3   OH237720   7.234   1.026   3.150 -0.5814 -0.7685 -0.4919
12592TIP3    H137721   7.294   0.978   3.095 -3.2094 -1.9561 -2.4049
12592TIP3    H237722   7.230   0.976   3.232  0.3075 -1.1817 -0.7060
12593TIP3   OH237723   5.335   6.791   4.465  0.1096  0.2865 -0.5174
12593TIP3    H137724   5.366   6.848   4.535 -2.0069  0.7344  0.1059
12593TIP3    H237725   5.332   6.847   4.387  0.9928  0.1922 -0.6235
12594TIP3   OH237726   3.306   1.917   0.445 -0.4638  0.0821 -0.0226
12594TIP3    H137727   3.216   1.932   0.416 -0.7849  0.5186  1.1380
12594TIP3    H237728   3.343   1.857   0.381 -1.6951 -0.3547 -0.3355
12595TIP3   OH237729   7.682   0.002   5.377  0.1809  0.5615  0.0203
12595TIP3    H137730   7.606   0.059   5.380 -0.6838 -0.4777 -1.6625
12595TIP3    H237731   7.739   0.041   5.311 -0.0245 -0.0278 -0.5109
12596TIP3   OH237732   4.985   5.797   4.479  0.1194  0.2565  0.0748
12596TIP3    H137733   5.031   5.858   4.537  1.6771 -1.5323  0.7841
12596TIP3    H237734   4.965   5.722   4.535  0.0059 -0.7248 -1.2807
12597TIP3   OH237735   5.681   6.379   4.982  0.0121 -0.2456  0.4149
12597TIP3    H137736   5.671   6.378   4.887  1.3499  2.1282  0.2114
12597TIP3    H237737   5.730   6.299   5.002  1.5225  0.2655 -1.1242
12598TIP3   OH237738   4.258   6.989   5.481  0.0395  0.5544  0.6150
12598TIP3    H137739   4.235   6.915   5.537  0.9399 -1.8793 -2.0443
12598TIP3    H237740   4.354   6.994   5.487  0.0118  1.2145  0.4820
12599TIP3   OH237741   6.696   6.810   3.593  0.7618 -0.7726 -0.1305
12599TIP3    H137742   6.655   6.823   3.508  1.3805  1.1505 -0.1568
12599TIP3    H237743   6.653   6.873   3.650  1.9453 -0.4797  0.4408
12600TIP3   OH237744   5.277   7.574   5.660  0.4048  0.3567 -0.1267
12600TIP3    H137745   5.198   7.548   5.613 -0.9814  0.8546  1.9222
12600TIP3    H237746   5.308   7.652   5.613 -0.6428  0.5236 -0.5489
12601TIP3   OH237747   3.603   6.890   5.006  0.2486 -0.3853 -0.1622
12601TIP3    H137748   3.586   6.796   5.009  0.8685 -0.4885  0.1361
12601TIP3    H237749   3.655   6.903   4.927  0.2187 -0.2992 -0.1683
12602TIP3   OH237750   3.725   2.172   1.032  0.2285  0.5629 -0.0913
12602TIP3    H137751   3.785   2.185   0.959  0.1762  2.2945  0.1537
12602TIP3    H237752   3.658   2.112   0.998  1.1837 -0.0599 -0.8866
12603TIP3   OH237753   7.399   5.907   5.489 -0.9063 -0.0743  0.0137
12603TIP3    H137754   7.339   5.981   5.491 -1.3809 -0.4643  0.2123
12603TIP3    H237755   7.348   5.834   5.523 -0.8311 -0.7955 -1.4186
12604TIP3   OH237756   2.869   7.284   4.596 -0.2896 -0.4320 -0.3808
12604TIP3    H137757   2.907   7.201   4.569 -1.3584 -1.0494 -0.0321
12604TIP3    H237758   2.836   7.324   4.515  0.2445 -0.3279 -0.5500
12605TIP3   OH237759   5.639   6.908   3.368 -0.4947  0.1346  0.3424
12605TIP3    H137760   5.598   6.842   3.312 -0.7441 -0.5955  1.3694
12605TIP3    H237761   5.724   6.871   3.390  0.4627  1.3730 -1.2803
12606TIP3   OH237762   1.561   2.703   1.629 -0.3504 -0.1083  0.6230
12606TIP3    H137763   1.494   2.722   1.563  0.2907 -1.3657 -0.4090
12606TIP3    H237764   1.511   2.679   1.707 -1.1170  0.5102  0.3333
12607TIP3   OH237765   1.505   2.172   0.248  0.1938 -0.3291  0.6928
12607TIP3    H137766   1.503   2.107   0.177 -1.6029  1.3567 -0.8458
12607TIP3    H237767   1.597   2.174   0.275  0.6080 -2.2259 -0.4320
12608TIP3   OH237768   6.965   7.660   0.666 -0.0707  0.1355  0.2153
12608TIP3    H137769   6.932   7.749   0.669  1.0632  0.6038 -0.7986
12608TIP3    H237770   7.056   7.668   0.635  0.0559 -1.3503  0.1238
12609TIP3   OH237771   6.522   5.802   4.452  0.0420 -0.6526  0.2949
12609TIP3    H137772   6.595   5.756   4.410  0.1810  0.9233 -1.2474
12609TIP3    H237773   6.447   5.743   4.443  0.9671 -2.0554  1.4228
12610TIP3   OH237774   4.551   6.418   4.665 -0.1371  0.4236  0.2012
12610TIP3    H137775   4.525   6.343   4.610 -1.0449  0.9956 -0.1566
12610TIP3    H237776   4.533   6.495   4.611 -0.7815  0.9792  1.1895
12611TIP3   OH237777   2.742   3.873   0.933 -0.6986 -0.3451 -0.2761
12611TIP3    H137778   2.708   3.962   0.926 -0.2756 -0.0327  1.6338
12611TIP3    H237779   2.683   3.822   0.877 -0.8629  1.1283 -1.5008
12612TIP3   OH237780   2.012   1.815   0.809  0.1623 -0.0176 -0.1183
12612TIP3    H137781   2.026   1.906   0.785  2.5343  0.1676  1.7626
12612TIP3    H237782   1.918   1.801   0.797 -0.4232  2.9807  0.5866
12613TIP3   OH237783   2.613   2.228   2.608  0.7502 -0.3784  0.1697
12613TIP3    H137784   2.607   2.181   2.524 -0.1126  1.7335 -0.9947
12613TIP3    H237785   2.705   2.217   2.634  0.8673 -1.6562 -0.6986
12614TIP3   OH237786   6.720   6.891   5.325 -0.1046 -0.1063 -0.1707
12614TIP3    H137787   6.739   6.850   5.410 -2.5339 -0.6236  0.1679
12614TIP3    H237788   6.667   6.968   5.346 -1.4032 -0.6721 -1.2275
12615TIP3   OH237789   0.029   1.263   4.913  0.1439 -0.1876  0.2461
12615TIP3    H137790   0.020   1.358   4.912  1.6862 -0.0289  0.0442
12615TIP3    H237791   0.055   1.242   5.003 -0.0340 -0.4008  0.2475
12616TIP3   OH237792   0.664   2.506   0.150 -0.7252 -0.1919 -0.4377
12616TIP3    H137793   0.604   2.436   0.178 -0.2034  0.2126  1.7559
12616TIP3    H237794   0.740   2.459   0.116 -0.2048 -0.7375  1.4035
12617TIP3   OH237795   4.613   5.168   3.154 -0.4051 -0.6890  0.3347
12617TIP3    H137796   4.537   5.110   3.143  0.7040 -1.7549 -1.9583
12617TIP3    H237797   4.683   5.125   3.105  0.6052  2.3187 -0.9543
12618TIP3   OH237798   5.379   6.311   2.602 -0.2541  0.6385  0.3326
12618TIP3    H137799   5.436   6.331   2.527 -1.4785  1.3236 -0.4226
12618TIP3    H237800   5.297   6.284   2.562 -1.2790  2.0661  1.4528
12619TIP3   OH237801   0.172   0.318   3.893  0.3330  0.4181 -0.3744
12619TIP3    H137802   0.264   0.314   3.867  0.5008  0.4752  0.2028
12619TIP3    H237803   0.152   0.229   3.923  0.2820  0.4874 -0.2078
12620TIP3   OH237804   7.273   7.848   4.875 -0.2387 -0.3065 -0.0064
12620TIP3    H137805   7.355   7.839   4.923 -0.3009  0.2577  0.2126
12620TIP3    H237806   7.299   7.859   4.784 -0.0488  0.3447  0.1223
12621TIP3   OH237807   6.864   7.194   2.551 -0.2723 -0.5145 -0.0457
12621TIP3    H137808   6.943   7.155   2.515 -0.2702 -0.5443 -0.0077
12621TIP3    H237809   6.868   7.176   2.645  0.1087  0.2352  0.0848
12622TIP3   OH237810   2.941   2.819   0.088  0.1865  0.6461 -0.6152
12622TIP3    H137811   2.935   2.765   0.167 -0.4199  0.5807 -0.7018
12622TIP3    H237812   2.850   2.841   0.068  0.1902 -0.7306 -2.2407
12623TIP3   OH237813   3.278   5.526   0.093 -0.2604 -0.2043 -0.4150
12623TIP3    H137814   3.268   5.440   0.135  1.2589 -0.5824 -0.8192
12623TIP3    H237815   3.370   5.530   0.067  0.1910  2.3877  1.3858
12624TIP3   OH237816   1.005   0.862   3.775 -0.0086 -0.1372  0.1251
12624TIP3    H137817   1.056   0.853   3.856 -0.3328 -1.1850  0.2092
12624TIP3    H237818   1.071   0.886   3.709  0.2694  0.6385  0.6714
12625TIP3   OH237819   7.414   6.721   4.481 -0.8328 -0.1397  0.4032
12625TIP3    H137820   7.383   6.802   4.521 -2.2771 -0.3694 -0.2229
12625TIP3    H237821   7.460   6.749   4.402  2.4591  0.3499  2.3878
12626TIP3   OH237822   5.086   7.014   3.591 -0.1438 -0.1097  0.1156
12626TIP3    H137823   5.171   6.974   3.608 -0.0640 -0.3597 -0.8418
12626TIP3    H237824   5.102   7.108   3.598  0.2002 -0.1576 -0.0199
12627TIP3   OH237825   8.168   0.378   4.675 -0.7598  0.1126 -0.3850
12627TIP3    H137826   8.249   0.429   4.667 -0.5218 -0.3874 -1.1848
12627TIP3    H237827   8.172   0.315   4.604 -2.1695  0.5135 -0.8389
12628TIP3   OH237828   4.223   7.582   3.957  0.0227 -0.0499 -0.4548
12628TIP3    H137829   4.190   7.635   4.029  1.1532  2.4846 -1.7573
12628TIP3    H237830   4.252   7.500   3.998 -2.6721 -0.1253  1.4405
12629TIP3   OH237831   8.219   0.353   3.136 -0.1378  0.2520 -0.1776
12629TIP3    H137832   8.153   0.375   3.071 -0.5971  0.0757  0.2271
12629TIP3    H237833   8.290   0.416   3.121 -0.8429  1.1137  0.0702
12630TIP3   OH237834   5.951   6.462   5.182  0.2574  0.3485 -0.3985
12630TIP3    H137835   5.869   6.423   5.214  0.3946  0.0617 -0.3948
12630TIP3    H237836   5.931   6.490   5.093  0.4697 -0.6948 -0.7780
12631TIP3   OH237837   5.614   6.458   5.997 -0.4198 -0.3960  0.3427
12631TIP3    H137838   5.522   6.433   5.989  0.2451 -2.6270 -0.7463
12631TIP3    H237839   5.627   6.525   5.931 -0.6837 -1.8861 -1.2585
12632TIP3   OH237840   3.446   6.613   4.109 -0.2552 -0.2234  0.1065
12632TIP3    H137841   3.402   6.548   4.164  2.4051 -1.3990  0.8959
12632TIP3    H237842   3.467   6.565   4.029 -1.0535  0.5294 -0.5490
12633TIP3   OH237843   5.459   6.073   5.795  0.1793 -0.3851  0.3556
12633TIP3    H137844   5.538   6.122   5.772 -0.0925 -0.1571 -0.1117
12633TIP3    H237845   5.389   6.116   5.746  0.1027 -1.9160 -0.9214
12634TIP3   OH237846   3.721   0.004   4.432  0.1106  0.2343  0.4261
12634TIP3    H137847   3.628   0.001   4.410  0.7266 -0.8998 -2.2206
12634TIP3    H237848   3.723   0.007   4.527 -2.6831  3.0967  0.4918
12635TIP3   OH237849   0.465   3.612   0.643 -0.6719  0.2958 -0.6547
12635TIP3    H137850   0.421   3.607   0.558 -0.7060 -1.8220 -0.5416
12635TIP3    H237851   0.396   3.593   0.707 -0.9179  3.0888 -0.0414
12636TIP3   OH237852   7.675   6.124   4.361  0.3683 -0.3006 -0.3948
12636TIP3    H137853   7.679   6.132   4.456  1.5206  1.8831 -0.5951
12636TIP3    H237854   7.760   6.157   4.331  0.2978 -1.6334 -2.1543
12637TIP3   OH237855   2.212   1.743   0.507  0.1159  0.7632 -0.1001
12637TIP3    H137856   2.167   1.822   0.475  1.3413  0.8100 -1.8129
12637TIP3    H237857   2.158   1.671   0.475  0.9361  0.8340 -1.7154
12638TIP3   OH237858   3.304   4.564   5.307 -0.4556 -0.0012 -0.2388
12638TIP3    H137859   3.244   4.614   5.362  1.3633  0.9289  0.9328
12638TIP3    H237860   3.253   4.544   5.229 -2.2697  0.8269  0.7023
12639TIP3   OH237861   7.567   2.834   4.137 -0.1769  0.4017 -0.1106
12639TIP3    H137862   7.614   2.752   4.126 -0.4343  0.1266  0.8215
12639TIP3    H237863   7.564   2.872   4.049  0.8034 -0.1128 -0.3707
12640TIP3   OH237864   4.215   6.115   4.035  0.0188  0.4970 -0.3163
12640TIP3    H137865   4.249   6.060   4.105  0.9641  0.2199 -0.9942
12640TIP3    H237866   4.249   6.202   4.055  0.7381  0.3128 -0.7295
12641TIP3   OH237867   6.037   7.957   2.667 -0.4868  0.0331  0.0259
12641TIP3    H137868   5.965   7.949   2.730 -0.5676 -1.0461 -0.1917
12641TIP3    H237869   6.091   8.028   2.701 -1.3301  0.4584  0.5125
12642TIP3   OH237870   1.537   0.192   0.874 -0.1203 -0.5474 -0.1478
12642TIP3    H137871   1.616   0.216   0.825  0.3409 -0.9833  0.3844
12642TIP3    H237872   1.494   0.127   0.818 -0.4296  0.1441 -0.7281
12643TIP3   OH237873   1.137   3.859   1.043 -0.5649  0.1683 -0.3944
12643TIP3    H137874   1.148   3.845   1.137 -4.3454  0.6139  0.1968
12643TIP3    H237875   1.192   3.935   1.024  4.6392 -3.1936  0.2337
12644TIP3   OH237876   4.702   7.396   6.366 -0.0223 -0.4982 -0.4138
12644TIP3    H137877   4.792   7.364   6.361  0.6593  1.0533  1.1143
12644TIP3    H237878   4.700   7.470   6.305 -0.6190 -1.2770 -1.3536
12645TIP3   OH237879   6.690   7.815   4.874 -0.2547 -0.5621 -0.3118
12645TIP3    H137880   6.692   7.898   4.827  0.9322 -0.5422 -0.2341
12645TIP3    H237881   6.781   7.787   4.879 -0.3471 -0.5824  1.9305
12646TIP3   OH237882   8.302   7.533   4.619 -0.1268 -0.1609  0.0182
12646TIP3    H137883   8.341   7.493   4.541 -1.3167  0.7026 -1.0389
12646TIP3    H237884   8.213   7.498   4.622 -0.0868 -0.1841  0.9916
12647TIP3   OH237885   3.201   2.039   1.152  0.2906  0.6750 -0.0584
12647TIP3    H137886   3.238   1.967   1.204  0.6112  1.6933  1.1531
12647TIP3    H237887   3.107   2.030   1.162  0.3184  0.2350 -0.1781
12648TIP3   OH237888   3.695   1.965   0.327 -0.5037  0.6543  0.4290
12648TIP3    H137889   3.647   1.882   0.323 -0.4327  0.6042  0.6206
12648TIP3    H237890   3.669   2.004   0.410  0.4778  0.1985  0.9688
12649TIP3   OH237891   6.517   6.540   6.778 -0.5495  0.2388 -0.3578
12649TIP3    H137892   6.567   6.526   6.698 -0.9569  1.6083 -0.8730
12649TIP3    H237893   6.536   6.463   6.832  2.5927  0.9899 -0.2906
12650TIP3   OH237894   1.580   1.248   6.019 -0.0314  0.2780  0.2040
12650TIP3    H137895   1.532   1.214   5.944  0.6898  1.2764 -0.7344
12650TIP3    H237896   1.671   1.220   6.004  0.2920  1.3096  0.1875
12651TIP3   OH237897   4.716   6.721   6.286 -0.1085 -0.6403 -0.2201
12651TIP3    H137898   4.687   6.719   6.377  0.8380  0.0218  0.1106
12651TIP3    H237899   4.738   6.630   6.266  1.6378 -0.4982  0.8872
12652TIP3   OH237900   6.500   7.091   4.456 -0.3582  0.0155 -0.3888
12652TIP3    H137901   6.521   7.031   4.384 -1.3696  0.7952 -1.3697
12652TIP3    H237902   6.585   7.119   4.490  0.2459  1.8204 -3.1492
12653TIP3   OH237903   5.722   7.400   5.938 -0.3694  0.3494  0.1606
12653TIP3    H137904   5.800   7.425   5.888 -0.0079  0.7272  0.9049
12653TIP3    H237905   5.649   7.412   5.877  0.4262 -2.9248 -1.5512
12654TIP3   OH237906   0.989   2.480   6.608 -0.5151 -0.3109  0.2285
12654TIP3    H137907   1.062   2.450   6.662  1.0323  1.0858 -1.0286
12654TIP3    H237908   0.971   2.569   6.639 -0.5595 -0.0279 -0.6140
12655TIP3   OH237909   5.290   5.706   6.676 -0.1587  0.5735 -0.5243
12655TIP3    H137910   5.330   5.771   6.619  0.4366  0.5655 -0.1165
12655TIP3    H237911   5.249   5.643   6.617  0.9640  0.2436 -0.9455
12656TIP3   OH237912   7.622   6.212   3.488 -0.3978 -0.0872  0.4574
12656TIP3    H137913   7.585   6.125   3.502 -1.7004  0.6191  1.6328
12656TIP3    H237914   7.705   6.197   3.445  0.8021 -2.1023  3.3289
12657TIP3   OH237915   6.379   5.243   5.647 -0.4592 -0.1953  0.3984
12657TIP3    H137916   6.296   5.231   5.602  0.7162 -1.3239 -1.5530
12657TIP3    H237917   6.388   5.166   5.703  0.0384 -0.8772 -0.6263
12658TIP3   OH237918   5.836   4.915   5.019  0.0511  0.3442 -0.2748
12658TIP3    H137919   5.811   5.007   5.026  0.3085  0.3842  0.2255
12658TIP3    H237920   5.788   4.872   5.090 -0.4671  0.0006 -0.8302
12659TIP3   OH237921   4.833   6.421   6.274 -0.1904 -0.2573  0.0954
12659TIP3    H137922   4.797   6.337   6.302 -2.0791  0.0966 -1.2467
12659TIP3    H237923   4.890   6.447   6.347 -1.0342 -1.8036  1.3488
12660TIP3   OH237924   6.693   4.011   3.459 -0.0843 -0.2632 -0.5505
12660TIP3    H137925   6.629   3.956   3.505  1.5819 -0.9604  0.9534
12660TIP3    H237926   6.650   4.031   3.376 -1.9090 -1.4505  0.0616
12661TIP3   OH237927   5.885   5.942   5.154  0.6363  0.1738  1.2589
12661TIP3    H137928   5.871   5.957   5.247 -1.2759 -1.1939  1.2281
12661TIP3    H237929   5.806   5.897   5.125  1.6709 -0.3885 -0.7943
12662TIP3   OH237930   4.787   6.453   4.439 -0.1797 -0.1501  0.1690
12662TIP3    H137931   4.766   6.379   4.381  0.2433 -0.6266  0.6283
12662TIP3    H237932   4.879   6.471   4.422 -0.7189  1.4564 -1.2804
12663TIP3   OH237933   3.848   4.817   3.316 -0.0734 -0.5170  0.5479
12663TIP3    H137934   3.833   4.912   3.314 -0.9095 -0.6665 -1.2255
12663TIP3    H237935   3.939   4.808   3.345 -0.0406  0.8280  0.8927
12664TIP3   OH237936   6.211   4.141   5.312  0.0820 -0.2611 -0.4960
12664TIP3    H137937   6.300   4.170   5.292  0.0030  0.0183 -0.4390
12664TIP3    H237938   6.157   4.218   5.299  0.2036  0.3113  2.1329
12665TIP3   OH237939   7.089   5.170   6.056 -0.6217 -0.2071  0.1880
12665TIP3    H137940   7.133   5.204   6.134 -1.9490 -0.8685  1.2544
12665TIP3    H237941   6.996   5.188   6.072 -0.7733  1.0994 -1.9797
12666TIP3   OH237942   8.275   1.766   2.549  0.1811 -0.9041  0.3729
12666TIP3    H137943   8.252   1.681   2.512 -1.4093 -0.9381  1.3950
12666TIP3    H237944   8.369   1.760   2.567  0.9577 -0.9876 -3.3211
12667TIP3   OH237945   6.499   0.228   1.969  0.5274 -0.6064 -0.1776
12667TIP3    H137946   6.592   0.208   1.979  0.8515  0.4738 -0.8958
12667TIP3    H237947   6.486   0.308   2.020  0.3877  0.2309 -1.4889
12668TIP3   OH237948   6.436   7.286   6.367  0.0561 -0.5875 -0.0270
12668TIP3    H137949   6.436   7.190   6.365 -0.7805 -0.5843 -0.3503
12668TIP3    H237950   6.403   7.308   6.455 -0.5736 -0.5961 -0.2583
12669TIP3   OH237951   2.617   2.882   1.893 -0.2556 -0.5536  0.0939
12669TIP3    H137952   2.622   2.861   1.800  1.2159  0.4054 -0.0471
12669TIP3    H237953   2.586   2.973   1.896  0.0109 -0.4771  0.5439
12670TIP3   OH237954   5.383   6.969   5.993 -0.7213  0.1466  0.4240
12670TIP3    H137955   5.395   7.029   5.919  2.9315  1.8940  2.2990
12670TIP3    H237956   5.362   6.885   5.952  1.6588  0.9593 -2.6352
12671TIP3   OH237957   2.651   2.373   0.952  0.0179 -0.3379 -0.7360
12671TIP3    H137958   2.626   2.296   1.002  0.1033 -0.3040 -0.6405
12671TIP3    H237959   2.734   2.349   0.910 -0.5053 -0.6907 -1.5925
12672TIP3   OH237960   7.731   7.872   4.486 -0.7222  0.8829  0.5832
12672TIP3    H137961   7.821   7.858   4.516 -0.7254  0.9115  0.6051
12672TIP3    H237962   7.690   7.923   4.555 -0.2582  2.3772 -0.2216
12673TIP3   OH237963   7.335   6.658   3.990  0.1938 -0.1320 -0.4869
12673TIP3    H137964   7.299   6.632   3.905  0.6424 -1.6875 -0.2084
12673TIP3    H237965   7.415   6.606   4.000 -1.1743 -1.8966  2.0029
12674TIP3   OH237966   6.568   7.758   5.130 -0.3979 -0.2672  0.1379
12674TIP3    H137967   6.619   7.683   5.162 -1.8081 -2.0463 -1.6507
12674TIP3    H237968   6.616   7.788   5.053 -0.2413  0.1996  0.4168
12675TIP3   OH237969   0.867   2.289   5.185 -0.6238  0.1145  0.4089
12675TIP3    H137970   0.835   2.379   5.189 -2.2856 -0.4770  1.0387
12675TIP3    H237971   0.816   2.243   5.252 -0.1859 -1.4225 -0.2957
12676TIP3   OH237972   6.487   7.481   4.845 -0.0103  0.4889  0.5697
12676TIP3    H137973   6.461   7.391   4.826 -0.0927  0.2162  1.8855
12676TIP3    H237974   6.567   7.472   4.897  1.2303  1.2490 -1.1647
12677TIP3   OH237975   6.772   6.737   5.583 -0.1422  0.5140 -0.7151
12677TIP3    H137976   6.785   6.771   5.671  1.3401 -1.7529 -0.0251
12677TIP3    H237977   6.859   6.708   5.555 -1.1341 -1.6520 -1.7071
12678TIP3   OH237978   0.697   1.252   4.718 -0.2473  0.0379  0.1281
12678TIP3    H137979   0.662   1.317   4.778  0.1792 -1.0394  1.5748
12678TIP3    H237980   0.642   1.258   4.640 -1.1703  1.0362  0.8530
12679TIP3   OH237981   6.377   7.054   3.924  0.1472  0.5853  0.5036
12679TIP3    H137982   6.379   6.960   3.943 -0.3726  0.7884  1.6097
12679TIP3    H237983   6.294   7.068   3.877  0.4045  0.4295  0.0039
12680TIP3   OH237984   6.725   6.465   4.689  0.6493 -0.1592 -0.0537
12680TIP3    H137985   6.665   6.482   4.616  0.5079  0.2885  0.1680
12680TIP3    H237986   6.689   6.386   4.731 -0.0120  0.3178  0.3042
12681TIP3   OH237987   7.731   5.472   3.709  0.0085  0.2275  0.1215
12681TIP3    H137988   7.667   5.400   3.707 -0.1359  0.2930  1.8815
12681TIP3    H237989   7.802   5.440   3.765 -0.3302  1.6663  1.4028
12682TIP3   OH237990   7.131   6.023   4.690 -0.4739 -0.0765 -0.4922
12682TIP3    H137991   7.226   6.028   4.699 -0.5421  0.7694 -0.1802
12682TIP3    H237992   7.109   6.096   4.632 -1.0622  0.5365  0.4856
12683TIP3   OH237993   6.780   7.057   4.497 -0.1946 -0.2647  0.4498
12683TIP3    H137994   6.787   6.965   4.520  1.3009 -0.3605 -0.3346
12683TIP3    H237995   6.850   7.071   4.433 -0.8764  1.2355  0.0100
12684TIP3   OH237996   6.828   5.253   3.606  0.2575 -0.2502 -0.0110
12684TIP3    H137997   6.767   5.324   3.625  0.5289  0.3175 -1.2513
12684TIP3    H237998   6.797   5.180   3.660 -0.3429  0.6281  0.8632
12685TIP3   OH237999   7.385   6.959   4.654 -0.3996  0.3534  0.2836
12685TIP3    H138000   7.383   6.993   4.564  0.9254  1.2917  0.5865
12685TIP3    H238001   7.396   7.037   4.709 -1.2046 -0.2136  1.2691
12686TIP3   OH238002   8.308   0.606   5.294  0.1607 -0.4518  0.0834
12686TIP3    H138003   8.287   0.530   5.348  0.7134 -0.3619  0.4224
12686TIP3    H238004   8.389   0.641   5.331 -0.8414  1.1357  0.8129
12687TIP3   OH238005   1.225   5.243   4.516  0.0234  0.1991 -0.4782
12687TIP3    H138006   1.190   5.163   4.477  1.2374 -0.2338 -0.7014
12687TIP3    H238007   1.154   5.307   4.507 -1.2247 -1.0399  0.3625
12688TIP3   OH238008   8.180   6.439   2.818 -0.4257  0.0164  0.6202
12688TIP3    H138009   8.202   6.531   2.805  0.0172 -0.1720  0.0020
12688TIP3    H238010   8.247   6.391   2.768 -2.2173 -0.5624 -1.2933
12689TIP3   OH238011   0.566   0.341   4.088 -0.0984 -0.0053  0.1271
12689TIP3    H138012   0.618   0.288   4.027 -0.3464 -0.8471  0.6486
12689TIP3    H238013   0.526   0.278   4.148 -1.0950  0.7026  0.2225
12690TIP3   OH238014   6.105   7.249   3.419  0.1504 -0.6946 -0.1352
12690TIP3    H138015   6.114   7.160   3.452 -0.5569 -1.5119 -2.0611
12690TIP3    H238016   6.014   7.272   3.433  0.0315 -0.7584 -0.7560
12691TIP3   OH238017   4.985   7.663   5.261 -0.5822 -0.0024 -0.4077
12691TIP3    H138018   4.917   7.595   5.267  0.5617 -1.1007  0.2807
12691TIP3    H238019   5.048   7.628   5.199  0.1788  0.2849  0.1985
12692TIP3   OH238020   6.984   7.193   2.239  0.8959 -1.2344  0.7459
12692TIP3    H138021   6.916   7.208   2.173 -0.2186 -1.6163  1.7850
12692TIP3    H238022   6.973   7.264   2.301  2.4890 -0.3987  0.0969
12693TIP3   OH238023   5.939   6.987   3.988 -0.9523  0.0273 -0.0379
12693TIP3    H138024   5.951   7.046   4.062 -1.9610 -0.3206  0.4117
12693TIP3    H238025   6.006   7.013   3.925 -0.3813  0.6210  0.8099
12694TIP3   OH238026   7.929   5.957   3.793  0.6625 -0.1735 -0.6903
12694TIP3    H138027   7.921   6.049   3.770  1.7261 -0.2204 -1.2802
12694TIP3    H238028   7.914   5.954   3.888 -1.1572  0.3583 -0.9405
12695TIP3   OH238029   6.962   7.471   4.326 -0.1097 -0.0619  0.7438
12695TIP3    H138030   6.915   7.510   4.400 -0.3215  0.2139  0.4644
12695TIP3    H238031   6.978   7.380   4.353  0.6587  0.2968  1.5286
12696TIP3   OH238032   7.625   7.921   3.418 -0.4442 -0.1870  0.4508
12696TIP3    H138033   7.534   7.892   3.422 -0.5215 -0.0587 -0.3709
12696TIP3    H238034   7.636   7.975   3.496 -0.9283 -0.6146  0.8182
12697TIP3   OH238035   0.361   0.670   2.656  0.0678  0.7284 -0.0545
12697TIP3    H138036   0.374   0.739   2.721  1.2540  0.2395  0.2460
12697TIP3    H238037   0.435   0.611   2.669  1.5344  1.7876 -3.3608
12698TIP3   OH238038   5.735   6.610   4.253 -0.0684  0.1085 -0.2514
12698TIP3    H138039   5.783   6.657   4.185  1.2614 -0.2748  0.4016
12698TIP3    H238040   5.787   6.531   4.269  1.1448  1.4653  3.1054
12699TIP3   OH238041   7.199   7.087   3.550 -0.3860  0.4437 -0.4104
12699TIP3    H138042   7.265   7.152   3.574  0.8441 -0.8535 -0.1757
12699TIP3    H238043   7.137   7.089   3.623 -0.4997  1.5174 -0.5248
12700TIP3   OH238044   7.378   6.259   4.505  0.4323 -0.0608 -0.4259
12700TIP3    H138045   7.447   6.234   4.566  0.5646 -0.9685 -0.9407
12700TIP3    H238046   7.346   6.343   4.538  0.8233 -0.3174  0.6133
12701TIP3   OH238047   1.141   0.206   5.709 -0.3901  0.5145  0.2081
12701TIP3    H138048   1.225   0.252   5.716 -1.5915  2.8524 -0.3707
12701TIP3    H238049   1.126   0.170   5.797  1.0181  0.3900  0.4119
12702TIP3   OH238050   4.197   1.281   0.490 -0.1475 -0.1921 -0.3484
12702TIP3    H138051   4.229   1.284   0.399 -0.4606 -0.7850 -0.4851
12702TIP3    H238052   4.265   1.323   0.541 -0.1155  0.4387 -0.9039
12703TIP3   OH238053   6.968   7.130   4.009  0.5341 -0.4567  0.0623
12703TIP3    H138054   6.917   7.075   4.068 -0.0036 -1.7322 -1.5596
12703TIP3    H238055   6.935   7.219   4.024 -0.4211 -0.9347  0.8076
12704TIP3   OH238056   5.731   6.384   5.380  0.3404  0.3049 -0.0215
12704TIP3    H138057   5.675   6.456   5.350 -2.0096 -1.4071  0.1751
12704TIP3    H238058   5.747   6.403   5.472  1.1552  1.4606 -0.3830
12705TIP3   OH238059   0.181   0.790   5.665  0.4238 -0.3051 -0.2173
12705TIP3    H138060   0.178   0.850   5.590  0.4560 -0.6795 -0.5247
12705TIP3    H238061   0.101   0.739   5.658 -0.0892  0.3791  0.6179
12706TIP3   OH238062   0.838   6.149   5.808  0.0522 -0.2661 -0.1624
12706TIP3    H138063   0.816   6.083   5.743  0.4851 -0.0566 -0.5278
12706TIP3    H238064   0.910   6.199   5.768 -0.7096  0.8407 -0.1703
12707TIP3   OH238065   2.418   2.540   4.061  0.0535  0.0588 -0.3417
12707TIP3    H138066   2.355   2.562   3.992  0.2681  0.2968 -0.4645
12707TIP3    H238067   2.480   2.481   4.018 -0.1308 -0.2349 -0.2011
12708TIP3   OH238068   7.806   5.299   4.502 -0.0459 -0.1387 -0.2624
12708TIP3    H138069   7.766   5.226   4.550  1.3174  0.3112  1.5950
12708TIP3    H238070   7.877   5.259   4.453  1.7452  0.1614  2.0335
12709TIP3   OH238071   5.974   7.102   4.251  0.1565 -0.3223  0.0902
12709TIP3    H138072   5.991   7.068   4.339  0.5529 -0.0183  0.1318
12709TIP3    H238073   6.039   7.170   4.238  1.9331 -2.2491 -1.5124
12710TIP3   OH238074   5.251   6.040   3.974 -0.3998 -0.3062 -0.2326
12710TIP3    H138075   5.280   5.975   4.038 -0.2787 -1.8453 -1.8196
12710TIP3    H238076   5.279   6.005   3.889 -4.2596 -0.3801 -1.5780
12711TIP3   OH238077   2.457   2.420   1.465 -0.2678  0.3792  0.6032
12711TIP3    H138078   2.365   2.444   1.473 -0.1862  0.8231  0.2033
12711TIP3    H238079   2.494   2.439   1.551 -0.5886  0.0382  0.8161
12712TIP3   OH238080   7.845   6.227   3.725  0.3406 -0.3681  0.2162
12712TIP3    H138081   7.842   6.320   3.746  0.3196 -0.4597  0.6299
12712TIP3    H238082   7.882   6.223   3.637 -0.7781  0.0962 -0.2743
12713TIP3   OH238083   0.116   0.737   4.700  0.4063  0.6520  0.1598
12713TIP3    H138084   0.083   0.817   4.659  1.4572  1.5170  0.9765
12713TIP3    H238085   0.041   0.677   4.700 -0.6875  1.9973  0.4649
12714TIP3   OH238086   6.303   7.459   1.838 -0.1842 -0.2081  0.8605
12714TIP3    H138087   6.263   7.450   1.925 -0.1113 -0.3160  0.8825
12714TIP3    H238088   6.229   7.476   1.780 -0.0268  1.9220  1.2383
12715TIP3   OH238089   4.760   7.228   4.063 -0.3827 -0.5181  0.1068
12715TIP3    H138090   4.678   7.244   4.109 -0.2455  1.4943 -0.3331
12715TIP3    H238091   4.742   7.254   3.973  0.4133 -1.1394 -0.2400
12716TIP3   OH238092   6.430   7.505   3.798 -0.4577 -0.7054  0.0999
12716TIP3    H138093   6.389   7.505   3.885 -1.2835 -1.2119 -0.2841
12716TIP3    H238094   6.423   7.597   3.769 -0.7779 -0.6649  0.2975
12717TIP3   OH238095   0.189   6.730   5.041  0.3424  0.7155 -0.7381
12717TIP3    H138096   0.249   6.689   5.104 -1.7019 -0.9104  0.2344
12717TIP3    H238097   0.124   6.661   5.023 -1.5856  2.6335 -1.2618
12718TIP3   OH238098   7.574   5.884   4.321 -0.1840 -0.1141 -0.1141
12718TIP3    H138099   7.642   5.949   4.335 -0.7477  0.6038 -0.6856
12718TIP3    H238100   7.503   5.932   4.278 -1.3175 -0.6980  1.0774
12719TIP3   OH238101   6.175   5.813   2.237  0.4992 -0.4258 -0.1589
12719TIP3    H138102   6.210   5.731   2.203 -1.1532 -0.7274 -1.2070
12719TIP3    H238103   6.085   5.792   2.263  0.2714  0.8943  0.1729
12720TIP3   OH238104   7.599   5.012   2.863 -0.2466 -0.4793  0.0432
12720TIP3    H138105   7.633   5.004   2.952 -0.5020  0.0025  0.1846
12720TIP3    H238106   7.589   4.921   2.834  1.8060 -0.6291 -0.2621
12721TIP3   OH238107   0.525   6.531   3.669  0.7579 -0.9025 -0.1925
12721TIP3    H138108   0.516   6.571   3.756  0.6872 -1.0850 -0.1170
12721TIP3    H238109   0.592   6.584   3.625 -0.8900  0.6889 -0.8763
12722TIP3   OH238110   7.534   7.741   1.919 -1.0444 -0.1509 -0.0070
12722TIP3    H138111   7.484   7.664   1.890  0.7179 -0.7355 -1.6462
12722TIP3    H238112   7.601   7.752   1.851  0.7112  0.9234  1.8599
12723TIP3   OH238113   6.859   3.613   3.030  0.2574  0.0213 -0.0309
12723TIP3    H138114   6.790   3.550   3.010  0.2297  0.2226 -0.5725
12723TIP3    H238115   6.813   3.688   3.066  0.1176  0.4631 -1.1176
12724TIP3   OH238116   5.489   6.529   4.553 -0.1417  0.1665 -0.4563
12724TIP3    H138117   5.437   6.610   4.547 -0.4059 -0.1382 -2.6378
12724TIP3    H238118   5.449   6.470   4.489  0.1469 -1.6504  1.0036
12725TIP3   OH238119   8.320   7.906   2.481  0.9452 -0.8382 -0.1467
12725TIP3    H138120   8.238   7.869   2.513  1.7945 -3.8153 -1.1654
12725TIP3    H238121   8.294   7.979   2.425 -0.8288  0.1132  1.8332
12726TIP3   OH238122   4.448   6.429   2.472 -0.1120 -0.4548 -0.5559
12726TIP3    H138123   4.509   6.496   2.501 -0.4256 -0.2704 -0.3194
12726TIP3    H238124   4.454   6.360   2.538  0.6283 -0.9176 -1.0962
12727TIP3   OH238125   2.091   1.567   5.566  0.0825 -0.2786 -0.2615
12727TIP3    H138126   2.182   1.568   5.536 -0.0331  1.0949 -0.6200
12727TIP3    H238127   2.097   1.569   5.661  0.4329 -1.3712 -0.2542
12728TIP3   OH238128   0.717   5.994   3.480 -0.0918  0.2182  0.3482
12728TIP3    H138129   0.623   5.979   3.471  0.1668 -1.1866 -0.1485
12728TIP3    H238130   0.730   6.008   3.573 -0.7301 -0.1175  0.4948
12729TIP3   OH238131   8.221   0.367   5.483  0.1007 -0.1551 -0.3869
12729TIP3    H138132   8.134   0.333   5.504  0.4219 -0.5712  0.2828
12729TIP3    H238133   8.280   0.323   5.544  0.8674 -0.3278 -1.2300
12730TIP3   OH238134   2.516   0.120   3.594  0.2589  0.5658 -0.0510
12730TIP3    H138135   2.468   0.064   3.655  0.6552 -0.3389 -0.5482
12730TIP3    H238136   2.605   0.122   3.628  0.4706  0.0988 -0.5542
12731TIP3   OH238137   0.094   0.267   4.931 -0.2706  0.8002 -0.2122
12731TIP3    H138138   0.059   0.320   5.003  0.1699  1.0886 -0.2094
12731TIP3    H238139   0.182   0.300   4.917  0.4288 -0.7073  0.5530
12732TIP3   OH238140   4.990   5.821   3.502 -0.4779 -0.1012 -0.0376
12732TIP3    H138141   5.053   5.805   3.572 -1.9202  0.1271  1.3400
12732TIP3    H238142   5.033   5.885   3.445  0.9545 -0.7570  0.3022
12733TIP3   OH238143   8.432   5.932   4.218  0.1241 -0.0127 -0.2679
12733TIP3    H138144   8.382   5.850   4.221 -0.2355  0.2178  0.0180
12733TIP3    H238145   8.518   5.906   4.186 -0.1511 -0.4282 -0.6860
12734TIP3   OH238146   5.319   1.762   2.894 -0.1038  0.9324 -0.2453
12734TIP3    H138147   5.282   1.755   2.806 -0.2569  0.0190 -0.1091
12734TIP3    H238148   5.261   1.710   2.949  0.1733  1.2447  0.3397
12735TIP3   OH238149   7.426   7.541   3.512 -0.0581 -0.0895  0.0992
12735TIP3    H138150   7.517   7.563   3.492 -0.1047  1.0203  1.0968
12735TIP3    H238151   7.423   7.445   3.507  1.1582 -0.1258  0.0369
12736TIP3   OH238152   1.588   0.914   6.557 -0.1862 -0.0858 -0.4024
12736TIP3    H138153   1.564   1.005   6.541  1.5855  0.5624  0.4756
12736TIP3    H238154   1.682   0.910   6.536  0.1533 -1.2777  1.2505
12737TIP3   OH238155   1.505   0.339   4.772  0.2770  0.1756  0.6383
12737TIP3    H138156   1.455   0.372   4.697  0.8269  0.0010  0.1899
12737TIP3    H238157   1.443   0.341   4.845 -0.1660  0.6634  0.2532
12738TIP3   OH238158   0.996   0.175   4.498 -0.3816  0.3168 -0.2356
12738TIP3    H138159   0.972   0.177   4.406 -2.9567  0.5945  0.4208
12738TIP3    H238160   0.967   0.089   4.529 -1.1076  0.9054  0.7279
12739TIP3   OH238161   6.147   5.879   5.839 -0.2838  0.1378 -0.1911
12739TIP3    H138162   6.073   5.825   5.869 -0.2423 -0.7095 -1.5535
12739TIP3    H238163   6.132   5.964   5.880 -1.1612 -0.4829  0.8153
12740TIP3   OH238164   8.487   7.488   2.390 -0.1697  0.4502 -0.6294
12740TIP3    H138165   8.487   7.510   2.297 -0.3735 -1.7128 -1.1600
12740TIP3    H238166   8.395   7.477   2.412 -0.2314  2.3219  0.2011
12741TIP3   OH238167   7.677   6.269   5.576 -0.2843 -0.6861  0.2350
12741TIP3    H138168   7.652   6.309   5.492 -0.5546 -2.5491 -0.6006
12741TIP3    H238169   7.743   6.204   5.553 -1.9172 -2.7463  1.1445
12742TIP3   OH238170   6.754   7.928   3.652  0.4961  0.3875  0.4926
12742TIP3    H138171   6.677   7.933   3.709  0.4822  0.0967  0.5009
12742TIP3    H238172   6.719   7.913   3.565  0.5690 -0.3690  0.5915
12743TIP3   OH238173   6.168   7.649   3.400  0.2586  0.2377 -0.2823
12743TIP3    H138174   6.189   7.581   3.464 -0.2768 -0.3906 -0.7724
12743TIP3    H238175   6.215   7.624   3.321  1.0950  1.1340 -0.0778
12744TIP3   OH238176   6.904   7.319   3.586 -0.5766 -1.0942  0.6415
12744TIP3    H138177   6.884   7.242   3.638  1.6835 -2.1985 -0.0870
12744TIP3    H238178   6.998   7.316   3.572 -0.1871  2.6093  1.8602
12745TIP3   OH238179   7.524   6.405   3.162 -0.1002  0.3870 -0.1578
12745TIP3    H138180   7.617   6.401   3.183  0.2366  0.0200 -1.6915
12745TIP3    H238181   7.510   6.493   3.127 -0.1447  0.1422 -0.7626
12746TIP3   OH238182   6.435   6.463   3.642  0.5315  0.8756 -0.2113
12746TIP3    H138183   6.439   6.439   3.734  0.8794 -0.0817 -0.4645
12746TIP3    H238184   6.495   6.402   3.599 -1.7144 -0.5252 -1.4379
12747TIP3   OH238185   7.232   6.511   3.537  0.7153 -0.1466  0.2657
12747TIP3    H138186   7.320   6.476   3.518 -0.0860 -1.9273 -0.3095
12747TIP3    H238187   7.246   6.603   3.555  2.7230 -0.4132  0.1778
12748TIP3   OH238188   0.419   1.740   6.611 -0.5244  0.0715 -0.4926
12748TIP3    H138189   0.445   1.652   6.582 -0.7689 -0.6260  1.3983
12748TIP3    H238190   0.496   1.773   6.657 -1.3312 -0.1744  1.0538
12749TIP3   OH238191   8.028   6.815   3.417  0.3147 -0.4447  0.1299
12749TIP3    H138192   8.098   6.783   3.360  0.0690 -1.1872  0.2457
12749TIP3    H238193   8.069   6.886   3.467  0.5514  0.1764 -0.9222
12750TIP3   OH238194   6.921   6.593   4.939 -0.0719 -0.2015 -0.2105
12750TIP3    H138195   6.940   6.685   4.960  0.6688 -0.1994 -0.8748
12750TIP3    H238196   6.904   6.553   5.024  0.1475  0.4284  0.1396
12751TIP3   OH238197   5.694   7.146   5.633  0.5680  0.4028 -0.5612
12751TIP3    H138198   5.747   7.072   5.664 -0.0898  0.3008  0.3559
12751TIP3    H238199   5.754   7.221   5.635  0.6286  0.3439  0.7216
12752TIP3   OH238200   0.939   0.435   4.690  0.1103 -0.1243  0.1079
12752TIP3    H138201   0.896   0.390   4.763 -1.6010  1.4699  0.1255
12752TIP3    H238202   0.903   0.523   4.691  2.5589  0.9412 -0.6236
12753TIP3   OH238203   5.881   6.458   3.272 -0.4074 -0.5220 -0.0135
12753TIP3    H138204   5.857   6.368   3.295 -1.5730 -0.4495 -0.8707
12753TIP3    H238205   5.797   6.500   3.252  0.1373  0.7281  0.2834
12754TIP3   OH238206   8.269   1.006   3.560  0.1138  0.3983 -0.0450
12754TIP3    H138207   8.353   0.990   3.517  0.1544 -1.4408  0.7126
12754TIP3    H238208   8.204   1.002   3.489  0.5322  0.7360 -0.4509
12755TIP3   OH238209   6.057   6.931   6.604  0.2745 -0.0577  0.0558
12755TIP3    H138210   6.083   6.951   6.694  0.3857 -1.4127  0.3215
12755TIP3    H238211   6.118   6.863   6.575 -0.0422  0.0500 -0.8991
12756TIP3   OH238212   6.671   6.326   2.122  0.0317 -0.1316  0.9772
12756TIP3    H138213   6.684   6.414   2.158 -0.8874  1.4167 -2.3058
12756TIP3    H238214   6.756   6.283   2.132  0.7742  1.4639  1.6746
12757TIP3   OH238215   5.200   7.239   4.771  0.8027  0.3262  0.3938
12757TIP3    H138216   5.191   7.305   4.703  1.6903  0.6319  0.5648
12757TIP3    H238217   5.112   7.227   4.805  0.4389  0.5380 -0.4693
12758TIP3   OH238218   8.487   6.110   3.813  0.1357 -0.1814  0.3327
12758TIP3    H138219   8.501   6.167   3.738 -0.5617  1.4122  1.3979
12758TIP3    H238220   8.434   6.037   3.779 -0.8183  0.9151 -0.5647
12759TIP3   OH238221   8.207   4.535   5.780 -0.3165 -0.5753  0.2462
12759TIP3    H138222   8.157   4.542   5.698  0.0915 -0.3944  0.0129
12759TIP3    H238223   8.146   4.495   5.842 -0.9964  0.3417  0.1770
12760TIP3   OH238224   7.954   5.460   6.030 -0.0820 -0.4434 -0.6669
12760TIP3    H138225   7.860   5.459   6.048 -0.1166  1.2210 -0.6589
12760TIP3    H238226   7.967   5.537   5.973  1.3141 -0.4758 -0.4247
12761TIP3   OH238227   6.919   5.691   5.528 -0.0073 -0.5277 -0.2991
12761TIP3    H138228   6.957   5.714   5.444 -0.1060  0.8087  0.0056
12761TIP3    H238229   6.939   5.766   5.584 -1.3239 -0.7074  0.4232
12762TIP3   OH238230   7.889   0.163   1.923  0.5238 -0.0154  0.1442
12762TIP3    H138231   7.907   0.133   1.834  1.1086 -0.3351  0.3676
12762TIP3    H238232   7.794   0.180   1.924  0.7917  1.7035 -1.0522
12763TIP3   OH238233   7.854   6.537   2.797 -0.0917  0.4353  0.2581
12763TIP3    H138234   7.923   6.569   2.739 -0.4701 -2.0273 -1.6625
12763TIP3    H238235   7.900   6.477   2.856 -0.7372 -2.5925 -2.1562
12764TIP3   OH238236   5.014   6.075   3.743  0.3212  0.1330 -0.0449
12764TIP3    H138237   5.075   6.148   3.747  0.2350  0.1345  1.2713
12764TIP3    H238238   5.070   5.997   3.738  0.4143  0.2252 -0.4979
12765TIP3   OH238239   2.346   1.583   5.960 -0.0215  0.1461  0.2056
12765TIP3    H138240   2.297   1.653   6.004  0.2272  0.7352 -0.4546
12765TIP3    H238241   2.283   1.544   5.899  0.4212  1.1257 -0.8882
12766TIP3   OH238242   8.289   5.651   4.124  0.1686  0.5416  0.0611
12766TIP3    H138243   8.348   5.600   4.068  0.7574  1.7411 -0.4161
12766TIP3    H238244   8.307   5.620   4.213 -1.4750 -2.0966 -0.4561
12767TIP3   OH238245  -0.026   0.464   4.706 -0.3651  0.4620  0.1719
12767TIP3    H138246   0.033   0.434   4.775 -2.6124 -1.0542  1.5246
12767TIP3    H238247   0.026   0.462   4.626  1.2795 -1.1983  1.2608
12768TIP3   OH238248   8.107   0.159   5.925  0.1688  0.0808  0.0589
12768TIP3    H138249   8.052   0.106   5.868  1.2414  0.1081 -1.0290
12768TIP3    H238250   8.051   0.182   5.999 -0.6320 -1.6639  0.0194
12769TIP3   OH238251   7.834   5.760   3.623  0.0245 -1.0523  0.4763
12769TIP3    H138252   7.860   5.821   3.692 -1.4268  2.5167 -2.0196
12769TIP3    H238253   7.911   5.751   3.568 -0.2996 -0.0863 -0.1353
12770TIP3   OH238254   6.663   6.783   4.857  0.5789 -0.0733 -0.4092
12770TIP3    H138255   6.653   6.778   4.952 -0.3953 -2.6378 -0.6229
12770TIP3    H238256   6.755   6.762   4.841  1.2139  2.1814  0.0472
12771TIP3   OH238257   6.654   6.668   4.301 -0.3058 -0.3808  0.4245
12771TIP3    H138258   6.592   6.623   4.243  1.4196 -1.9391 -0.2647
12771TIP3    H238259   6.656   6.758   4.269  1.7755 -1.5527 -3.0284
12772TIP3   OH238260   7.166   6.386   3.271 -0.0727 -0.2360 -0.1278
12772TIP3    H138261   7.124   6.444   3.208 -0.4833  0.0210  0.3808
12772TIP3    H238262   7.195   6.444   3.342  1.1500 -0.4092 -0.4821
12773TIP3   OH238263   7.161   5.214   5.407 -0.0280  0.0510  0.1085
12773TIP3    H138264   7.129   5.217   5.317 -2.1725 -1.8297  0.7677
12773TIP3    H238265   7.082   5.212   5.461  1.2196  0.5676  2.0225
12774TIP3   OH238266   6.333   6.984   4.662  0.0950 -0.4029  0.0058
12774TIP3    H138267   6.356   6.891   4.665  0.9445 -0.2730 -2.0100
12774TIP3    H238268   6.388   7.020   4.593 -0.6339  1.5005  0.3983
12775TIP3   OH238269   6.305   6.013   4.391  0.2730 -0.2049  0.1459
12775TIP3    H138270   6.289   6.084   4.454 -0.1734  1.3801 -1.6903
12775TIP3    H238271   6.338   5.941   4.444  2.1149  1.8361  1.9171
12776TIP3   OH238272   7.078   6.746   4.356 -0.0699 -0.2900  0.2434
12776TIP3    H138273   7.141   6.677   4.336 -0.6545 -0.7781  0.1023
12776TIP3    H238274   7.045   6.724   4.443  1.7462  1.2978  1.3824
12777TIP3   OH238275   6.043   5.516   6.264  0.3527 -0.4393 -0.0079
12777TIP3    H138276   6.015   5.606   6.249  0.8620 -0.2596  0.1005
12777TIP3    H238277   5.962   5.466   6.271  0.0694  0.0058 -0.1041
12778TIP3   OH238278   5.685   6.664   5.133 -0.0908  0.5046 -0.2888
12778TIP3    H138279   5.657   6.744   5.087  0.8214 -0.0609 -1.8663
12778TIP3    H238280   5.716   6.606   5.063 -1.8621 -1.7046  0.7139
12779TIP3   OH238281   7.103   5.193   3.848  0.3541 -0.1866  0.5467
12779TIP3    H138282   7.067   5.282   3.849 -0.6329 -0.5438 -0.7249
12779TIP3    H238283   7.025   5.137   3.850  0.9472 -1.0044  0.5877
12780TIP3   OH238284   0.566   7.255   4.146  0.5696 -0.1952  0.3082
12780TIP3    H138285   0.487   7.204   4.163  1.0840 -0.8739  0.6966
12780TIP3    H238286   0.579   7.306   4.226  0.0096  0.6114 -0.1116
12781TIP3   OH238287   8.003   5.044   3.977  0.3147 -0.3979  0.4663
12781TIP3    H138288   8.059   5.112   4.013  0.1378  0.2219 -0.3938
12781TIP3    H238289   8.055   5.006   3.905  0.4168 -1.1753  0.9479
12782TIP3   OH238290   6.977   6.311   4.830  0.1813 -0.4014 -0.3357
12782TIP3    H138291   6.970   6.218   4.811  1.0061 -0.9861  2.0930
12782TIP3    H238292   7.060   6.321   4.876 -0.5131  1.3000  0.6299
12783TIP3   OH238293   7.454   4.964   3.557  0.2461 -0.3293  0.2863
12783TIP3    H138294   7.375   5.011   3.584 -0.1367 -1.9198  2.0873
12783TIP3    H238295   7.447   4.879   3.602  3.1570 -0.3369  0.7796
12784TIP3   OH238296   6.930   6.778   3.928 -0.6510  0.2834 -0.1278
12784TIP3    H138297   6.934   6.745   4.018 -0.2747  0.4557 -0.0781
12784TIP3    H238298   7.022   6.780   3.900 -0.8349 -0.6309 -0.8304
12785TIP3   OH238299   7.964   5.799   4.604  0.1948  0.7652  0.0895
12785TIP3    H138300   7.919   5.717   4.623 -2.4655  1.4524 -2.8199
12785TIP3    H238301   7.917   5.865   4.654 -0.0094  1.0174 -0.4259
12786TIP3   OH238302   0.993   0.798   4.467  0.0594 -0.0942  0.2098
12786TIP3    H138303   1.073   0.791   4.520  0.2954  1.1946  0.0417
12786TIP3    H238304   0.998   0.885   4.428 -2.4910  0.8781  1.9003
12787TIP3   OH238305   5.062   6.006   3.244  0.5529 -0.1808 -0.6675
12787TIP3    H138306   5.157   6.002   3.251  0.6182  0.3735 -1.2272
12787TIP3    H238307   5.039   6.092   3.278 -0.1686 -2.0029  3.9195
12788TIP3   OH238308   6.331   7.246   4.748 -0.1856  0.3650 -0.1184
12788TIP3    H138309   6.356   7.157   4.775 -2.7602  0.3237  2.3236
12788TIP3    H238310   6.296   7.234   4.660 -0.4687 -1.0645  0.1632
12789TIP3   OH238311   0.959   0.850   2.273 -0.2435  0.5334 -0.2014
12789TIP3    H138312   0.993   0.774   2.226 -2.6562 -1.4150  1.0112
12789TIP3    H238313   0.941   0.817   2.361  0.6319  3.0944  0.9806
12790TIP3   OH238314   4.821   7.442   6.771  0.2111 -0.3467 -0.1388
12790TIP3    H138315   4.746   7.395   6.736  2.2416 -2.0183 -2.3683
12790TIP3    H238316   4.807   7.440   6.866 -1.8727 -1.7819 -0.4253
12791TIP3   OH238317   1.961   2.477   0.018  0.1331  0.7566 -0.2526
12791TIP3    H138318   1.938   2.447   0.106  2.0766  2.6961  0.9757
12791TIP3    H238319   2.046   2.436   0.001  1.4588  3.1511  0.2860
12792TIP3   OH238320   2.204   0.071   2.836 -0.1299  0.1414 -0.4216
12792TIP3    H138321   2.248   0.075   2.751  1.8249 -1.7782  0.4596
12792TIP3    H238322   2.257   0.128   2.893  0.5375 -1.2137  0.3339
12793TIP3   OH238323   3.357   6.132   3.549 -0.1876 -0.1799 -0.0051
12793TIP3    H138324   3.265   6.135   3.575 -0.5222 -0.6292 -1.1214
12793TIP3    H238325   3.382   6.040   3.560  0.2123 -0.0088  0.5575
12794TIP3   OH238326   5.330   0.254   6.580  0.0208 -0.1944  0.2657
12794TIP3    H138327   5.299   0.273   6.669 -0.3717  1.6243 -0.2406
12794TIP3    H238328   5.259   0.202   6.541  0.7351 -2.0794  1.3919
12795TIP3   OH238329   5.044   0.934   3.764 -0.8053 -0.7247 -0.1947
12795TIP3    H138330   5.076   0.862   3.818  1.5208 -1.1305 -2.0237
12795TIP3    H238331   4.986   0.892   3.700 -1.7377 -0.5549  0.5265
12796TIP3   OH238332   3.065   7.048   4.568 -0.1001  0.0772 -0.0357
12796TIP3    H138333   3.148   7.007   4.546  0.0318  0.3942 -0.1432
12796TIP3    H238334   3.008   7.030   4.493  0.0394  0.3105 -0.1997
12797TIP3   OH238335   0.120   2.582   4.260 -0.6468 -0.5144  0.0759
12797TIP3    H138336   0.048   2.520   4.248 -1.5096  0.2841  1.0473
12797TIP3    H238337   0.102   2.624   4.344  0.8823 -0.2044  0.2693
12798TIP3   OH238338   2.296   5.558   4.828 -0.2744 -0.6301  0.0939
12798TIP3    H138339   2.323   5.466   4.826 -0.8063 -0.7858 -2.7341
12798TIP3    H238340   2.201   5.555   4.838 -0.3652 -0.4355 -0.6438
12799TIP3   OH238341   2.900   7.116   6.311  0.5071  0.4644 -0.1582
12799TIP3    H138342   2.988   7.150   6.295  0.0390  1.0957 -1.4782
12799TIP3    H238343   2.850   7.192   6.340 -0.9517  1.3655 -4.6760
12800TIP3   OH238344   1.866   7.642   6.441  0.5671  0.2975 -0.3014
12800TIP3    H138345   1.933   7.632   6.374  0.7120  0.2375 -0.1464
12800TIP3    H238346   1.883   7.572   6.504  1.6278  1.5278  0.8073
12801TIP3   OH238347   2.244   7.550   4.008  0.2743 -0.4251  0.2358
12801TIP3    H138348   2.264   7.520   3.919  0.6763  0.1443  0.1330
12801TIP3    H238349   2.189   7.481   4.044  3.2458 -2.5247  0.8821
12802TIP3   OH238350   2.506   2.219   6.755  0.6339 -0.0777  0.4024
12802TIP3    H138351   2.571   2.176   6.811  0.8270 -1.3566 -0.7599
12802TIP3    H238352   2.549   2.223   6.669 -0.5512 -0.3178 -0.2047
12803TIP3   OH238353   1.888   5.093   5.767 -0.0899 -0.6855 -0.0075
12803TIP3    H138354   1.885   5.019   5.707  0.8706 -1.3601  0.7428
12803TIP3    H238355   1.797   5.120   5.777 -0.6323 -2.7319  0.8716
12804TIP3   OH238356   0.930   3.098   0.636  0.6821  0.9609 -0.3887
12804TIP3    H138357   0.897   3.187   0.644  2.2041  1.5373 -0.4742
12804TIP3    H238358   0.866   3.054   0.579 -1.0541  1.4713  1.1400
12805TIP3   OH238359   2.464   7.595   5.696 -0.0730 -0.0677 -0.2561
12805TIP3    H138360   2.537   7.582   5.636 -2.1259 -0.8120 -2.6340
12805TIP3    H238361   2.428   7.508   5.710 -1.1950  0.4392  0.0548
12806TIP3   OH238362   8.438   5.690   3.576  0.1661 -0.5414  0.5596
12806TIP3    H138363   8.390   5.621   3.529  1.8736 -0.8798 -0.7493
12806TIP3    H238364   8.478   5.742   3.507 -1.9066  2.4024  1.5210
12807TIP3   OH238365   4.411   4.258   1.976  0.1781  0.1282 -0.0105
12807TIP3    H138366   4.450   4.213   2.051  0.5140 -0.5460 -0.5743
12807TIP3    H238367   4.372   4.187   1.924  0.9516  0.4501 -1.0498
12808TIP3   OH238368   7.058   3.036   0.835 -0.4012 -0.1445 -0.2220
12808TIP3    H138369   7.090   3.112   0.788 -0.1669  1.6074  2.6059
12808TIP3    H238370   6.964   3.033   0.815  0.0713 -0.7343 -2.4504
12809TIP3   OH238371   1.851   7.243   5.173  0.1870  0.2434  0.4638
12809TIP3    H138372   1.889   7.330   5.176  0.7803 -0.0208  0.7877
12809TIP3    H238373   1.916   7.190   5.126  0.1820 -0.1950  0.9429
12810TIP3   OH238374   7.706   3.004   0.960 -0.0733  0.2007  0.4197
12810TIP3    H138375   7.711   3.100   0.950  2.4801  0.0446 -0.2374
12810TIP3    H238376   7.678   2.973   0.874 -1.9690  0.3884  0.9376
12811TIP3   OH238377   2.848   7.578   4.037 -0.3447  0.5873 -0.0216
12811TIP3    H138378   2.875   7.669   4.046  0.4569  0.5201 -1.5458
12811TIP3    H238379   2.752   7.580   4.044 -0.6388  2.0469 -3.6049
12812TIP3   OH238380   1.209   6.895   4.407  0.1817 -0.7998 -0.0638
12812TIP3    H138381   1.118   6.917   4.426  0.1261 -3.2425  2.6798
12812TIP3    H238382   1.259   6.970   4.441 -0.6740 -0.1709 -0.1713
12813TIP3   OH238383   3.216   7.503   5.924 -0.1924 -0.0091  0.3781
12813TIP3    H138384   3.290   7.443   5.908  0.2976  0.8719 -0.7757
12813TIP3    H238385   3.140   7.446   5.926  0.5582 -0.9895  2.0176
12814TIP3   OH238386   1.646   7.827   4.856  0.1913 -0.0509 -0.6064
12814TIP3    H138387   1.719   7.820   4.917 -1.1967 -0.7660  1.0175
12814TIP3    H238388   1.575   7.777   4.897 -1.6423  1.7433 -1.4829
12815TIP3   OH238389   0.940   2.766   0.314 -0.0143 -0.5090 -0.5211
12815TIP3    H138390   0.856   2.722   0.328 -0.1146 -1.2668 -3.1941
12815TIP3    H238391   0.994   2.700   0.270  1.8810  0.0753  0.9033
12816TIP3   OH238392   1.025   6.368   5.665  0.3672  0.5944 -0.1480
12816TIP3    H138393   1.000   6.459   5.682  0.2987  0.4312  0.6330
12816TIP3    H238394   1.033   6.363   5.570  2.3431  1.9460 -0.0862
12817TIP3   OH238395   2.710   7.296   5.167  0.5087 -0.1759  0.0073
12817TIP3    H138396   2.709   7.389   5.189 -0.1535  0.0713 -0.9911
12817TIP3    H238397   2.786   7.285   5.110  0.5313 -0.2213  0.0466
12818TIP3   OH238398   1.548   6.104   5.490 -0.2882  0.4630  0.3450
12818TIP3    H138399   1.509   6.077   5.573 -1.4458 -0.7726 -0.5708
12818TIP3    H238400   1.616   6.038   5.473 -0.9320 -0.0279 -0.3206
12819TIP3   OH238401   2.139   6.875   4.568 -0.2552  0.1573  0.4965
12819TIP3    H138402   2.124   6.781   4.553 -1.5728  0.1173  1.9095
12819TIP3    H238403   2.210   6.877   4.632 -1.0651  0.0914  1.3984
12820TIP3   OH238404   2.845   0.441   3.367  0.3204  0.8225 -0.4405
12820TIP3    H138405   2.829   0.498   3.442  0.2470  0.3908 -0.1272
12820TIP3    H238406   2.932   0.404   3.383 -0.1495 -0.1132 -0.0181
12821TIP3   OH238407   2.272   7.961   4.776  0.1197  0.1743  0.4305
12821TIP3    H138408   2.279   7.925   4.864 -0.3000 -0.2828  0.2803
12821TIP3    H238409   2.249   7.886   4.721  0.2676  0.4767 -0.0484
12822TIP3   OH238410   4.391   2.669   0.550 -0.2365  0.4703  0.5481
12822TIP3    H138411   4.323   2.632   0.607  2.1478 -2.8033  1.4299
12822TIP3    H238412   4.378   2.624   0.466 -1.3071  2.4337 -0.3735
12823TIP3   OH238413   7.326   0.528   6.964 -0.1382  0.3227 -0.3111
12823TIP3    H138414   7.295   0.553   6.877 -0.5872 -1.0473 -0.5537
12823TIP3    H238415   7.338   0.433   6.959  0.1045  0.2702  1.0381
12824TIP3   OH238416   4.117   7.747   5.023  0.0586  0.2471  0.2076
12824TIP3    H138417   4.199   7.731   5.069  0.8680 -1.2587 -1.6740
12824TIP3    H238418   4.117   7.841   5.005  1.1686  0.3274  0.5846
12825TIP3   OH238419   0.421   4.373   0.132  0.1044  0.6507  0.1173
12825TIP3    H138420   0.457   4.288   0.157 -2.1923 -0.4198 -0.0521
12825TIP3    H238421   0.430   4.376   0.037 -2.2088 -0.6058 -0.1850
12826TIP3   OH238422   1.382   6.078   6.825  0.2314 -0.8527  0.2088
12826TIP3    H138423   1.473   6.105   6.817  0.2360 -0.9722 -0.1699
12826TIP3    H238424   1.374   6.043   6.914  0.3916 -0.2390  0.4618
12827TIP3   OH238425   8.363   4.250   2.025  0.0938  0.2437 -0.1895
12827TIP3    H138426   8.335   4.228   1.936 -0.0753  0.9020 -0.3025
12827TIP3    H238427   8.413   4.173   2.054  0.9804  0.4130 -1.2106
12828TIP3   OH238428   1.379   3.668   0.061 -0.2956 -0.5677 -0.5636
12828TIP3    H138429   1.410   3.579   0.081 -0.8479 -0.5846  0.2080
12828TIP3    H238430   1.293   3.674   0.103  1.1895  1.5210  2.3185
12829TIP3   OH238431   1.443   6.515   2.213 -0.3127 -0.5873 -0.5629
12829TIP3    H138432   1.490   6.446   2.258 -0.8624 -1.3621 -1.1614
12829TIP3    H238433   1.353   6.483   2.207 -0.1944 -0.6177 -2.4201
12830TIP3   OH238434   6.345   5.665   0.498  0.0661 -0.3646 -0.2768
12830TIP3    H138435   6.259   5.703   0.480  0.3592  0.2326 -0.4264
12830TIP3    H238436   6.343   5.642   0.591  0.4036  1.3912  0.1938
12831TIP3   OH238437   5.525   0.635   6.437  0.1834  0.4528 -0.2634
12831TIP3    H138438   5.569   0.557   6.403 -1.9101 -1.1634  0.6279
12831TIP3    H238439   5.594   0.682   6.485  1.4476 -0.9296 -0.6712
12832TIP3   OH238440   7.049   0.147   6.088  0.4351 -0.7418 -0.1512
12832TIP3    H138441   6.991   0.207   6.041  0.9161  0.2799  0.5253
12832TIP3    H238442   7.040   0.174   6.180  0.1634 -2.1388  0.2462
12833TIP3   OH238443   5.750   0.444   6.423 -0.0344 -0.1813  0.0390
12833TIP3    H138444   5.822   0.386   6.398 -0.6185 -1.0870  0.4525
12833TIP3    H238445   5.782   0.489   6.501 -0.3315 -1.4133  0.8955
12834TIP3   OH238446   5.016   0.418   5.147 -0.6728 -0.2495 -0.1634
12834TIP3    H138447   5.042   0.462   5.066 -0.3395  0.5427  0.3645
12834TIP3    H238448   4.978   0.335   5.119 -1.7919  0.6110 -1.2101
12835TIP3   OH238449   1.240   6.836   4.018  0.2668 -1.0901 -0.3448
12835TIP3    H138450   1.197   6.921   4.007  1.3772 -0.2907  1.2566
12835TIP3    H238451   1.302   6.831   3.946  1.0242 -0.0122  0.2268
12836TIP3   OH238452   0.611   6.704   3.229  0.0944 -0.4387 -0.3050
12836TIP3    H138453   0.620   6.779   3.170 -1.4178  0.0324  0.0172
12836TIP3    H238454   0.526   6.665   3.205 -0.0723 -0.8277  0.8863
12837TIP3   OH238455   0.443   6.622   4.726 -0.1322  0.4410 -0.0733
12837TIP3    H138456   0.357   6.617   4.768 -0.7275 -2.5494 -1.4992
12837TIP3    H238457   0.477   6.533   4.731  1.1673  0.7288 -3.0326
12838TIP3   OH238458   5.916   0.431   6.706 -0.0917  0.5611 -0.2527
12838TIP3    H138459   5.869   0.357   6.743  0.5563 -0.4345 -1.3612
12838TIP3    H238460   6.007   0.417   6.732  0.0262  1.0117 -0.4100
12839TIP3   OH238461   6.459   5.065   1.096 -0.2743  0.0712 -0.7052
12839TIP3    H138462   6.502   4.999   1.042 -0.4086  0.0883 -0.8347
12839TIP3    H238463   6.525   5.133   1.108  0.2151 -0.5763  0.3139
12840TIP3   OH238464   1.410   7.632   6.501  0.1723 -0.4670 -0.2517
12840TIP3    H138465   1.416   7.537   6.497  0.2305 -0.4715 -0.0767
12840TIP3    H238466   1.316   7.651   6.499  0.1597 -0.5301 -0.2484
12841TIP3   OH238467   6.961   0.327   5.492 -0.1576 -0.4026  0.1883
12841TIP3    H138468   6.958   0.401   5.432  1.1119 -0.7680 -0.3490
12841TIP3    H238469   7.043   0.339   5.541  0.0226 -1.3941  0.1459
12842TIP3   OH238470   1.499   6.009   4.733 -0.4519  0.0709  0.3113
12842TIP3    H138471   1.590   6.037   4.717  0.2051 -2.6272 -0.8953
12842TIP3    H238472   1.455   6.025   4.649 -0.1364 -2.1521 -0.3029
12843TIP3   OH238473   6.285   2.311   3.345 -0.3011  0.1192 -0.3501
12843TIP3    H138474   6.325   2.391   3.311  3.1643 -1.6044 -0.5545
12843TIP3    H238475   6.327   2.297   3.430 -2.0923 -0.5758  0.4355
12844TIP3   OH238476   0.024   1.265   6.058  0.3234  0.2337  0.1369
12844TIP3    H138477  -0.012   1.182   6.089 -0.8854  0.9210  0.6511
12844TIP3    H238478  -0.008   1.272   5.968 -0.2115  0.4855  0.3422
12845TIP3   OH238479   2.626   0.185   4.546  0.2688  0.0489  0.0085
12845TIP3    H138480   2.714   0.223   4.542 -0.8164  2.9180  2.0536
12845TIP3    H238481   2.604   0.184   4.639 -0.9274 -2.9596 -0.2537
12846TIP3   OH238482   2.109   7.045   2.950  0.0631 -0.1803  0.2164
12846TIP3    H138483   2.023   7.077   2.978 -0.1431  1.5608 -2.2235
12846TIP3    H238484   2.159   7.125   2.934  1.0099 -1.1160 -1.6897
12847TIP3   OH238485   5.369   0.383   6.132  0.5788  0.0814 -0.2090
12847TIP3    H138486   5.447   0.378   6.076  0.2373 -0.1809 -0.6706
12847TIP3    H238487   5.393   0.338   6.212  0.4389 -1.2612 -0.9060
12848TIP3   OH238488   4.338   0.388   4.480  0.1473 -0.0931  0.3096
12848TIP3    H138489   4.415   0.399   4.425  0.9059  0.1884  1.4022
12848TIP3    H238490   4.281   0.329   4.431  2.0479 -2.1607  0.4639
12849TIP3   OH238491   7.689   3.944   0.102  0.8045 -0.5317  0.2411
12849TIP3    H138492   7.653   3.927   0.189 -1.3947  0.8808 -0.3277
12849TIP3    H238493   7.752   4.015   0.115  1.1879 -0.9819  0.8257
12850TIP3   OH238494   6.533   2.011   0.103 -0.0728 -0.0940  0.1111
12850TIP3    H138495   6.468   1.965   0.050 -0.4159 -0.2458  0.6602
12850TIP3    H238496   6.518   1.980   0.192 -0.7197  1.5438  0.5984
12851TIP3   OH238497   1.116   8.037   6.264  0.2919 -0.1975 -0.0880
12851TIP3    H138498   1.093   7.945   6.278 -0.5142  0.1482  0.9495
12851TIP3    H238499   1.145   8.041   6.173 -1.6584 -1.0942 -0.7938
12852TIP3   OH238500   3.662   0.949   6.318 -0.0704  0.1705  0.0049
12852TIP3    H138501   3.599   1.019   6.303 -0.6088 -0.0152  1.2850
12852TIP3    H238502   3.720   0.984   6.386 -1.6039 -1.3838  2.1656
12853TIP3   OH238503   6.165   1.198   5.565  0.1848  0.0528 -0.0988
12853TIP3    H138504   6.143   1.258   5.637 -1.2910  1.2025 -1.4772
12853TIP3    H238505   6.161   1.111   5.605  1.2033  0.7782  1.6524
12854TIP3   OH238506   3.227   7.305   5.079 -0.3216 -0.3316  0.4838
12854TIP3    H138507   3.299   7.245   5.060  1.1429  1.0879  1.4801
12854TIP3    H238508   3.265   7.371   5.137 -1.6511  2.1624 -1.4302
12855TIP3   OH238509   4.846   0.532   5.976  0.3176  0.5103  0.0355
12855TIP3    H138510   4.828   0.611   5.925  1.2887  1.6231  1.3791
12855TIP3    H238511   4.798   0.545   6.058  1.6750  0.3894  0.8655
12856TIP3   OH238512   3.659   7.461   5.948 -0.3201 -0.3801  0.3754
12856TIP3    H138513   3.683   7.535   6.004 -0.8492 -1.0948  1.5866
12856TIP3    H238514   3.739   7.440   5.900  0.6189 -0.7704  2.0715
12857TIP3   OH238515   3.205   7.566   6.214 -0.1972  0.2721 -0.3413
12857TIP3    H138516   3.127   7.581   6.161 -0.8536 -0.1914  0.4853
12857TIP3    H238517   3.270   7.531   6.153  0.4435  3.6538 -1.7551
12858TIP3   OH238518   0.631   3.248   1.030 -0.0338 -0.0109 -0.1336
12858TIP3    H138519   0.629   3.234   1.125  0.0014 -0.7748 -0.2445
12858TIP3    H238520   0.643   3.160   0.993  3.3632  0.6251 -0.7165
12859TIP3   OH238521   1.159   4.794   1.115  0.0206  0.2255  0.3674
12859TIP3    H138522   1.241   4.749   1.134 -0.8791 -0.6719  2.2178
12859TIP3    H238523   1.111   4.734   1.058  1.0861  1.2422 -1.6697
12860TIP3   OH238524   4.782   0.081   5.315  0.2255  0.0804 -0.0611
12860TIP3    H138525   4.734   0.114   5.391 -0.6676 -0.2463 -0.4818
12860TIP3    H238526   4.858   0.037   5.353  0.3380  0.8263  0.5966
12861TIP3   OH238527   3.482   0.882   3.039  0.1244  0.3900  0.8142
12861TIP3    H138528   3.434   0.799   3.031 -0.2917  0.5839  1.2487
12861TIP3    H238529   3.438   0.928   3.110  1.4148  0.2561  1.7301
12862TIP3   OH238530   4.497   0.026   3.402  0.3907  0.1989 -0.8585
12862TIP3    H138531   4.416   0.041   3.449  0.3420 -2.8651  0.1645
12862TIP3    H238532   4.536   0.113   3.391 -1.5928  1.3811  1.1823
12863TIP3   OH238533   4.700   0.616   5.597  0.2047 -0.1213  0.0409
12863TIP3    H138534   4.751   0.565   5.533 -2.1528 -1.1632 -1.0949
12863TIP3    H238535   4.663   0.550   5.656  0.3468  0.6319  0.9864
12864TIP3   OH238536   4.016   1.389   4.272 -0.0447  0.4814 -0.0625
12864TIP3    H138537   3.943   1.327   4.265 -0.1161  0.5787 -0.1942
12864TIP3    H238538   3.994   1.444   4.347 -0.4309  0.9307 -0.5024
12865TIP3   OH238539   8.375   2.760   0.612  0.1322  0.0074 -0.1343
12865TIP3    H138540   8.406   2.688   0.666  0.1231 -0.0114 -0.1540
12865TIP3    H238541   8.454   2.798   0.574  0.0802 -0.4569 -0.7092
12866TIP3   OH238542   7.499   5.834   0.784 -0.0819  0.1673  0.1430
12866TIP3    H138543   7.432   5.782   0.740  0.7646  0.0699 -1.0496
12866TIP3    H238544   7.478   5.825   0.877 -0.9748 -0.8896 -0.1434
12867TIP3   OH238545   2.091   7.590   6.292  0.2207  0.0745  0.1665
12867TIP3    H138546   2.105   7.684   6.305 -0.0401  0.1882 -0.3527
12867TIP3    H238547   2.169   7.548   6.330  0.9751  0.5756 -0.7905
12868TIP3   OH238548   0.776   3.423   1.219 -0.1614  0.1304 -0.4918
12868TIP3    H138549   0.861   3.443   1.181 -0.2597  0.7209 -0.4126
12868TIP3    H238550   0.745   3.347   1.170  0.4565 -0.1522 -0.4465
12869TIP3   OH238551   1.430   7.117   3.224 -0.1254 -0.3152  0.4941
12869TIP3    H138552   1.460   7.056   3.292 -2.0330 -1.2986  0.4816
12869TIP3    H238553   1.363   7.170   3.267 -0.3561 -0.0074 -0.2383
12870TIP3   OH238554   5.307   0.431   5.349 -0.2481  0.0429  0.3170
12870TIP3    H138555   5.232   0.471   5.394 -1.6507 -2.5998  0.3928
12870TIP3    H238556   5.298   0.460   5.258 -1.0876  0.1676  0.4298
12871TIP3   OH238557   5.220   0.998   5.702 -0.0472  0.4286 -0.6629
12871TIP3    H138558   5.144   0.942   5.686  0.2715 -0.4820  0.8891
12871TIP3    H238559   5.289   0.938   5.732  0.8006  1.4404 -0.5497
12872TIP3   OH238560   1.104   4.001   0.039  0.1622 -0.2095  0.2081
12872TIP3    H138561   1.157   4.078   0.058 -0.8767  0.0244  2.3846
12872TIP3    H238562   1.142   3.932   0.093  0.7248 -1.0737 -1.2789
12873TIP3   OH238563   2.971   7.689   5.118  0.2646 -0.3148 -0.0852
12873TIP3    H138564   3.012   7.673   5.033  1.4600  0.2501  0.3731
12873TIP3    H238565   3.024   7.639   5.180  0.0992  0.2046  0.4838
12874TIP3   OH238566   7.899   2.454   0.225  0.0861 -0.1706 -0.1395
12874TIP3    H138567   7.819   2.451   0.171  0.7309  3.2604 -1.3844
12874TIP3    H238568   7.970   2.458   0.161  1.1183 -0.2442  0.9936
12875TIP3   OH238569   0.564   6.744   2.795  0.5480 -0.3250  0.2288
12875TIP3    H138570   0.595   6.804   2.864 -2.2694  0.3566  0.9574
12875TIP3    H238571   0.524   6.672   2.843 -1.8253  0.3652 -0.6575
12876TIP3   OH238572   1.621   6.886   6.722 -0.1964 -0.4477 -0.1997
12876TIP3    H138573   1.583   6.917   6.639  2.2983 -0.4134 -1.3929
12876TIP3    H238574   1.649   6.965   6.767 -0.2981 -0.5384  0.0212
12877TIP3   OH238575   1.356   7.867   4.635 -0.0934 -0.6923  0.1957
12877TIP3    H138576   1.380   7.786   4.680  0.9136 -0.6890 -0.3197
12877TIP3    H238577   1.382   7.936   4.695 -1.7819 -0.7597  1.0296
12878TIP3   OH238578   1.445   3.045   1.554  0.5402  0.1830 -0.1765
12878TIP3    H138579   1.496   2.979   1.601  1.6744 -0.0405 -1.6932
12878TIP3    H238580   1.477   3.129   1.587  1.3463  0.0282 -0.5648
12879TIP3   OH238581   2.288   6.261   5.602  0.1275  0.1776 -0.5166
12879TIP3    H138582   2.238   6.259   5.520 -1.3438  1.1362  0.3445
12879TIP3    H238583   2.303   6.169   5.623 -1.6804 -0.1394 -0.5437
12880TIP3   OH238584   1.402   6.755   5.178  0.2932  0.0920  0.1094
12880TIP3    H138585   1.378   6.846   5.160  0.1207  0.0784  0.2689
12880TIP3    H238586   1.326   6.704   5.152  0.6767 -0.0805 -0.7042
12881TIP3   OH238587   1.922   7.344   4.844 -0.4562  0.7579 -0.0796
12881TIP3    H138588   1.973   7.381   4.916 -1.0857  0.6764  0.4230
12881TIP3    H238589   1.961   7.258   4.828 -0.5770  0.5965  0.4631
12882TIP3   OH238590   6.343  -0.021   5.657 -0.5704  0.4166  0.0972
12882TIP3    H138591   6.253  -0.036   5.629 -0.3663  1.9717 -1.4791
12882TIP3    H238592   6.344   0.068   5.691  0.4672  0.6220 -0.4200
12883TIP3   OH238593   2.163   7.500   5.427 -0.0237  0.2454  0.3200
12883TIP3    H138594   2.248   7.522   5.387 -0.1639  0.7966  0.3331
12883TIP3    H238595   2.185   7.434   5.494  0.2415 -0.5124 -0.4968
12884TIP3   OH238596   7.758   4.515   0.979  0.1904  0.1657 -0.5431
12884TIP3    H138597   7.825   4.581   0.992  0.0793  0.0931  0.4484
12884TIP3    H238598   7.792   4.458   0.910  1.6007 -0.4676  0.6615
12885TIP3   OH238599   4.353   1.552   2.532  0.3944 -0.4086 -1.1439
12885TIP3    H138600   4.419   1.530   2.598  1.4333 -0.6899 -2.2555
12885TIP3    H238601   4.282   1.489   2.547  0.7527 -0.6532 -0.4817
12886TIP3   OH238602   8.253   3.645   2.330  0.6077  0.1374  0.7017
12886TIP3    H138603   8.341   3.681   2.338  0.9479 -0.4636 -0.2867
12886TIP3    H238604   8.263   3.568   2.274 -0.8983  1.4021 -1.3943
12887TIP3   OH238605   7.596   0.033   3.559 -0.0169 -0.3339 -0.2140
12887TIP3    H138606   7.604  -0.029   3.487  2.4308  1.6831 -1.7664
12887TIP3    H238607   7.687   0.056   3.581 -0.8218  1.5215  1.3379
12888TIP3   OH238608   7.169   0.835   5.141  0.1407 -0.2805  0.3236
12888TIP3    H138609   7.117   0.887   5.203 -0.5944 -2.4709  1.6197
12888TIP3    H238610   7.108   0.769   5.109  0.9126 -0.0363 -1.6930
12889TIP3   OH238611   4.581   0.149   4.611 -0.2455 -0.0791 -0.1731
12889TIP3    H138612   4.636   0.226   4.599 -0.3041  0.8582  4.5622
12889TIP3    H238613   4.643   0.078   4.629 -0.3405  0.3698  2.1992
12890TIP3   OH238614   1.253   7.486   3.118  0.0924 -0.5935 -0.1582
12890TIP3    H138615   1.189   7.418   3.138  1.0767 -1.7049 -0.7461
12890TIP3    H238616   1.203   7.568   3.120 -1.1178 -1.3430  0.4398
12891TIP3   OH238617   5.397   0.970   6.548  0.1673  0.0475  0.1936
12891TIP3    H138618   5.473   0.986   6.491 -0.7826 -0.6116 -1.3087
12891TIP3    H238619   5.426   0.901   6.608  0.3387 -1.2016 -1.2838
12892TIP3   OH238620   0.577   7.661   3.359 -0.3920 -0.2968 -0.5197
12892TIP3    H138621   0.575   7.610   3.278  0.8859  0.5601 -1.0853
12892TIP3    H238622   0.558   7.750   3.333 -3.0471 -0.4954  0.5362
12893TIP3   OH238623   4.670   1.120   4.905 -0.1051 -0.3687 -0.3320
12893TIP3    H138624   4.764   1.113   4.920  0.0294  0.7389 -0.6243
12893TIP3    H238625   4.631   1.059   4.967  0.8493 -1.4999 -0.8241
12894TIP3   OH238626   5.769   5.785   0.334 -0.2054 -0.0437  0.4150
12894TIP3    H138627   5.764   5.717   0.266 -0.6963  1.8330 -1.4725
12894TIP3    H238628   5.705   5.758   0.400 -1.1196 -0.8816 -0.8017
12895TIP3   OH238629   1.260   7.943   3.983  0.2412  0.7014 -0.1338
12895TIP3    H138630   1.226   7.884   4.050 -0.7399  2.0659  0.5893
12895TIP3    H238631   1.182   7.982   3.944  0.8910  1.6435 -0.4937
12896TIP3   OH238632   2.685   1.627   3.978 -0.2618 -0.0259 -0.4301
12896TIP3    H138633   2.652   1.678   4.052  0.7642  1.7281 -1.1239
12896TIP3    H238634   2.693   1.538   4.010  1.7121  1.0016  2.1001
12897TIP3   OH238635   2.794   1.490   4.404 -0.2502  0.1582 -0.2093
12897TIP3    H138636   2.860   1.433   4.443  0.0661  0.8017  0.2074
12897TIP3    H238637   2.735   1.512   4.476 -0.8161 -0.2509 -0.5348
12898TIP3   OH238638   5.561   1.210   5.431 -0.4810 -1.0496 -0.0307
12898TIP3    H138639   5.470   1.217   5.461 -0.7211 -2.3055 -0.4444
12898TIP3    H238640   5.611   1.263   5.493 -1.3204 -1.4782  1.0254
12899TIP3   OH238641   1.941   7.974   4.717  0.0163 -0.0269  0.0842
12899TIP3    H138642   1.911   8.012   4.799 -0.4720 -0.4803  0.1193
12899TIP3    H238643   1.950   7.881   4.735  1.3431  0.0807  0.0361
12900TIP3   OH238644   5.701   0.806   4.724  0.6996 -0.8616  0.2467
12900TIP3    H138645   5.609   0.793   4.700  0.8995  0.7436 -1.5208
12900TIP3    H238646   5.701   0.801   4.819 -1.1825 -1.1607  0.2679
12901TIP3   OH238647   1.772   7.950   5.838 -0.2448  0.9677  0.2421
12901TIP3    H138648   1.721   7.883   5.793 -0.7162  1.2136  0.3977
12901TIP3    H238649   1.861   7.941   5.804 -0.2636  0.1369  0.4107
12902TIP3   OH238650   7.756   3.282   0.935 -0.0700 -0.5547  0.3783
12902TIP3    H138651   7.769   3.300   1.028  1.3861 -0.0000  0.0665
12902TIP3    H238652   7.751   3.368   0.894 -0.0672 -0.8045 -0.1519
12903TIP3   OH238653   1.661   6.465   4.668  0.0771 -0.3752 -0.0667
12903TIP3    H138654   1.710   6.384   4.676  1.0304  0.4410  3.1789
12903TIP3    H238655   1.694   6.521   4.738 -4.0135  0.9934  0.9539
12904TIP3   OH238656   0.008   3.256   0.619 -0.1604  0.3157  0.1664
12904TIP3    H138657  -0.056   3.264   0.691 -1.6664  0.2118 -1.1443
12904TIP3    H238658   0.088   3.296   0.654 -1.6138  2.6023  1.0139
12905TIP3   OH238659   5.174   0.314   4.467  0.5375 -0.3099 -0.4209
12905TIP3    H138660   5.224   0.385   4.508  0.7138 -0.7259  0.0838
12905TIP3    H238661   5.241   0.258   4.428  0.3593  0.2214 -1.5068
12906TIP3   OH238662   0.685   7.247   3.078  0.4239  0.0529  0.3184
12906TIP3    H138663   0.612   7.306   3.096 -1.3562 -1.9872  0.0003
12906TIP3    H238664   0.691   7.243   2.983 -0.5591 -1.5232  0.2954
12907TIP3   OH238665   3.093   6.622   4.643  0.6504 -0.1538  0.7880
12907TIP3    H138666   3.093   6.699   4.700  0.6409  0.4967 -0.0661
12907TIP3    H238667   3.183   6.589   4.647  1.0295  0.7613  0.0405
12908TIP3   OH238668   3.692   1.884   4.317  0.5435  0.6451 -0.5484
12908TIP3    H138669   3.717   1.851   4.403  0.4082 -0.0908 -0.7885
12908TIP3    H238670   3.691   1.979   4.327  1.6872  0.6124 -0.0493
12909TIP3   OH238671   5.261   0.155   3.769 -0.7477  0.0493  0.4766
12909TIP3    H138672   5.257   0.073   3.720 -0.9164 -0.2347  0.9639
12909TIP3    H238673   5.315   0.213   3.715 -1.5845 -0.0006 -0.4252
12910TIP3   OH238674   6.311   0.525   6.318 -0.0500  0.2234  0.0055
12910TIP3    H138675   6.375   0.586   6.355  1.7971 -1.8845  0.3619
12910TIP3    H238676   6.352   0.439   6.326 -3.8276 -1.4920  2.2212
12911TIP3   OH238677   6.402   0.263   4.458  0.2702 -0.0915 -0.4226
12911TIP3    H138678   6.354   0.297   4.383 -0.4247  0.7145  0.3715
12911TIP3    H238679   6.444   0.182   4.426 -0.4379 -0.0293 -1.5142
12912TIP3   OH238680   4.133   0.987   4.247  0.4552 -0.1322  0.1403
12912TIP3    H138681   4.214   0.975   4.198 -0.3262  0.5504 -1.3672
12912TIP3    H238682   4.149   1.064   4.302  0.4118  0.7894 -1.1093
12913TIP3   OH238683   2.770   6.891   6.562  0.3045  0.1603  0.1319
12913TIP3    H138684   2.757   6.838   6.483 -1.8163  1.9935 -0.7953
12913TIP3    H238685   2.732   6.838   6.633 -2.7834  0.7960 -0.9457
12914TIP3   OH238686   1.779   6.342   3.826  0.2409  0.2702  0.0493
12914TIP3    H138687   1.849   6.283   3.796 -0.9449 -1.0770 -0.1418
12914TIP3    H238688   1.792   6.348   3.920 -0.3948 -1.3801  0.2711
12915TIP3   OH238689   7.561   4.168   0.327  0.1035 -0.3543 -0.1755
12915TIP3    H138690   7.560   4.080   0.365  1.9243  0.0517  0.8572
12915TIP3    H238691   7.633   4.212   0.371 -0.3354  1.4373 -1.2161
12916TIP3   OH238692   1.759   7.176   3.432 -0.1579 -0.0281  0.1273
12916TIP3    H138693   1.801   7.252   3.393 -1.2093  0.6306  0.2653
12916TIP3    H238694   1.830   7.112   3.442  0.8626  1.1475  0.5957
12917TIP3   OH238695   8.290   2.789   0.966  0.3270 -0.0359 -0.2028
12917TIP3    H138696   8.276   2.719   1.029  2.7035  0.0612  0.4624
12917TIP3    H238697   8.263   2.751   0.882 -2.3546 -0.3252  0.7365
12918TIP3   OH238698   1.883   7.618   2.207  0.1721  0.1666 -0.5431
12918TIP3    H138699   1.807   7.624   2.265  0.2202 -0.2027 -0.4428
12918TIP3    H238700   1.944   7.560   2.252  0.4060  0.2514 -0.7467
12919TIP3   OH238701   8.280   6.337   0.102 -0.4213 -0.0354 -0.0400
12919TIP3    H138702   8.280   6.241   0.103 -1.3008 -0.0539  2.6136
12919TIP3    H238703   8.310   6.362   0.189  0.6820  2.1353 -1.0117
12920TIP3   OH238704   2.399   2.808   1.402 -0.4275 -0.2597  0.0993
12920TIP3    H138705   2.441   2.747   1.341 -0.7393  0.1748 -0.5484
12920TIP3    H238706   2.305   2.797   1.387 -0.5068 -0.2033  0.5505
12921TIP3   OH238707   8.379   1.319   5.807  0.2862 -0.0700 -0.1579
12921TIP3    H138708   8.399   1.391   5.747  2.0348  0.1512  0.6542
12921TIP3    H238709   8.302   1.277   5.769  0.0771  1.3701 -1.3957
12922TIP3   OH238710   8.090   3.185   1.080 -0.4673 -0.1126  1.0480
12922TIP3    H138711   8.081   3.146   0.993  1.4273  0.2140  0.6870
12922TIP3    H238712   8.040   3.267   1.075 -0.3737 -0.0964  0.2523
12923TIP3   OH238713   7.497   0.353   5.587 -0.4382 -0.3940 -0.2379
12923TIP3    H138714   7.524   0.436   5.625 -0.6889 -0.2832 -0.3035
12923TIP3    H238715   7.488   0.294   5.662  0.0517 -0.4490 -0.2244
12924TIP3   OH238716   2.328   6.729   4.858 -0.3782 -0.2707  0.0973
12924TIP3    H138717   2.294   6.646   4.892 -0.4674 -0.6678 -0.9266
12924TIP3    H238718   2.421   6.728   4.881 -0.5801 -0.2077  0.9379
12925TIP3   OH238719   2.005   5.617   6.122 -0.2867  0.2249 -0.2188
12925TIP3    H138720   1.945   5.544   6.108 -0.5862  0.3577  0.3527
12925TIP3    H238721   1.948   5.693   6.135 -0.0321  0.2143  1.0951
12926TIP3   OH238722   3.192   7.107   6.133  0.0949 -0.0209  0.1993
12926TIP3    H138723   3.190   7.012   6.142  0.3845  0.0032  0.4972
12926TIP3    H238724   3.194   7.122   6.038 -1.9164 -0.2862  0.0728
12927TIP3   OH238725   8.465   3.743   2.906 -0.2346  0.3646 -0.5248
12927TIP3    H138726   8.464   3.829   2.948  0.2781  0.6365 -1.0638
12927TIP3    H238727   8.558   3.722   2.896 -0.3595  0.1322 -1.1826
12928TIP3   OH238728   0.490   0.061   6.869 -0.3043 -0.2135  0.3618
12928TIP3    H138729   0.438  -0.008   6.826  0.1797  0.1018 -0.7626
12928TIP3    H238730   0.569   0.016   6.899  0.6119  0.0720 -1.5269
12929TIP3   OH238731   7.347   3.473   2.198  0.0180 -0.6637 -0.0940
12929TIP3    H138732   7.354   3.386   2.237  1.7230  0.4728  2.2319
12929TIP3    H238733   7.327   3.530   2.272 -0.1749  1.0739 -1.4720
12930TIP3   OH238734   1.900   7.711   6.001  0.0023  0.9975  0.2191
12930TIP3    H138735   1.992   7.696   5.983 -0.7996 -0.9395 -2.6195
12930TIP3    H238736   1.881   7.796   5.961  0.7061  1.7868  1.5268
12931TIP3   OH238737   4.391   0.735   5.112 -0.4383 -0.2320  0.4426
12931TIP3    H138738   4.317   0.724   5.172 -0.3992  0.9106  0.7076
12931TIP3    H238739   4.406   0.647   5.077 -2.3384 -0.3627 -0.1124
12932TIP3   OH238740   4.091   0.205   2.186  0.3009  0.3665 -0.3220
12932TIP3    H138741   4.014   0.169   2.143  0.9215  0.0926 -1.2214
12932TIP3    H238742   4.158   0.208   2.117  1.0125  0.8466  0.3781
12933TIP3   OH238743   6.297   0.235   5.805  0.2603  0.0197  0.3140
12933TIP3    H138744   6.288   0.177   5.880 -2.6243 -0.1618 -0.1348
12933TIP3    H238745   6.261   0.319   5.834  1.8827  0.8178  0.0769
12934TIP3   OH238746   2.972   6.145   4.055  0.5601 -0.5756  0.0418
12934TIP3    H138747   3.049   6.138   3.998  1.4894 -1.0414  1.3558
12934TIP3    H238748   2.921   6.067   4.035  0.8208 -0.6791 -0.2343
12935TIP3   OH238749   4.872   0.011   4.307  0.0532  0.3180 -0.3075
12935TIP3    H138750   4.778   0.025   4.301 -0.0699  0.2162  1.1897
12935TIP3    H238751   4.894   0.034   4.397  1.3905 -0.1037 -0.5114
12936TIP3   OH238752   4.458   0.926   1.679  0.2858  0.3041 -0.1457
12936TIP3    H138753   4.502   0.979   1.612  0.0300  0.5815 -0.0963
12936TIP3    H238754   4.443   0.842   1.637 -2.2865  1.3100 -1.3779
12937TIP3   OH238755   3.394   7.466   5.374  0.4475 -0.0001 -0.3676
12937TIP3    H138756   3.358   7.397   5.431  0.0147  0.3850 -0.1706
12937TIP3    H238757   3.426   7.532   5.434  0.7238  0.0427 -0.5623
12938TIP3   OH238758   1.604   4.897   1.069 -0.9580  0.4193  0.2863
12938TIP3    H138759   1.694   4.909   1.040 -0.8781  1.4373  0.9308
12938TIP3    H238760   1.551   4.914   0.991 -0.6676  1.5975  0.3351
12939TIP3   OH238761   7.569   0.648   5.507  0.5727 -0.6446 -0.0807
12939TIP3    H138762   7.546   0.665   5.598 -0.5465  1.0563 -0.6545
12939TIP3    H238763   7.642   0.708   5.489 -1.0249  1.0858 -1.0661
12940TIP3   OH238764   1.682   6.636   2.870 -0.5783 -0.0456 -0.2193
12940TIP3    H138765   1.683   6.565   2.933 -0.6432  0.1368 -0.0142
12940TIP3    H238766   1.713   6.712   2.918  0.2568 -0.1073 -0.6431
12941TIP3   OH238767   4.072   7.783   4.426  0.0732  0.3085  0.0266
12941TIP3    H138768   4.043   7.693   4.436  0.4754  0.0953 -0.6558
12941TIP3    H238769   4.016   7.833   4.485  1.6260 -0.7142  2.4674
12942TIP3   OH238770   4.164   7.790   6.334  0.5554 -0.2349 -0.4678
12942TIP3    H138771   4.254   7.805   6.308  0.3153 -0.4719 -1.4538
12942TIP3    H238772   4.137   7.872   6.375  1.1597 -0.1094 -0.3158
12943TIP3   OH238773   3.520   7.706   6.448 -0.0660 -0.0833  0.5323
12943TIP3    H138774   3.592   7.703   6.510  0.2258  0.3246  0.2166
12943TIP3    H238775   3.560   7.684   6.364 -0.0692  1.3884  0.1426
12944TIP3   OH238776   4.400   0.116   5.897  0.2905 -0.2930 -0.0205
12944TIP3    H138777   4.466   0.048   5.913  1.3447  0.5319 -0.7925
12944TIP3    H238778   4.380   0.107   5.804 -0.6534 -0.4942  0.1973
12945TIP3   OH238779   4.450   1.425   5.068  0.3488 -0.3515 -0.0487
12945TIP3    H138780   4.379   1.361   5.068  0.2581 -0.2524 -0.5388
12945TIP3    H238781   4.481   1.427   4.978  1.5821 -1.0580  0.3514
12946TIP3   OH238782   8.426   4.888   1.009  0.3036 -0.5731 -0.1346
12946TIP3    H138783   8.492   4.958   1.002  0.1598 -0.4254 -0.0192
12946TIP3    H238784   8.372   4.899   0.930  2.2120 -2.5539 -1.7796
12947TIP3   OH238785   2.851   5.088   5.613 -0.0259 -0.7138 -0.0405
12947TIP3    H138786   2.850   5.114   5.705  2.1767 -0.7412  0.0205
12947TIP3    H238787   2.873   4.995   5.614 -0.8160 -0.9102 -0.5565
12948TIP3   OH238788   3.832   6.550   6.169  0.2402  0.0101 -0.4852
12948TIP3    H138789   3.783   6.527   6.247  0.4494 -0.3709 -0.4684
12948TIP3    H238790   3.814   6.479   6.107  0.4041  0.1007 -0.6386
12949TIP3   OH238791   5.363   0.392   4.147  0.3779  0.1455 -0.2537
12949TIP3    H138792   5.276   0.402   4.110  0.1854 -1.3213 -0.2034
12949TIP3    H238793   5.352   0.328   4.218  1.4667  0.0547 -0.1616
12950TIP3   OH238794   3.105   5.630   4.768 -0.1661 -0.3564 -0.5137
12950TIP3    H138795   3.189   5.641   4.812 -1.1904  1.6722  1.0290
12950TIP3    H238796   3.078   5.541   4.789  0.9033 -0.5099  0.2342
12951TIP3   OH238797   8.045   3.862   1.056 -0.1333 -0.3396 -0.4792
12951TIP3    H138798   8.095   3.895   1.130  0.7035 -0.6789 -0.8802
12951TIP3    H238799   8.071   3.917   0.982 -2.3874  1.2213 -0.1424
12952TIP3   OH238800   4.391   7.415   6.733  0.0220  0.3467  0.7322
12952TIP3    H138801   4.474   7.392   6.691  0.0518 -0.6852  1.3189
12952TIP3    H238802   4.394   7.369   6.817  0.1679  2.7576  2.0763
12953TIP3   OH238803   5.955   0.342   4.215 -0.0311 -0.4630 -1.1064
12953TIP3    H138804   5.941   0.428   4.177 -1.1055 -0.0805  0.1055
12953TIP3    H238805   5.871   0.320   4.257  0.8331 -1.2371  0.2743
12954TIP3   OH238806   4.417   6.745   5.771  0.6947 -0.3286 -0.3165
12954TIP3    H138807   4.341   6.706   5.814 -0.1450  1.2749 -0.2792
12954TIP3    H238808   4.448   6.679   5.710 -1.6614 -0.4646 -1.4240
12955TIP3   OH238809   2.972   6.606   3.866 -0.1185  0.2001 -0.2421
12955TIP3    H138810   2.913   6.681   3.873 -0.7905 -0.2396 -1.0733
12955TIP3    H238811   2.929   6.547   3.803  0.4304 -0.8491  0.3418
12956TIP3   OH238812   0.050   2.794   0.345  0.0613 -0.2789 -0.0526
12956TIP3    H138813   0.012   2.882   0.336  0.5184 -0.1490 -0.7333
12956TIP3    H238814   0.129   2.796   0.291 -0.1703 -1.2589 -0.4315
12957TIP3   OH238815   2.130   4.371   5.995  0.0564 -0.5166 -0.1661
12957TIP3    H138816   2.147   4.440   6.059 -3.4838  0.9487 -0.6946
12957TIP3    H238817   2.151   4.290   6.042 -1.1573  0.5959  2.4317
12958TIP3   OH238818   2.349   7.949   4.400 -0.0290  0.5469  0.0958
12958TIP3    H138819   2.325   7.989   4.484 -1.0821 -0.4158  0.2631
12958TIP3    H238820   2.265   7.936   4.355  0.4048 -0.3519 -0.4608
12959TIP3   OH238821   7.400   0.749   6.566  0.1139 -0.4791  0.2502
12959TIP3    H138822   7.452   0.670   6.552 -0.0288 -0.2003 -2.1188
12959TIP3    H238823   7.309   0.719   6.562  0.0450 -0.1242 -1.4180
12960TIP3   OH238824   2.054   7.050   3.923 -0.4671  0.1107  0.2244
12960TIP3    H138825   2.001   7.001   3.859 -0.8588 -0.6328  1.0989
12960TIP3    H238826   2.003   7.129   3.941 -0.1783  0.5069 -0.6501
12961TIP3   OH238827   1.869   7.970   3.743  0.2357 -0.0469  0.3981
12961TIP3    H138828   1.851   7.942   3.832  0.1954  1.3790  0.8480
12961TIP3    H238829   1.833   8.058   3.737  1.1655  0.2782 -0.7074
12962TIP3   OH238830   4.392   0.014   5.121  0.0538  0.1441 -0.6925
12962TIP3    H138831   4.420  -0.076   5.106 -0.2344 -0.4171  1.7900
12962TIP3    H238832   4.474   0.064   5.127  0.2928 -0.2940 -0.2402
12963TIP3   OH238833   1.430   5.496   6.457 -0.1762  0.7939 -0.0542
12963TIP3    H138834   1.474   5.527   6.378  0.1065 -0.0996 -0.2474
12963TIP3    H238835   1.388   5.414   6.431 -1.6903  1.4599  0.2142
12964TIP3   OH238836   6.775   3.795   1.203  0.5003 -0.8207 -0.5330
12964TIP3    H138837   6.841   3.818   1.137  0.8091 -1.1808 -0.3462
12964TIP3    H238838   6.712   3.740   1.156  0.3471 -0.5058 -0.7022
12965TIP3   OH238839   1.477   7.755   4.103  0.1290  0.1985  0.2790
12965TIP3    H138840   1.444   7.742   4.192  1.1689 -1.4635  0.4451
12965TIP3    H238841   1.427   7.693   4.050 -0.3682  1.0690 -0.2844
12966TIP3   OH238842   5.657   1.060   6.500  0.4309 -0.2969 -0.4763
12966TIP3    H138843   5.734   1.097   6.455  0.3977 -0.4738 -0.6801
12966TIP3    H238844   5.687   0.975   6.533  0.3463 -0.3297 -0.4834
12967TIP3   OH238845   8.367   1.600   2.933  0.2257  0.2072 -0.2846
12967TIP3    H138846   8.318   1.550   2.867 -0.3065 -0.9475  0.9546
12967TIP3    H238847   8.351   1.691   2.911 -1.4733 -0.1648 -0.6542
12968TIP3   OH238848   4.906   7.595   6.415 -0.5352 -0.3855  0.1913
12968TIP3    H138849   4.846   7.587   6.341  0.5524  0.7372 -0.8465
12968TIP3    H238850   4.994   7.590   6.376  0.0596  0.7493  1.3367
12969TIP3   OH238851   7.596   0.937   5.778 -0.2223  0.2603  0.4741
12969TIP3    H138852   7.523   0.910   5.833 -0.3033  2.6472  1.6066
12969TIP3    H238853   7.557   0.954   5.692 -0.5302 -1.0433  0.3507
12970TIP3   OH238854   5.246   0.871   6.903  0.1198 -0.5357 -0.3740
12970TIP3    H138855   5.255   0.832   6.816 -0.7550 -1.4508 -0.0707
12970TIP3    H238856   5.303   0.818   6.959 -1.7732 -2.0110  0.2202
12971TIP3   OH238857   5.845   1.167   3.575 -0.0957  0.0425 -0.1808
12971TIP3    H138858   5.792   1.223   3.518 -1.1313 -1.2578 -0.5261
12971TIP3    H238859   5.928   1.158   3.530 -0.0331  1.0217 -0.2818
12972TIP3   OH238860   1.771   3.188   0.412  0.0048  0.1958 -0.2683
12972TIP3    H138861   1.796   3.165   0.322 -0.0570  0.4502 -0.3516
12972TIP3    H238862   1.677   3.170   0.416  0.2338 -0.9419  0.1023
12973TIP3   OH238863   5.922   0.203   5.036 -0.0036 -0.0657 -0.1700
12973TIP3    H138864   5.911   0.182   4.944 -0.3920 -1.2610  0.1283
12973TIP3    H238865   6.009   0.242   5.043 -0.2760  0.7276 -1.1459
12974TIP3   OH238866   1.928   2.987   0.852  0.0947  0.2240  0.3476
12974TIP3    H138867   1.896   3.035   0.929 -0.9664 -1.3294  0.9108
12974TIP3    H238868   2.020   2.968   0.872 -0.2489 -0.4254  1.3962
12975TIP3   OH238869   6.306   0.500   5.256  0.2198 -0.0822 -0.4707
12975TIP3    H138870   6.332   0.580   5.301  1.6242 -1.1401  0.6311
12975TIP3    H238871   6.380   0.440   5.267 -0.3012 -1.1322 -2.3199
12976TIP3   OH238872   0.925   7.235   4.008  0.5862  0.7994  0.4253
12976TIP3    H138873   0.911   7.294   3.933  1.0613 -0.1526 -0.4204
12976TIP3    H238874   0.990   7.280   4.061  1.1577  0.9234 -0.3639
12977TIP3   OH238875   6.765   0.153   5.653 -0.3202 -0.2713 -0.4062
12977TIP3    H138876   6.750   0.060   5.666 -0.0237 -0.2676 -0.0176
12977TIP3    H238877   6.838   0.158   5.591 -0.6665 -0.2962 -0.8137
12978TIP3   OH238878   4.027   6.689   3.607 -0.0854  0.5628  0.1865
12978TIP3    H138879   3.959   6.622   3.614  0.2668  0.2377  0.5586
12978TIP3    H238880   4.107   6.645   3.637 -0.1544  1.6053  1.9921
12979TIP3   OH238881   8.261   0.044   4.881  0.4073 -0.1940  0.0987
12979TIP3    H138882   8.277   0.102   4.955 -0.7915 -1.1851  1.1485
12979TIP3    H238883   8.329   0.067   4.818  1.6112  0.4818  1.6099
12980TIP3   OH238884   1.840   1.298   5.383 -0.7607 -0.1133  0.3276
12980TIP3    H138885   1.894   1.308   5.461 -0.2178  0.6216 -0.1303
12980TIP3    H238886   1.753   1.326   5.410 -0.0554  2.4348  0.0544
12981TIP3   OH238887   6.791   1.456   5.056 -0.1535  0.1157 -0.0571
12981TIP3    H138888   6.799   1.409   5.139  0.9220  0.6415  0.1477
12981TIP3    H238889   6.790   1.387   4.989  0.9818 -0.2276  0.2665
12982TIP3   OH238890   5.705   7.024   4.795  0.2728  0.5626 -0.0234
12982TIP3    H138891   5.771   7.065   4.850  0.0242 -2.0692  2.3161
12982TIP3    H238892   5.744   7.021   4.708  1.0358  3.9364  0.1403
12983TIP3   OH238893   4.496   1.785   3.936 -0.4242  0.2208 -0.0199
12983TIP3    H138894   4.516   1.705   3.886 -1.0333 -1.2012  1.9624
12983TIP3    H238895   4.405   1.805   3.913 -0.0277  0.8235 -1.1235
12984TIP3   OH238896   8.077   1.034   6.321 -0.6342 -0.2286  0.1548
12984TIP3    H138897   7.994   1.044   6.273 -1.2813 -1.3618  1.0304
12984TIP3    H238898   8.131   0.981   6.263  0.6863  3.1437 -1.8692
12985TIP3   OH238899   4.195   7.085   6.729  0.7508 -0.3492 -0.2964
12985TIP3    H138900   4.144   7.154   6.686 -0.2610 -1.8364 -1.5121
12985TIP3    H238901   4.170   7.092   6.821  0.3688  0.6608 -0.4624
12986TIP3   OH238902   3.181   7.277   3.391  0.0231  0.2480 -0.1555
12986TIP3    H138903   3.220   7.261   3.477 -0.4960 -1.0453 -0.1482
12986TIP3    H238904   3.249   7.325   3.343 -0.0080  1.7281  1.2337
12987TIP3   OH238905   6.642   1.264   4.831 -0.4555 -0.2905 -0.3326
12987TIP3    H138906   6.567   1.241   4.886 -0.5050  0.3452 -0.1371
12987TIP3    H238907   6.621   1.351   4.797 -0.6459 -0.8648 -1.7410
12988TIP3   OH238908   7.281   0.019   4.991  0.5062  0.0168 -0.6227
12988TIP3    H138909   7.339   0.060   4.927 -0.6350  1.7213 -0.5963
12988TIP3    H238910   7.194   0.056   4.972 -0.6288 -2.5975 -0.7779
12989TIP3   OH238911   3.133   7.705   4.321  0.1138  0.3970 -0.5485
12989TIP3    H138912   3.130   7.751   4.238 -0.2233  3.2913  1.0026
12989TIP3    H238913   3.043   7.709   4.354  0.2224 -0.8105 -0.0775
12990TIP3   OH238914   5.538   0.285   3.985 -0.0722  0.0469 -0.3108
12990TIP3    H138915   5.493   0.310   4.066 -0.9621  0.7914 -1.0272
12990TIP3    H238916   5.479   0.312   3.915  1.3575  0.7840 -1.2672
12991TIP3   OH238917   8.233   1.121   5.335 -0.8140 -1.2931  0.1880
12991TIP3    H138918   8.200   1.187   5.275  1.0274  0.7064  1.3088
12991TIP3    H238919   8.313   1.089   5.293 -1.4931 -2.5765 -0.1678
12992TIP3   OH238920   8.111   1.330   2.774 -0.4225 -0.7988 -0.1680
12992TIP3    H138921   8.110   1.302   2.682  1.3961  2.0114 -1.1334
12992TIP3    H238922   8.164   1.263   2.818  1.4986 -0.4585 -1.8448
12993TIP3   OH238923   3.637   7.618   3.037  0.0262 -0.0118  0.0573
12993TIP3    H138924   3.607   7.553   3.102  1.0006 -1.3065 -0.7534
12993TIP3    H238925   3.558   7.640   2.987 -0.2328 -0.9504  0.0353
12994TIP3   OH238926   7.914   0.157   3.601 -0.1231 -0.9446 -0.3828
12994TIP3    H138927   7.985   0.221   3.599 -1.2764  0.3767  0.0981
12994TIP3    H238928   7.950   0.082   3.649  1.9803 -1.6132 -2.8849
12995TIP3   OH238929   8.410   1.427   5.353 -0.2822 -0.0418 -0.0597
12995TIP3    H138930   8.466   1.501   5.377 -2.4427  1.2460  1.1744
12995TIP3    H238931   8.448   1.352   5.400 -1.5640  1.4831  3.5855
12996TIP3   OH238932   4.115   6.656   4.883 -0.5599  0.5359  0.0739
12996TIP3    H138933   4.035   6.701   4.856 -1.6185 -0.7210  1.0137
12996TIP3    H238934   4.147   6.614   4.803  0.2801  2.6748 -0.7372
12997TIP3   OH238935   4.670   0.353   2.270 -0.7888  0.2618  0.2506
12997TIP3    H138936   4.747   0.335   2.325 -1.9290 -1.7036  1.2676
12997TIP3    H238937   4.689   0.437   2.230  1.9744 -0.2513  0.3521
12998TIP3   OH238938   6.846   0.521   6.343  0.8854  0.4935 -0.7716
12998TIP3    H138939   6.865   0.605   6.302  0.1665  0.4824 -1.1326
12998TIP3    H238940   6.784   0.479   6.284  0.2122  0.2731  0.0844
12999TIP3   OH238941   3.788   7.565   2.633 -0.2593 -0.1979  0.1357
12999TIP3    H138942   3.875   7.605   2.640 -0.4230 -0.1261  2.0138
12999TIP3    H238943   3.728   7.639   2.638 -0.4967 -0.4646  1.2997
13000TIP3   OH238944   7.989   0.874   5.678  1.0731  0.3314 -0.3915
13000TIP3    H138945   7.937   0.939   5.725  1.4110  1.6318 -1.7678
13000TIP3    H238946   8.059   0.850   5.740 -0.6898 -0.8657  1.1724
13001TIP3   OH238947   5.071   7.075   3.331 -0.5373  0.2866  0.4073
13001TIP3    H138948   5.083   7.015   3.405 -0.3046 -0.4499 -0.2243
13001TIP3    H238949   5.157   7.081   3.290 -0.7785  0.2962 -0.1017
13002TIP3   OH238950   5.672   7.811   6.846 -0.6476 -0.2320 -0.1607
13002TIP3    H138951   5.631   7.746   6.788 -1.1288 -1.3818  1.4378
13002TIP3    H238952   5.722   7.867   6.787  0.1031 -2.2949 -1.5588
13003TIP3   OH238953   4.767   7.493   3.288 -0.6961  0.5516 -0.5302
13003TIP3    H138954   4.752   7.517   3.379 -0.1398  0.5020 -0.4207
13003TIP3    H238955   4.725   7.408   3.277 -0.2161  0.2605 -0.1454
13004TIP3   OH238956   7.439   1.158   5.242  0.2147  0.2354 -0.0014
13004TIP3    H138957   7.461   1.069   5.272  3.4169  0.7061 -0.8237
13004TIP3    H238958   7.404   1.145   5.153  0.8685 -0.1891 -0.2001
13005TIP3   OH238959   0.178   0.159   6.665  0.5048 -0.3631 -0.3735
13005TIP3    H138960   0.177   0.236   6.609  0.2189 -0.0734  0.0204
13005TIP3    H238961   0.198   0.193   6.752  1.8242 -0.9197 -0.4534
13006TIP3   OH238962   4.258   7.306   4.236 -0.2262  0.7310 -0.6087
13006TIP3    H138963   4.255   7.305   4.332 -1.0502 -3.1051 -0.5614
13006TIP3    H238964   4.167   7.290   4.209  0.0026  1.7604 -2.0199
13007TIP3   OH238965   2.427   7.041   3.559  0.0115  0.3586  0.4140
13007TIP3    H138966   2.382   7.106   3.505  1.6086  1.0612 -0.1071
13007TIP3    H238967   2.395   7.057   3.648 -1.1718  0.4756 -0.0267
13008TIP3   OH238968   3.111   3.980   0.132  0.1468 -0.2407  0.0874
13008TIP3    H138969   3.159   3.945   0.057 -0.6853  0.9676 -1.0416
13008TIP3    H238970   3.045   3.914   0.152 -0.2929 -0.1090 -0.9137
13009TIP3   OH238971   4.699   7.584   6.182 -0.7521 -0.3371  0.0927
13009TIP3    H138972   4.745   7.637   6.117 -0.7011  0.1958  0.5597
13009TIP3    H238973   4.606   7.592   6.158 -0.8442  0.8478  0.7972
13010TIP3   OH238974   7.535   2.414   5.917 -0.4278  0.1521  0.0996
13010TIP3    H138975   7.550   2.497   5.962  2.7333  0.9810 -2.2875
13010TIP3    H238976   7.554   2.347   5.983 -0.3282  1.3225  1.2691
13011TIP3   OH238977   4.690   7.006   2.483 -0.0678 -0.1560  0.0769
13011TIP3    H138978   4.768   6.954   2.502 -0.2862 -0.3356  0.4914
13011TIP3    H238979   4.630   6.986   2.555  0.2478  1.4542  0.7993
13012TIP3   OH238980   4.628   6.116   2.884  0.8088 -0.3829  0.3517
13012TIP3    H138981   4.615   6.022   2.885  0.3824 -0.3197  0.7207
13012TIP3    H238982   4.559   6.151   2.941 -0.1808  0.2788 -1.1920
13013TIP3   OH238983   8.085   5.397   1.462 -0.4522  0.4744  0.1479
13013TIP3    H138984   8.041   5.363   1.384 -0.3101  0.7713 -0.0631
13013TIP3    H238985   8.170   5.426   1.431 -0.2192  0.1724  0.5033
13014TIP3   OH238986   7.520   2.997   4.624 -0.2992 -0.2552 -0.0943
13014TIP3    H138987   7.469   3.001   4.543 -2.3002  0.1781  1.1622
13014TIP3    H238988   7.484   2.923   4.672  0.1671  0.1333  0.8783
13015TIP3   OH238989   2.027   3.712   0.330  0.1291  0.4912 -0.2523
13015TIP3    H138990   2.114   3.690   0.298  0.2911  0.9478 -0.1285
13015TIP3    H238991   1.987   3.763   0.259 -0.0931  0.1523 -0.3717
13016TIP3   OH238992   6.257   0.310   4.235  0.3618 -0.3076 -0.2276
13016TIP3    H138993   6.316   0.322   4.161  0.6059  1.7945  0.2725
13016TIP3    H238994   6.169   0.312   4.197  0.5316 -1.0446 -0.6681
13017TIP3   OH238995   5.754   0.765   5.333 -0.3637 -0.0085 -0.5867
13017TIP3    H138996   5.776   0.729   5.419 -1.2583 -0.3574 -0.4990
13017TIP3    H238997   5.703   0.844   5.352 -0.9092 -0.3103 -0.8002
13018TIP3   OH238998   3.394   0.877   4.441 -0.1775 -0.5690 -0.7151
13018TIP3    H138999   3.344   0.818   4.498 -0.5807 -0.4787 -0.9686
13018TIP3    H239000   3.484   0.869   4.472 -0.2947 -0.9872 -0.4623
13019TIP3   OH239001   3.279   6.119   3.229  0.3273  0.2271 -0.2741
13019TIP3    H139002   3.225   6.126   3.308  1.0385  0.6084  0.1805
13019TIP3    H239003   3.268   6.029   3.200 -2.0338  0.7654 -1.2455
13020TIP3   OH239004   4.539   6.352   6.039 -0.2009 -0.0623  0.1820
13020TIP3    H139005   4.474   6.330   5.972 -0.4118  0.9594  0.0367
13020TIP3    H239006   4.507   6.434   6.077  0.6168  0.0590  0.6166
13021TIP3   OH239007   1.741   7.179   3.724 -0.1432 -0.3068  0.2333
13021TIP3    H139008   1.654   7.214   3.743 -0.4429 -0.0685 -1.5022
13021TIP3    H239009   1.778   7.240   3.660  1.3507 -0.3465  1.0559
13022TIP3   OH239010   7.824   0.459   4.093 -0.0140 -0.3121  0.1925
13022TIP3    H139011   7.903   0.414   4.063  0.6284  0.2610  1.0265
13022TIP3    H239012   7.825   0.449   4.188  1.0935  3.0004  0.5682
13023TIP3   OH239013   4.688   6.694   5.451 -0.1069 -0.2373  0.7379
13023TIP3    H139014   4.699   6.631   5.380  0.9038 -0.7801  1.3745
13023TIP3    H239015   4.644   6.645   5.520 -1.3163  0.3595  0.3990
13024TIP3   OH239016   4.152   0.787   6.099 -0.2276 -0.2030  0.1726
13024TIP3    H139017   4.134   0.698   6.128  1.2818  0.1265  2.2470
13024TIP3    H239018   4.195   0.828   6.174 -0.7536  2.2245 -0.8145
13025TIP3   OH239019   1.835   5.069   0.727  0.5901 -0.1032  0.5544
13025TIP3    H139020   1.853   5.005   0.658 -0.8155  0.8278 -0.7017
13025TIP3    H239021   1.847   5.154   0.684 -1.1292  0.4911  1.2139
13026TIP3   OH239022   8.213   0.668   4.616 -0.1926 -0.4717  0.4747
13026TIP3    H139023   8.185   0.753   4.581  0.5602 -0.3627  0.1352
13026TIP3    H239024   8.236   0.617   4.539 -0.9124 -1.0912  0.6576
13027TIP3   OH239025   3.104   6.950   4.018 -0.3656 -0.0960  0.0970
13027TIP3    H139026   3.193   6.950   3.985 -0.1992 -0.1145  0.5460
13027TIP3    H239027   3.110   6.908   4.104 -0.6827  0.6149  0.4658
13028TIP3   OH239028   6.591   0.387   5.727  0.6233  0.4679  0.2025
13028TIP3    H139029   6.554   0.313   5.775  0.3184  1.0684  0.8918
13028TIP3    H239030   6.683   0.365   5.718  0.5295 -0.0155  0.3620
13029TIP3   OH239031   3.795   2.386   0.125  0.3608 -0.5721 -0.1508
13029TIP3    H139032   3.830   2.304   0.090  0.3688 -0.9883  0.8217
13029TIP3    H239033   3.867   2.449   0.116  0.6578 -0.9021 -0.0767
13030TIP3   OH239034   7.787   0.076   4.973  0.4945  0.3891  0.1802
13030TIP3    H139035   7.725   0.014   5.012  1.3052  0.4236  1.5610
13030TIP3    H239036   7.737   0.120   4.905 -0.1630 -1.5917 -0.6407
13031TIP3   OH239037   1.666   7.093   2.832 -0.3628 -0.7034  0.2735
13031TIP3    H139038   1.652   7.119   2.923 -0.1403 -0.2595  0.1815
13031TIP3    H239039   1.578   7.075   2.799 -0.5775  0.4714  0.1806
13032TIP3   OH239040   6.652   0.478   3.893 -0.9941  0.3467 -0.3355
13032TIP3    H139041   6.724   0.471   3.956 -0.2559  0.5162 -1.1602
13032TIP3    H239042   6.683   0.431   3.816 -1.6095  0.7702 -0.8404
13033TIP3   OH239043   2.114   7.767   5.506  0.3081  0.3632 -0.7211
13033TIP3    H139044   2.029   7.786   5.466  0.9260  0.1785 -2.1347
13033TIP3    H239045   2.127   7.673   5.493  0.4871  0.2879 -0.0265
13034TIP3   OH239046   5.898   0.663   6.187  0.0584 -0.3223 -0.2809
13034TIP3    H139047   5.904   0.603   6.113  0.0123 -1.6163  0.7421
13034TIP3    H239048   5.806   0.692   6.188 -0.0813 -0.7640 -0.3796
13035TIP3   OH239049   0.342   0.954   5.878 -0.2075  0.0083 -0.3525
13035TIP3    H139050   0.283   0.883   5.851 -0.6338  0.0429  0.4707
13035TIP3    H239051   0.284   1.026   5.901  0.1813  0.2500 -0.1221
13036TIP3   OH239052   5.377   5.157   3.795  0.5644  0.2489  0.0830
13036TIP3    H139053   5.283   5.142   3.783  0.4842 -0.4803  1.5315
13036TIP3    H239054   5.402   5.213   3.722 -0.6681 -0.8578 -1.2026
13037TIP3   OH239055   5.689   2.193   4.312 -0.6385  0.0197  0.3166
13037TIP3    H139056   5.681   2.104   4.347 -0.2314 -1.2978 -2.7820
13037TIP3    H239057   5.601   2.229   4.316 -0.9643 -0.8137  0.7884
13038TIP3   OH239058   2.829   7.330   4.886 -0.8943 -0.0272  0.3875
13038TIP3    H139059   2.802   7.256   4.832 -0.4425  1.9644 -2.6721
13038TIP3    H239060   2.898   7.295   4.942 -1.3750 -2.1476 -0.2980
13039TIP3   OH239061   1.551   8.013   5.606 -0.2108  0.5934  0.4667
13039TIP3    H139062   1.543   7.919   5.622  0.3253  0.6455  1.0598
13039TIP3    H239063   1.590   8.019   5.519 -1.9327  0.2956 -0.3363
13040TIP3   OH239064   3.947   7.093   5.558  0.3111  0.8967  0.2115
13040TIP3    H139065   3.897   7.023   5.516 -0.5052  0.6907  1.5002
13040TIP3    H239066   4.023   7.049   5.596  0.8182  1.0187 -0.6283
13041TIP3   OH239067   4.635   0.747   1.235  0.2527 -0.4679 -0.4715
13041TIP3    H139068   4.670   0.665   1.270  0.6509  0.4048  1.2536
13041TIP3    H239069   4.699   0.813   1.259 -0.4140  0.4633 -1.2191
13042TIP3   OH239070   0.987   0.876   6.030  0.2095 -0.0388  0.1284
13042TIP3    H139071   0.948   0.958   6.059  1.7254  0.5014  0.7366
13042TIP3    H239072   0.971   0.873   5.936 -0.8100  0.4108  0.2836
13043TIP3   OH239073   5.614   0.287   6.047 -0.6505  0.3832 -0.6125
13043TIP3    H139074   5.679   0.282   6.117 -1.7373  1.5539  0.5257
13043TIP3    H239075   5.569   0.203   6.049  0.2466 -0.1018 -0.8225
13044TIP3   OH239076   4.817   7.848   4.974  0.0638  0.5347 -0.3255
13044TIP3    H139077   4.769   7.855   4.892  1.0924 -3.2286 -1.3804
13044TIP3    H239078   4.900   7.806   4.949  1.6930  2.0955  2.2094
13045TIP3   OH239079   5.951   0.215   4.741 -0.1397  0.5084 -0.3154
13045TIP3    H139080   5.912   0.144   4.690 -0.8551  0.0734  0.8232
13045TIP3    H239081   6.044   0.213   4.717 -0.0966 -1.0179 -0.0525
13046TIP3   OH239082   0.248   3.124   5.853  0.0466  0.4926  0.0707
13046TIP3    H139083   0.189   3.198   5.838  0.3554  0.3868 -1.7373
13046TIP3    H239084   0.322   3.161   5.900 -0.9698  0.8264  1.4470
13047TIP3   OH239085   6.477   0.039   4.329 -0.2153  0.2376 -0.0858
13047TIP3    H139086   6.505   0.056   4.239  1.2590  0.4511  0.3897
13047TIP3    H239087   6.445  -0.051   4.328 -1.5101  0.6874 -1.1105
13048TIP3   OH239088   5.176   7.172   6.468  1.3013 -0.5122 -0.1243
13048TIP3    H139089   5.268   7.189   6.447  1.5977 -0.3136  1.2278
13048TIP3    H239090   5.161   7.221   6.550 -0.0159 -0.5160 -0.3518
13049TIP3   OH239091   8.262   0.852   4.061  0.0615 -0.3748  0.0999
13049TIP3    H139092   8.311   0.903   4.125 -0.4657 -0.5362  0.6359
13049TIP3    H239093   8.271   0.761   4.091 -2.0046 -0.2399  1.1876
13050TIP3   OH239094   8.102   2.703   5.875 -0.3158 -0.4495 -0.1833
13050TIP3    H139095   8.131   2.783   5.832 -2.0690  0.2504 -0.0960
13050TIP3    H239096   8.080   2.644   5.804 -1.3509  0.0211 -0.2652
13051TIP3   OH239097   3.063   7.852   4.861  0.2553 -0.4772 -0.4568
13051TIP3    H139098   2.990   7.904   4.830  1.2803  1.8983  0.9387
13051TIP3    H239099   3.126   7.853   4.789 -0.1988 -0.7695 -0.8615
13052TIP3   OH239100   5.077   7.104   4.286  0.1972 -0.0515 -0.6802
13052TIP3    H139101   5.047   7.153   4.209  1.1911  2.5001  0.5058
13052TIP3    H239102   5.167   7.078   4.264  0.4622  0.6299 -0.4035
13053TIP3   OH239103   7.469   0.185   5.805 -0.2849  0.0727 -0.0718
13053TIP3    H139104   7.402   0.235   5.852 -0.9632 -1.3508  0.4877
13053TIP3    H239105   7.523   0.147   5.873 -0.4706 -0.9119 -0.4666
13054TIP3   OH239106   4.628   7.454   5.908  0.0150  0.0571 -0.0912
13054TIP3    H139107   4.692   7.395   5.946 -2.7563 -2.1203  1.4452
13054TIP3    H239108   4.554   7.452   5.969 -1.0137  3.5205 -1.0884
13055TIP3   OH239109   5.059   7.708   6.788  0.0292 -0.1462 -0.2666
13055TIP3    H139110   5.101   7.778   6.838  0.6434 -0.2081 -0.6963
13055TIP3    H239111   4.999   7.754   6.729 -0.2033 -0.0347  0.0554
13056TIP3   OH239112   2.542   7.118   4.551 -0.1267  0.2293  0.2942
13056TIP3    H139113   2.458   7.145   4.588  1.0358  1.4897  2.1151
13056TIP3    H239114   2.567   7.191   4.494  0.0637  0.1512  0.2780
13057TIP3   OH239115   3.297   6.263   2.412 -0.3852 -0.1661 -0.4596
13057TIP3    H139116   3.270   6.284   2.501  0.9033  3.9245 -0.9263
13057TIP3    H239117   3.388   6.233   2.421 -0.5969 -0.7659 -0.3012
13058TIP3   OH239118   6.250   0.957   4.599  0.6042 -0.2081  0.9139
13058TIP3    H139119   6.195   0.893   4.553 -1.2075  1.2667  0.9632
13058TIP3    H239120   6.328   0.908   4.625  0.4663 -1.7116 -1.4246
13059TIP3   OH239121   2.611   7.401   4.455  0.2075 -0.0247 -0.3337
13059TIP3    H139122   2.540   7.454   4.420  0.8480  2.0216  1.3229
13059TIP3    H239123   2.623   7.433   4.545  1.1467 -2.4666  0.4725
13060TIP3   OH239124   5.474   0.043   5.987 -0.2104 -0.3161 -0.3479
13060TIP3    H139125   5.402   0.016   5.930  0.7607 -1.0546 -1.2272
13060TIP3    H239126   5.449   0.010   6.073 -1.3550  0.2238 -0.4544
13061TIP3   OH239127   6.512   0.055   4.069 -0.0261  0.1041 -0.3203
13061TIP3    H139128   6.474  -0.011   4.011 -0.5540 -0.1550  0.3159
13061TIP3    H239129   6.597   0.075   4.030 -1.4343  1.8445 -2.6325
13062TIP3   OH239130   5.521   6.321   6.744 -0.3648 -0.0318  0.3811
13062TIP3    H139131   5.593   6.383   6.733  0.8199 -1.1416  1.5460
13062TIP3    H239132   5.450   6.356   6.691 -0.4663  3.4291  2.6795
13063TIP3   OH239133   8.160   4.025   0.327 -0.0785  1.0142 -0.1913
13063TIP3    H139134   8.155   3.932   0.348 -0.9219  1.2394  0.6299
13063TIP3    H239135   8.226   4.030   0.258 -1.4454 -0.4392 -1.6521
13064TIP3   OH239136   3.640   7.988   3.506  0.1693 -0.8073  0.3538
13064TIP3    H139137   3.656   7.931   3.431  1.8242 -2.0898  1.6590
13064TIP3    H239138   3.590   8.061   3.469 -1.3043 -2.6677 -1.4941
13065TIP3   OH239139   8.393   0.910   3.833  0.1075 -0.0977 -0.0617
13065TIP3    H139140   8.365   0.885   3.921  1.2625 -2.1140 -0.2487
13065TIP3    H239141   8.474   0.959   3.848  0.3301 -0.4838 -0.0214
13066TIP3   OH239142   7.552   0.622   4.767  0.0702 -0.1370  0.0200
13066TIP3    H139143   7.483   0.586   4.823 -0.9627  2.2796  0.3584
13066TIP3    H239144   7.632   0.580   4.797 -0.7636 -0.3780  1.9668
13067TIP3   OH239145   8.462   0.250   5.353 -0.4211 -0.0196  0.4743
13067TIP3    H139146   8.404   0.306   5.405 -1.8164 -0.3626 -0.6998
13067TIP3    H239147   8.532   0.309   5.324 -1.0836  0.7860  0.4868
13068TIP3   OH239148   0.681   0.633   6.183  0.1007  0.0575 -0.4349
13068TIP3    H139149   0.681   0.543   6.215  1.6547 -0.6539 -2.3682
13068TIP3    H239150   0.712   0.627   6.093  0.7798  2.5863 -0.4079
13069TIP3   OH239151   7.356   1.908   5.629 -0.1855 -0.2375  0.4183
13069TIP3    H139152   7.390   1.949   5.709  0.9136  1.2790 -0.8069
13069TIP3    H239153   7.269   1.945   5.617 -1.2229 -2.0450  2.0343
13070TIP3   OH239154   6.922   0.110   4.699 -0.8353 -0.2954 -0.2087
13070TIP3    H139155   6.914   0.015   4.691 -0.7704 -0.4090  0.9884
13070TIP3    H239156   6.848   0.135   4.755  0.6722  0.0282  1.6659
13071TIP3   OH239157   6.778   1.679   3.178  0.4606 -0.5539  0.5788
13071TIP3    H139158   6.861   1.721   3.199  0.3134 -0.6675  1.3847
13071TIP3    H239159   6.755   1.714   3.092  1.2297 -0.3554  0.4500
13072TIP3   OH239160   8.111   3.720   0.112 -0.3469 -0.1237  0.1172
13072TIP3    H139161   8.059   3.645   0.139  1.2479 -1.4820 -0.4605
13072TIP3    H239162   8.178   3.728   0.180  0.2963 -0.0786 -0.5109
13073TIP3   OH239163   6.055   0.885   3.342 -0.1794 -0.2861  0.1357
13073TIP3    H139164   6.041   0.956   3.404  0.9330  0.0213  0.0528
13073TIP3    H239165   6.078   0.809   3.396  0.2178 -0.1658  0.1388
13074TIP3   OH239166   6.813   1.079   3.467 -0.4703  0.3882  0.4160
13074TIP3    H139167   6.836   1.008   3.407 -2.1883 -0.6615  0.9515
13074TIP3    H239168   6.880   1.145   3.452  0.6912 -0.9871 -0.7066
13075TIP3   OH239169   1.393   7.769   4.370 -0.2121 -0.8169 -0.5548
13075TIP3    H139170   1.482   7.743   4.393 -0.7396 -1.2214  1.1297
13075TIP3    H239171   1.360   7.812   4.449 -2.8744 -4.2094  0.2764
13076TIP3   OH239172   7.448   1.157   4.205 -0.2904 -0.4035 -0.0402
13076TIP3    H139173   7.416   1.232   4.254  0.1009  0.3352 -0.9038
13076TIP3    H239174   7.459   1.088   4.271 -0.7189  0.2711  0.7405
13077TIP3   OH239175   1.673   5.682   0.395 -0.1062 -0.1955  0.2826
13077TIP3    H139176   1.720   5.624   0.455  0.0763 -1.5087 -1.1220
13077TIP3    H239177   1.741   5.740   0.360 -0.4336  1.5077  2.3800
13078TIP3   OH239178   3.206   2.274   0.891  0.1816 -0.0454 -0.1613
13078TIP3    H139179   3.193   2.240   0.803 -1.5577  0.3266 -0.0689
13078TIP3    H239180   3.256   2.354   0.879 -1.5250  0.9302 -0.9910
13079TIP3   OH239181   4.176   6.461   6.676  0.4475 -0.5474 -0.1895
13079TIP3    H139182   4.227   6.453   6.595 -0.4902  1.2272 -0.9620
13079TIP3    H239183   4.085   6.450   6.649  0.0579  0.9255  0.4820
13080TIP3   OH239184   3.948   7.426   6.454 -0.0210 -0.0989  0.2543
13080TIP3    H139185   3.996   7.366   6.511 -0.2674  0.5041  1.1221
13080TIP3    H239186   3.969   7.513   6.489 -1.8323  0.1698  0.7332
13081TIP3   OH239187   8.209   2.538   3.257 -0.2804 -0.5273 -0.5746
13081TIP3    H139188   8.240   2.563   3.170  2.2506  0.1481  0.4743
13081TIP3    H239189   8.241   2.449   3.270 -0.3874 -0.5125 -0.2113
13082TIP3   OH239190   1.519   3.912   0.139 -0.0381  0.1464 -0.1830
13082TIP3    H139191   1.461   3.975   0.097 -1.7131 -2.0491 -1.2893
13082TIP3    H239192   1.475   3.827   0.128  1.7745 -1.1385  1.8951
13083TIP3   OH239193   2.352   3.891   0.869 -0.1854 -0.2083  0.1737
13083TIP3    H139194   2.369   3.952   0.797  0.6318 -0.8959 -0.2139
13083TIP3    H239195   2.290   3.938   0.925 -0.5499  0.4717 -0.7878
13084TIP3   OH239196   2.146   7.420   5.004  0.3897  0.2449 -0.3146
13084TIP3    H139197   2.196   7.338   4.998 -0.7059 -0.3375 -1.8984
13084TIP3    H239198   2.210   7.489   4.987  1.5486 -0.1952  2.1491
13085TIP3   OH239199   7.851   0.435   6.057 -0.1742  0.1254  0.6294
13085TIP3    H139200   7.839   0.423   5.963 -1.4893 -0.5907  0.8723
13085TIP3    H239201   7.781   0.495   6.083  0.9616  1.3277  0.9412
13086TIP3   OH239202   5.322   7.046   4.928 -0.1333  0.1692  0.8509
13086TIP3    H139203   5.231   7.021   4.944 -0.3066  0.3628  0.1923
13086TIP3    H239204   5.317   7.123   4.871  0.4464 -1.8931 -2.1745
13087TIP3   OH239205   3.093   7.542   4.916 -0.0381  0.5239 -0.1164
13087TIP3    H139206   3.141   7.460   4.930 -0.3447  0.2351 -0.7363
13087TIP3    H239207   3.124   7.574   4.831 -0.3969  0.7161 -0.1748
13088TIP3   OH239208   0.887   2.155   6.135  0.0587  0.2916  0.2013
13088TIP3    H139209   0.846   2.094   6.196  1.1118  2.0247  2.7011
13088TIP3    H239210   0.973   2.117   6.117 -0.5499 -0.6207 -0.8770
13089TIP3   OH239211   1.517   0.892   5.155  0.3144 -0.0611  0.5086
13089TIP3    H139212   1.524   0.796   5.150 -0.4170 -0.1982  2.0569
13089TIP3    H239213   1.572   0.923   5.083  0.3391 -1.6492 -0.1914
13090TIP3   OH239214   5.236   7.811   5.255 -0.6251  0.0555  0.3981
13090TIP3    H139215   5.155   7.767   5.282 -0.5969 -1.2319 -1.4812
13090TIP3    H239216   5.211   7.862   5.179  0.4907 -1.0146 -0.6989
13091TIP3   OH239217   6.982   0.162   4.435  0.2796  0.1994  0.3623
13091TIP3    H139218   6.978   0.132   4.526  0.8945  2.0217  1.0135
13091TIP3    H239219   6.892   0.153   4.402 -0.2807  1.0387  1.6492
13092TIP3   OH239220   1.214   1.401   5.187 -0.2556 -0.0181 -0.6789
13092TIP3    H139221   1.126   1.406   5.150  0.5636  1.8305 -2.4843
13092TIP3    H239222   1.259   1.336   5.132 -0.3888 -0.7072  0.0231
13093TIP3   OH239223   6.437   0.746   5.342  0.1002 -0.0161 -0.2580
13093TIP3    H139224   6.520   0.756   5.294  0.9197  0.3032  1.1965
13093TIP3    H239225   6.381   0.815   5.308  0.8059  0.4480 -0.4923
13094TIP3   OH239226   3.160   7.340   2.976  0.4881  0.0349 -0.0197
13094TIP3    H139227   3.104   7.348   2.898  1.0634 -3.2697 -0.8608
13094TIP3    H239228   3.099   7.344   3.049 -0.3912  0.3583 -0.7540
13095TIP3   OH239229   7.444   0.292   6.890 -0.1279 -0.3177 -0.6712
13095TIP3    H139230   7.461   0.254   6.804  1.7072  0.3066 -0.5915
13095TIP3    H239231   7.530   0.316   6.924 -0.5845 -2.6779  2.3470
13096TIP3   OH239232   6.471   0.024   6.243  0.0226  0.1728 -0.1084
13096TIP3    H139233   6.449  -0.018   6.326 -0.0408 -1.2953 -0.8496
13096TIP3    H239234   6.565   0.008   6.233  0.2991  1.4664  0.2861
13097TIP3   OH239235   5.477   7.751   5.577  0.1042 -0.4585 -0.3427
13097TIP3    H139236   5.498   7.825   5.521  2.0548 -0.0757  0.8529
13097TIP3    H239237   5.515   7.773   5.662  0.5822 -2.7526  0.0823
13098TIP3   OH239238   4.310   0.385   4.121 -0.2570  0.3858  0.0350
13098TIP3    H139239   4.279   0.308   4.169  0.1440  0.6116  0.6663
13098TIP3    H239240   4.380   0.420   4.176 -0.0172  0.8382 -0.5626
13099TIP3   OH239241   4.932   5.926   2.998  0.5463  0.4536  0.5104
13099TIP3    H139242   4.848   5.907   3.041  0.5462 -0.5466  0.0782
13099TIP3    H239243   4.991   5.949   3.070 -0.4980  2.7242  0.6881
13100TIP3   OH239244   4.533   6.513   6.423  0.3542  0.1034 -0.4321
13100TIP3    H139245   4.494   6.597   6.448  0.4545 -0.4261  1.6204
13100TIP3    H239246   4.482   6.484   6.347 -0.5523  1.3878 -0.3223
13101TIP3   OH239247   7.689   3.333   6.757  0.1616 -0.2475  0.0716
13101TIP3    H139248   7.700   3.335   6.662  0.0659 -0.3802  0.0576
13101TIP3    H239249   7.595   3.339   6.770  0.3186  2.4437  0.2469
13102TIP3   OH239250   3.725   7.540   5.571  0.2953  0.4217 -0.5345
13102TIP3    H139251   3.760   7.535   5.483  1.5450  2.1771 -0.1656
13102TIP3    H239252   3.777   7.479   5.622 -0.0781 -0.2004 -0.8952
13103TIP3   OH239253   4.080   3.368   0.775  0.2235 -0.8157  0.1737
13103TIP3    H139254   4.027   3.387   0.697  1.3500  0.0668 -0.3946
13103TIP3    H239255   4.020   3.379   0.848 -0.6897 -1.0230 -0.5372
13104TIP3   OH239256   5.890   5.962   4.311  0.2096 -0.0717 -0.0696
13104TIP3    H139257   5.948   5.923   4.246  0.4280  1.9842 -1.1597
13104TIP3    H239258   5.824   5.895   4.327 -0.8559 -0.0462 -3.7208
13105TIP3   OH239259   1.065   3.001   0.231  0.2014  0.3911 -0.5456
13105TIP3    H139260   1.034   2.924   0.278  0.8012 -0.0347 -0.8322
13105TIP3    H239261   1.117   3.050   0.295 -0.8937  1.0116 -0.1177
13106TIP3   OH239262   1.969   3.331   0.897 -0.0701 -0.1268  0.2358
13106TIP3    H139263   1.916   3.373   0.965 -0.3159  1.0405 -0.6555
13106TIP3    H239264   1.906   3.283   0.844 -0.0697  0.1289 -0.0002
13107TIP3   OH239265   6.091   7.571   4.736 -0.4681 -0.4830 -0.1937
13107TIP3    H139266   6.138   7.651   4.757  0.4153 -1.3290  1.1779
13107TIP3    H239267   6.119   7.549   4.647  2.1819 -1.2119  0.7415
13108TIP3   OH239268   7.835   0.575   3.588 -0.0242 -0.4810  0.0247
13108TIP3    H139269   7.757   0.535   3.548 -0.7240  0.4559  0.4245
13108TIP3    H239270   7.829   0.667   3.563  0.1417 -0.1095  1.3228
13109TIP3   OH239271   7.077   1.365   4.186  0.2401 -0.1550  0.1288
13109TIP3    H139272   7.038   1.297   4.132 -2.1192  1.1051  0.1666
13109TIP3    H239273   7.062   1.446   4.138  0.0355  0.7332  1.6392
13110TIP3   OH239274   4.802   6.205   5.802  0.1548  0.1540  0.4452
13110TIP3    H139275   4.771   6.290   5.834  2.2225  0.8487  0.6875
13110TIP3    H239276   4.787   6.207   5.708  2.5031  1.8531  0.0527
13111TIP3   OH239277   5.670   7.215   6.337 -0.3532  0.4574 -0.1291
13111TIP3    H139278   5.670   7.302   6.296  2.7927 -0.0610 -1.3493
13111TIP3    H239279   5.759   7.203   6.368 -0.9731 -1.9935  0.8085
13112TIP3   OH239280   7.756   0.733   4.133  0.9408 -0.2643  0.5456
13112TIP3    H139281   7.780   0.644   4.109  0.0760 -0.3057 -0.1876
13112TIP3    H239282   7.787   0.787   4.060  0.6821 -0.0697  0.5780
13113TIP3   OH239283   6.078   7.009   5.594 -0.0640 -0.1937  0.3464
13113TIP3    H139284   6.163   6.974   5.565  0.3212  0.1165  1.1119
13113TIP3    H239285   6.037   7.039   5.513  0.0574 -1.4105 -0.1932
13114TIP3   OH239286   5.778   1.017   4.570 -0.2932  0.1720  0.3932
13114TIP3    H139287   5.741   0.950   4.628  1.5934 -1.1245  0.1388
13114TIP3    H239288   5.864   1.036   4.608 -0.0583  1.1046 -0.5915
13115TIP3   OH239289   2.020   7.969   2.724  0.0117  0.2499  0.1017
13115TIP3    H139290   1.954   7.942   2.789 -0.6413  1.1266 -0.1806
13115TIP3    H239291   2.087   8.013   2.776  0.1398 -0.2235  0.3384
13116TIP3   OH239292   4.210   7.504   6.245  0.3945 -0.2936  0.2247
13116TIP3    H139293   4.173   7.589   6.270  0.9033  0.0854 -0.3063
13116TIP3    H239294   4.159   7.440   6.296 -0.3877  0.2846  0.1762
13117TIP3   OH239295   3.776   7.278   4.633 -0.2667 -0.6984  0.1150
13117TIP3    H139296   3.839   7.219   4.675  0.1947 -0.0080  0.4178
13117TIP3    H239297   3.777   7.252   4.541  0.1531 -0.9739  0.1928
13118TIP3   OH239298   3.321   0.436   4.426 -0.1147 -0.1501  0.0155
13118TIP3    H139299   3.407   0.475   4.409  1.1033 -1.8008  2.1166
13118TIP3    H239300   3.295   0.470   4.511 -1.6713  0.4928 -0.6875
13119TIP3   OH239301   2.143   3.078   0.521 -0.1140  0.1183 -0.5939
13119TIP3    H139302   2.137   3.170   0.548 -1.8591 -0.1257 -0.0552
13119TIP3    H239303   2.171   3.032   0.600 -1.2154 -0.0654 -0.3036
13120TIP3   OH239304   5.925   5.291   3.762  0.0955  0.0938 -0.3284
13120TIP3    H139305   5.881   5.219   3.807 -0.4385  0.5598 -0.0957
13120TIP3    H239306   5.876   5.301   3.680  0.0038  0.3599 -0.2420
13121TIP3   OH239307   3.057   6.860   4.785  0.4388  0.0223  0.0991
13121TIP3    H139308   3.133   6.901   4.827 -0.5630  2.0676 -0.0210
13121TIP3    H239309   3.037   6.918   4.712 -0.3813 -1.2785 -0.7150
13122TIP3   OH239310   2.913   5.524   5.071  0.4495 -0.5477 -0.6803
13122TIP3    H139311   3.003   5.496   5.053  0.8154  0.0872  0.0853
13122TIP3    H239312   2.922   5.587   5.143 -0.6185 -0.5501 -0.5340
13123TIP3   OH239313   3.394   4.392   0.842  0.4491 -0.4566 -0.0714
13123TIP3    H139314   3.406   4.453   0.915 -0.6952  0.3949 -0.5820
13123TIP3    H239315   3.299   4.377   0.839  0.2546  0.9869 -2.5430
13124TIP3   OH239316   0.241   0.998   5.503 -0.3159 -0.1796  0.4931
13124TIP3    H139317   0.292   1.071   5.539 -1.1331 -0.4804  2.3143
13124TIP3    H239318   0.306   0.937   5.469  0.3930  1.2319 -0.7705
13125TIP3   OH239319   0.563   2.665   3.206  0.1478  0.0910  0.4116
13125TIP3    H139320   0.651   2.670   3.170  0.0613 -2.4590 -0.2402
13125TIP3    H239321   0.505   2.686   3.133  0.1511  0.7184  0.5796
13126TIP3   OH239322   7.616   0.117   4.145 -0.2501 -0.1565 -0.6255
13126TIP3    H139323   7.705   0.120   4.110 -0.4360  0.4900 -1.0533
13126TIP3    H239324   7.565   0.072   4.077  0.0801 -2.1116  0.3733
13127TIP3   OH239325   0.732   4.155   5.701 -0.0850 -0.1228 -0.3529
13127TIP3    H139326   0.736   4.187   5.791 -1.4694 -0.3389 -0.1951
13127TIP3    H239327   0.796   4.207   5.653  0.9505 -0.2875  0.8401
13128TIP3   OH239328   0.301   2.483   4.599  0.0315 -0.3098  0.3064
13128TIP3    H139329   0.351   2.520   4.671  2.4186 -0.2828 -1.3095
13128TIP3    H239330   0.349   2.403   4.575  0.2902  0.6089 -2.3694
13129TIP3   OH239331   1.385   1.559   5.019  0.0710  0.1284  0.4347
13129TIP3    H139332   1.323   1.494   5.052 -1.9969  1.4968 -0.6091
13129TIP3    H239333   1.330   1.635   4.997  2.0523  1.1812 -1.0345
13130TIP3   OH239334   7.929   2.860   3.344  0.2910 -0.5398  0.0790
13130TIP3    H139335   7.910   2.780   3.393 -0.9396  0.6117  1.5040
13130TIP3    H239336   7.981   2.913   3.404 -1.2708  0.9091  0.1533
13131TIP3   OH239337   2.006   3.389   0.128 -0.0614 -0.1630 -0.3606
13131TIP3    H139338   2.005   3.398   0.224 -0.6339 -0.0784 -0.3735
13131TIP3    H239339   2.087   3.433   0.101  0.4551 -0.7844  0.1401
13132TIP3   OH239340   1.056   0.876   4.815  0.4339 -0.0141  0.5464
13132TIP3    H139341   1.075   0.970   4.818  0.0420  0.0864 -0.1843
13132TIP3    H239342   1.109   0.843   4.743  0.6070 -0.3643  0.8338
13133TIP3   OH239343   5.563   3.676   1.442  0.2783 -0.1446  0.2996
13133TIP3    H139344   5.619   3.739   1.397 -1.2064  1.1027  0.1329
13133TIP3    H239345   5.490   3.729   1.475 -0.6476 -1.6824  0.7579
13134TIP3   OH239346   0.123   1.161   4.141 -0.0907  0.1953  0.2551
13134TIP3    H139347   0.172   1.174   4.222 -0.1515 -0.7550  0.4526
13134TIP3    H239348   0.062   1.234   4.137 -0.8388 -0.3427  1.6185
13135TIP3   OH239349   7.585   1.226   3.696 -0.0192 -0.1676  0.1972
13135TIP3    H139350   7.600   1.132   3.693  0.1276 -0.1346 -0.1590
13135TIP3    H239351   7.536   1.245   3.616  0.7394  0.1923 -0.1856
13136TIP3   OH239352   2.632   1.724   2.855 -0.1618  0.0139  0.1472
13136TIP3    H139353   2.690   1.649   2.862 -0.2271  0.1180  2.3489
13136TIP3    H239354   2.670   1.779   2.787  2.6990  0.3933  1.9762
13137TIP3   OH239355   1.498   1.750   4.454  0.3395  0.1266  0.3132
13137TIP3    H139356   1.490   1.660   4.485  1.2434  0.1094  0.5122
13137TIP3    H239357   1.425   1.761   4.393  0.6023 -0.9528 -0.2135
13138TIP3   OH239358   0.214   1.720   4.867 -0.0891  0.2271 -0.4352
13138TIP3    H139359   0.298   1.758   4.840 -0.2405  0.7342 -0.1890
13138TIP3    H239360   0.234   1.628   4.884  0.4988  0.4329 -0.0130
13139TIP3   OH239361   0.039   0.985   3.500 -0.9731 -0.4584  0.0566
13139TIP3    H139362   0.089   1.019   3.575 -0.9771  0.4017 -0.3214
13139TIP3    H239363   0.106   0.953   3.439 -0.9643 -1.0316  0.3638
13140TIP3   OH239364   6.705   1.503   3.917 -0.5053  0.7537 -0.5823
13140TIP3    H139365   6.669   1.434   3.861 -2.4947  0.8845  0.4863
13140TIP3    H239366   6.676   1.480   4.005  0.5198  1.8708  0.0535
13141TIP3   OH239367   6.726   1.681   4.920 -0.1381 -0.2265  0.2897
13141TIP3    H139368   6.778   1.669   4.840  0.8835  1.7532  0.6187
13141TIP3    H239369   6.759   1.615   4.980  0.0953 -0.7738 -0.4249
13142TIP3   OH239370   0.552   0.442   5.866  0.6169 -0.6492 -0.5979
13142TIP3    H139371   0.492   0.465   5.796 -1.0939  1.4935  1.5100
13142TIP3    H239372   0.620   0.509   5.862 -0.1218  0.1779  0.5230
13143TIP3   OH239373   7.710   1.549   2.969 -0.1298  0.2564 -0.2660
13143TIP3    H139374   7.737   1.588   3.052 -0.2793 -2.7686  1.2715
13143TIP3    H239375   7.789   1.549   2.916  0.9882 -1.3210  1.3329
13144TIP3   OH239376   6.068   7.812   6.829  0.6226 -0.3460 -0.1182
13144TIP3    H139377   6.004   7.815   6.758  0.6049 -1.9890 -0.1774
13144TIP3    H239378   6.020   7.772   6.902  0.4071  1.9800  1.0795
13145TIP3   OH239379   7.329   1.655   4.525  0.0095 -0.3026 -0.1904
13145TIP3    H139380   7.257   1.717   4.532  0.9916  0.7208  1.1832
13145TIP3    H239381   7.386   1.676   4.599  2.0576 -0.6661 -1.6230
13146TIP3   OH239382   1.549   0.324   6.138 -0.8285 -0.2091 -0.4920
13146TIP3    H139383   1.490   0.250   6.151  0.0363 -0.7533  0.5365
13146TIP3    H239384   1.574   0.320   6.046 -0.4905 -1.4340 -0.3525
13147TIP3   OH239385   5.670   7.060   4.159  0.2025  0.2110 -0.4803
13147TIP3    H139386   5.674   7.147   4.119  1.1432 -0.0615 -0.9905
13147TIP3    H239387   5.760   7.043   4.188  0.0093 -0.5653 -0.3340
13148TIP3   OH239388   0.786   0.675   4.687  0.2662  0.2663 -0.1818
13148TIP3    H139389   0.748   0.730   4.756  2.2105  0.2707  0.9243
13148TIP3    H239390   0.865   0.722   4.660  0.3009 -0.4740 -1.3805
13149TIP3   OH239391   4.094   7.206   3.414 -0.1218 -0.0626  0.3592
13149TIP3    H139392   4.180   7.165   3.424 -0.2135 -0.4471 -0.4081
13149TIP3    H239393   4.101   7.287   3.465  0.8930  0.2083 -0.1848
13150TIP3   OH239394   6.494   0.499   3.340 -0.3819 -0.0834  0.2230
13150TIP3    H139395   6.429   0.454   3.285  0.7940 -1.8830  0.2665
13150TIP3    H239396   6.448   0.515   3.422 -1.6209  1.0938 -0.6900
13151TIP3   OH239397   0.840   2.194   3.608 -0.2211  0.4639  0.1291
13151TIP3    H139398   0.910   2.130   3.598 -1.1874 -0.5804 -0.0300
13151TIP3    H239399   0.819   2.192   3.702  0.0242  0.8474  0.1936
13152TIP3   OH239400   7.413   4.897   4.614 -0.1556  0.3720  0.3024
13152TIP3    H139401   7.437   4.896   4.521  1.0056 -1.5323  0.5932
13152TIP3    H239402   7.324   4.862   4.616 -0.7069  1.6801 -0.1899
13153TIP3   OH239403   5.865   7.726   3.138 -0.4017 -0.1779 -0.2270
13153TIP3    H139404   5.850   7.658   3.204  1.1616 -2.3683 -2.0342
13153TIP3    H239405   5.926   7.787   3.180 -1.1184 -0.3659  1.1092
13154TIP3   OH239406   7.779   0.278   4.322  0.4864 -0.4967 -0.0993
13154TIP3    H139407   7.741   0.206   4.272  1.2610 -1.1774  0.2746
13154TIP3    H239408   7.714   0.297   4.390  0.8344 -1.7185  0.5971
13155TIP3   OH239409   0.802   0.522   5.632  0.0945  0.3526  0.2233
13155TIP3    H139410   0.860   0.523   5.708  1.5026 -0.8904 -0.8293
13155TIP3    H239411   0.797   0.614   5.604  2.8623  0.2495 -0.6777
13156TIP3   OH239412   7.450   1.205   1.334 -0.4438  0.4715  0.2081
13156TIP3    H139413   7.423   1.245   1.417  0.3231 -0.9080  1.1532
13156TIP3    H239414   7.454   1.111   1.353 -0.7956  0.0779 -1.5582
13157TIP3   OH239415   8.264   0.352   6.641 -0.0691 -0.1232  0.6550
13157TIP3    H139416   8.271   0.398   6.725 -1.4433  2.1700 -0.4102
13157TIP3    H239417   8.316   0.405   6.581 -1.6949  0.0873 -0.6156
13158TIP3   OH239418   5.163   7.293   2.427  0.3693  0.1268 -0.2602
13158TIP3    H139419   5.161   7.388   2.440 -1.1849  0.2844 -1.5083
13158TIP3    H239420   5.072   7.265   2.443  0.9634 -1.2600  0.8193
13159TIP3   OH239421   7.112   0.097   3.363  0.0164  0.0311  0.1187
13159TIP3    H139422   7.116   0.095   3.268  1.4065 -0.4096  0.1660
13159TIP3    H239423   7.183   0.156   3.388 -1.2296  1.2393  0.8348
13160TIP3   OH239424   8.486   2.102   5.627 -0.2613  0.4047 -0.3084
13160TIP3    H139425   8.417   2.037   5.640  0.3877 -0.6338 -1.9089
13160TIP3    H239426   8.563   2.065   5.671 -0.7449  1.6646  1.6686
13161TIP3   OH239427   1.082   3.468   4.163  0.2262 -0.5158 -0.3245
13161TIP3    H139428   1.027   3.399   4.200  1.0725 -0.8768  0.2813
13161TIP3    H239429   1.164   3.463   4.213  0.1840  1.1256 -0.0575
13162TIP3   OH239430   7.387   0.461   4.913 -0.1938  0.2024  0.8564
13162TIP3    H139431   7.379   0.484   5.005  0.4873 -2.7813  1.7077
13162TIP3    H239432   7.313   0.403   4.897 -0.4994  0.9599 -0.5935
13163TIP3   OH239433   4.694   6.185   4.791  0.1433  0.0011 -0.6233
13163TIP3    H139434   4.782   6.196   4.754 -1.1167 -0.8633 -4.0629
13163TIP3    H239435   4.652   6.270   4.779 -0.1425 -0.1695 -0.8476
13164TIP3   OH239436   8.352   0.118   1.884  0.1743  0.1665 -0.1489
13164TIP3    H139437   8.320   0.187   1.827 -0.8163  0.2295  0.4693
13164TIP3    H239438   8.277   0.059   1.895  0.7430 -0.5334  0.0343
13165TIP3   OH239439   3.651   6.122   3.704  0.3075 -0.2627  0.4925
13165TIP3    H139440   3.565   6.083   3.720 -1.4060  2.0083 -2.5676
13165TIP3    H239441   3.679   6.086   3.620  1.8874 -0.1579  0.9484
13166TIP3   OH239442   5.853   7.968   3.800 -0.1868 -0.1486  0.2790
13166TIP3    H139443   5.760   7.987   3.789 -0.0192  0.8333  0.5577
13166TIP3    H239444   5.857   7.872   3.809 -0.9200 -0.4630 -2.2715
13167TIP3   OH239445   4.512   7.416   3.107  0.3048  0.3782 -0.0483
13167TIP3    H139446   4.598   7.389   3.078  0.0878  0.1063 -0.4400
13167TIP3    H239447   4.504   7.381   3.196 -0.5186 -2.0311 -1.0478
13168TIP3   OH239448   5.507   7.495   5.426  0.2705  0.1505  0.2427
13168TIP3    H139449   5.556   7.531   5.351 -1.5580  0.4850 -0.8275
13168TIP3    H239450   5.495   7.570   5.484 -1.8940  0.9021 -1.1037
13169TIP3   OH239451   4.520   3.733   0.868  0.3593  0.6125  0.2407
13169TIP3    H139452   4.449   3.702   0.926  0.8476  1.7140  1.4544
13169TIP3    H239453   4.481   3.805   0.819 -0.7433 -1.7461 -2.5066
13170TIP3   OH239454   6.625   7.149   5.234 -0.9271  0.3185 -0.1353
13170TIP3    H139455   6.682   7.132   5.159  0.1586  1.4587  0.4189
13170TIP3    H239456   6.542   7.107   5.211  0.1910 -1.5258 -0.8506
13171TIP3   OH239457   0.218   0.401   2.815 -0.0645  0.2202  0.1969
13171TIP3    H139458   0.194   0.431   2.728  0.6410 -1.1095 -0.4675
13171TIP3    H239459   0.314   0.406   2.816 -0.0862  0.6198  1.0483
13172TIP3   OH239460   2.527   2.523   2.381 -0.2184 -0.2062 -0.4075
13172TIP3    H139461   2.607   2.553   2.424  0.1678  0.8865 -1.8304
13172TIP3    H239462   2.489   2.603   2.343 -0.4091 -1.1741 -2.2935
13173TIP3   OH239463   0.671   0.343   3.185  0.4076  0.1454  0.0746
13173TIP3    H139464   0.696   0.289   3.111  0.6121  0.8957 -0.4082
13173TIP3    H239465   0.749   0.347   3.240  0.2239 -0.4952  0.3831
13174TIP3   OH239466   1.048   0.500   5.087  0.6493 -0.0398 -0.0603
13174TIP3    H139467   1.121   0.491   5.025  0.1353  0.8307 -0.8002
13174TIP3    H239468   1.067   0.435   5.155  1.6078 -0.4990 -0.7453
13175TIP3   OH239469   2.750   5.716   1.327 -0.0217  0.2480 -0.0031
13175TIP3    H139470   2.735   5.774   1.253 -0.0003 -0.0900 -0.2706
13175TIP3    H239471   2.819   5.658   1.299  0.1002  0.2235  0.3427
13176TIP3   OH239472   6.551   6.755   5.119 -0.0981 -0.4355  0.3409
13176TIP3    H139473   6.599   6.804   5.185 -0.9468  2.1401 -0.8920
13176TIP3    H239474   6.459   6.761   5.146 -0.1833 -1.7541  0.4032
13177TIP3   OH239475   5.023   7.483   3.437  0.1973  0.4830 -0.1690
13177TIP3    H139476   5.037   7.497   3.343 -1.1993 -0.3222 -0.5020
13177TIP3    H239477   4.980   7.563   3.467 -0.9348  0.0397 -0.5761
13178TIP3   OH239478   5.722   3.573   1.651  0.1165 -0.4611 -0.6426
13178TIP3    H139479   5.692   3.487   1.679 -1.0246 -0.0670 -0.6212
13178TIP3    H239480   5.713   3.573   1.556 -0.5690 -0.1245 -0.5838
13179TIP3   OH239481   1.638   0.378   5.859 -0.2002  0.2816  0.2004
13179TIP3    H139482   1.733   0.373   5.851  0.0041  3.3112  0.1998
13179TIP3    H239483   1.614   0.456   5.810 -2.4231  0.9964  2.3195
13180TIP3   OH239484   5.105   7.580   4.104 -0.4615  0.2608  0.2837
13180TIP3    H139485   5.181   7.527   4.124  0.6810  1.1531 -1.5620
13180TIP3    H239486   5.097   7.640   4.178  0.4307 -0.0426  0.6252
13181TIP3   OH239487   1.492   0.753   5.611  0.2041 -0.2888 -0.2772
13181TIP3    H139488   1.478   0.720   5.699 -1.0521  2.4021  0.5804
13181TIP3    H239489   1.580   0.722   5.587 -0.4647 -3.2058  0.8738
13182TIP3   OH239490   7.881   2.375   4.520 -0.0494 -0.2902 -0.2991
13182TIP3    H139491   7.924   2.427   4.588 -0.2503 -0.7573  0.1897
13182TIP3    H239492   7.799   2.346   4.560 -0.7263  0.4229 -1.1500
13183TIP3   OH239493   8.195   0.663   2.621  0.2558 -0.3053  0.2822
13183TIP3    H139494   8.118   0.706   2.659  0.6648  0.4229  0.3033
13183TIP3    H239495   8.223   0.601   2.688 -0.5211 -0.8231  0.1288
13184TIP3   OH239496   6.259   1.240   4.662  0.0896 -0.3962 -0.1658
13184TIP3    H139497   6.312   1.269   4.588 -0.0807  0.5010  0.0539
13184TIP3    H239498   6.249   1.146   4.649  0.9967 -0.4340 -0.6821
13185TIP3   OH239499   5.818   8.009   2.813  0.3066  0.4022  0.1910
13185TIP3    H139500   5.752   7.971   2.871  0.9158 -0.8200  0.0972
13185TIP3    H239501   5.767   8.057   2.747 -0.5093 -0.7290 -0.0272
13186TIP3   OH239502   1.544   1.612   4.143  0.0731  0.1891  0.3243
13186TIP3    H139503   1.476   1.556   4.180  0.8102 -0.1707  1.1555
13186TIP3    H239504   1.617   1.605   4.205  0.3100  1.7669  0.2355
13187TIP3   OH239505   3.924   7.555   4.063  0.6433 -0.3310  0.2864
13187TIP3    H139506   4.020   7.548   4.066  0.7756  1.2503  0.5994
13187TIP3    H239507   3.904   7.623   4.127 -0.5619  0.3944 -0.8476
13188TIP3   OH239508   0.488   0.589   4.998 -0.7690 -0.1385 -0.0768
13188TIP3    H139509   0.516   0.675   5.029 -1.8361 -0.0679  0.6958
13188TIP3    H239510   0.454   0.606   4.910  2.7968 -0.4339 -1.6146
13189TIP3   OH239511   7.800   1.147   4.836 -0.1148  0.5423 -0.3162
13189TIP3    H139512   7.840   1.064   4.860  0.8661  1.2609  0.5560
13189TIP3    H239513   7.717   1.148   4.883 -0.4291 -0.2085 -0.8304
13190TIP3   OH239514   5.747   7.323   4.071 -0.4707 -0.2943  0.2131
13190TIP3    H139515   5.738   7.406   4.119 -0.3400 -1.0020  1.4744
13190TIP3    H239516   5.839   7.319   4.047 -0.1929 -0.7106  1.3297
13191TIP3   OH239517   7.593   1.163   1.113 -0.1705 -0.0543  0.0555
13191TIP3    H139518   7.541   1.183   1.191 -0.2318  0.5622 -0.1445
13191TIP3    H239519   7.546   1.091   1.071 -0.9172  0.5600 -0.1723
13192TIP3   OH239520   0.495   1.996   4.371 -0.1661  0.2486 -0.5268
13192TIP3    H139521   0.434   1.943   4.319  1.5676 -1.5575 -0.7870
13192TIP3    H239522   0.571   2.008   4.314  0.7189  0.3814  0.6647
13193TIP3   OH239523   8.150   1.826   4.964  0.0173  0.2178 -0.0297
13193TIP3    H139524   8.137   1.898   5.026 -1.0744  0.9234 -1.0459
13193TIP3    H239525   8.131   1.747   5.013 -0.6102  0.7539  0.5966
13194TIP3   OH239526   1.413   1.150   6.711 -0.3782 -0.3203 -0.4045
13194TIP3    H139527   1.508   1.145   6.696 -0.1387 -0.2525  1.1051
13194TIP3    H239528   1.387   1.233   6.669  0.0629 -0.7914 -1.6423
13195TIP3   OH239529   0.770   2.174   3.073  0.0004  0.7001 -0.6872
13195TIP3    H139530   0.805   2.215   3.152 -1.0516  1.6920 -0.7233
13195TIP3    H239531   0.843   2.177   3.011  0.8073 -0.0206  0.2130
13196TIP3   OH239532   4.861   7.007   6.114 -0.1324 -0.2763 -0.6043
13196TIP3    H139533   4.845   7.000   6.208 -0.1829 -0.5735 -0.6343
13196TIP3    H239534   4.953   7.034   6.107 -0.0201 -0.6279 -0.4778
13197TIP3   OH239535   0.498   3.502   5.477 -0.7604  0.3037 -0.2738
13197TIP3    H139536   0.466   3.529   5.563  0.9306  0.3729  0.3592
13197TIP3    H239537   0.588   3.533   5.474 -0.1725 -1.3976 -1.2948
13198TIP3   OH239538   7.165   3.017   4.194 -0.0400  0.8712 -0.0653
13198TIP3    H139539   7.140   3.100   4.235 -1.2898  0.2476  0.4599
13198TIP3    H239540   7.108   2.952   4.235  1.1126 -0.2945 -0.2777
13199TIP3   OH239541   6.308   7.885   2.928  0.3180 -0.0917  0.3090
13199TIP3    H139542   6.289   7.793   2.910  1.2855 -0.3333  0.4926
13199TIP3    H239543   6.395   7.884   2.969  0.2985  0.8943  0.3808
13200TIP3   OH239544   0.320   0.884   2.099  0.0212  0.9740 -0.4661
13200TIP3    H139545   0.305   0.798   2.138  0.0862  1.2266  0.1110
13200TIP3    H239546   0.316   0.945   2.172  2.2547  1.2255 -0.5258
13201TIP3   OH239547   0.745   0.763   4.320 -0.6251 -0.5997 -0.2476
13201TIP3    H139548   0.812   0.780   4.386  0.0424  0.0762 -1.0756
13201TIP3    H239549   0.764   0.676   4.287 -0.9027 -0.8995  0.3850
13202TIP3   OH239550   6.090   0.457   4.562  0.4843 -0.4112  0.0808
13202TIP3    H139551   6.035   0.495   4.629  1.0567  0.3804  0.1062
13202TIP3    H239552   6.029   0.413   4.503 -0.2221  0.9176 -0.1958
13203TIP3   OH239553   7.457   0.163   5.374 -0.3308 -0.0445  0.0455
13203TIP3    H139554   7.396   0.114   5.429 -1.4343  1.6252  0.3423
13203TIP3    H239555   7.481   0.239   5.426  2.2976 -0.8526  0.0661
13204TIP3   OH239556   4.013   6.626   4.107 -0.1063  0.5573 -0.1963
13204TIP3    H139557   3.948   6.626   4.037 -1.3001  1.9045  0.8553
13204TIP3    H239558   4.031   6.534   4.124 -1.8351  0.1546 -0.4584
13205TIP3   OH239559   7.525   0.651   4.268  0.1533  0.6598 -0.3137
13205TIP3    H139560   7.528   0.556   4.270 -0.1358  0.5995 -1.6800
13205TIP3    H239561   7.605   0.679   4.313  0.5653 -0.2376 -0.4812
13206TIP3   OH239562   0.138   0.435   4.484 -0.3204 -1.0217  0.4366
13206TIP3    H139563   0.171   0.346   4.469  0.3691 -0.8413  0.9208
13206TIP3    H239564   0.168   0.485   4.408  1.9690 -0.4496  1.6944
13207TIP3   OH239565   4.349   7.666   1.845 -0.8585 -0.1351 -0.0637
13207TIP3    H139566   4.433   7.625   1.868 -1.0061 -1.5982 -2.0304
13207TIP3    H239567   4.348   7.667   1.750 -2.7750  0.5666 -0.0555
13208TIP3   OH239568   0.596   1.489   5.216  0.8516 -0.1709 -0.4144
13208TIP3    H139569   0.574   1.572   5.259 -1.0955 -1.3172  0.8908
13208TIP3    H239570   0.669   1.454   5.267  1.3123  0.4779 -0.6258
13209TIP3   OH239571   1.597   1.241   5.556  0.6891  0.3916 -0.5098
13209TIP3    H139572   1.556   1.175   5.500  0.3359  1.1622 -1.1691
13209TIP3    H239573   1.593   1.321   5.505 -1.4890  1.5868  1.4212
13210TIP3   OH239574   1.303   2.172   5.509 -0.5695  0.3754  0.2264
13210TIP3    H139575   1.212   2.200   5.494 -1.4797 -2.1759  0.7300
13210TIP3    H239576   1.317   2.100   5.447  0.3126 -0.7964  1.7509
13211TIP3   OH239577   6.471   3.259   4.463  0.5570 -0.5947 -0.6395
13211TIP3    H139578   6.445   3.330   4.521  0.6950 -1.3937  0.4239
13211TIP3    H239579   6.436   3.180   4.504  3.0059 -1.4734 -0.1678
13212TIP3   OH239580   8.015   2.652   4.193 -0.1184  0.3944  0.3309
13212TIP3    H139581   7.931   2.605   4.194 -0.8644  1.7050  2.0844
13212TIP3    H239582   8.006   2.716   4.123  0.5663 -1.4393 -1.4719
13213TIP3   OH239583   5.642   7.677   4.662  0.0789  0.1000  0.2027
13213TIP3    H139584   5.595   7.593   4.660 -0.2250  0.2805 -0.3872
13213TIP3    H239585   5.685   7.678   4.748  1.3102 -1.3283 -0.3713
13214TIP3   OH239586   8.060   0.080   4.298 -0.3818 -0.5940 -0.6144
13214TIP3    H139587   8.055   0.129   4.216 -2.4616 -0.3370 -0.3633
13214TIP3    H239588   8.098   0.142   4.360 -1.2670  0.1029 -0.7516
13215TIP3   OH239589   6.503   7.384   6.935  0.1688  0.2189 -0.2521
13215TIP3    H139590   6.540   7.297   6.918  0.0261  0.5247 -2.1869
13215TIP3    H239591   6.578   7.437   6.962  0.3989 -0.2847  0.1115
13216TIP3   OH239592   4.613   7.993   3.244 -0.0370 -0.1075 -0.4118
13216TIP3    H139593   4.580   7.919   3.193  0.3014 -0.9364  0.5567
13216TIP3    H239594   4.673   7.954   3.307  0.5887  1.0669 -0.2638
13217TIP3   OH239595   0.294   1.671   3.944 -0.3342  0.0267  0.0897
13217TIP3    H139596   0.272   1.746   3.889  1.3430 -0.1195 -0.8061
13217TIP3    H239597   0.361   1.704   4.004  1.0666 -0.9576 -0.8939
13218TIP3   OH239598   0.163   1.165   4.674 -0.4699 -0.1278 -0.1646
13218TIP3    H139599   0.104   1.180   4.747 -1.6563 -0.3771 -1.0492
13218TIP3    H239600   0.120   1.097   4.622  0.3284  0.0714 -1.1032
13219TIP3   OH239601   6.756   7.070   5.006 -0.2635 -0.6462 -0.7793
13219TIP3    H139602   6.700   7.064   4.928  0.5538 -1.1105 -1.3408
13219TIP3    H239603   6.830   7.124   4.979  0.7641 -2.0361 -0.7862
13220TIP3   OH239604   1.273   0.457   6.080  0.2605 -0.8133 -0.2461
13220TIP3    H139605   1.178   0.467   6.076  0.3074 -0.2118  0.1060
13220TIP3    H239606   1.286   0.367   6.113 -0.2031 -0.2819  1.4701
13221TIP3   OH239607   8.514   0.359   6.087 -0.3101  0.9551  0.7462
13221TIP3    H139608   8.428   0.357   6.045  0.6952  1.6427 -1.4619
13221TIP3    H239609   8.554   0.275   6.062 -0.0569  0.9718  1.1051
13222TIP3   OH239610   4.858   3.724   0.615  0.0057  0.3306  1.4065
13222TIP3    H139611   4.915   3.788   0.658 -0.2569  1.0667  0.6789
13222TIP3    H239612   4.783   3.776   0.585  0.6204 -0.0087 -0.7647
13223TIP3   OH239613   8.177   1.465   4.392  0.0203 -0.6417  0.5021
13223TIP3    H139614   8.144   1.539   4.443 -0.5721 -0.7926  0.3402
13223TIP3    H239615   8.154   1.388   4.445 -1.4985 -0.8724 -0.4682
13224TIP3   OH239616   2.876   1.035   6.050 -0.1110 -0.9917 -0.8880
13224TIP3    H139617   2.838   1.030   5.963 -2.3824 -1.1716  0.0798
13224TIP3    H239618   2.802   1.023   6.110  1.0079  1.3638  1.1035
13225TIP3   OH239619   2.233   1.215   5.122 -0.3135 -0.3554  0.1588
13225TIP3    H139620   2.303   1.191   5.182 -2.0475 -0.0405  2.3474
13225TIP3    H239621   2.157   1.164   5.152 -1.2481 -0.0842 -1.6747
13226TIP3   OH239622   4.593   4.597   1.104  0.6488 -0.0663 -0.2995
13226TIP3    H139623   4.510   4.596   1.151  0.1983  0.1948 -1.0830
13226TIP3    H239624   4.652   4.544   1.158 -0.2773 -0.9967 -0.1960
13227TIP3   OH239625   1.628   7.719   3.039  0.6701  0.2653  0.3538
13227TIP3    H139626   1.559   7.786   3.037 -1.2181 -1.6542 -0.4347
13227TIP3    H239627   1.691   7.752   3.104 -1.3650  1.7041  1.6600
13228TIP3   OH239628   1.790   0.649   5.953 -0.5275 -0.0053 -0.6291
13228TIP3    H139629   1.808   0.737   5.987 -0.7160  0.2765 -1.2393
13228TIP3    H239630   1.701   0.654   5.920  0.0190  0.0530 -2.1409
13229TIP3   OH239631   0.969   2.053   2.876  0.1550 -0.5897  0.5121
13229TIP3    H139632   0.947   2.058   2.783  1.8187  0.2280  0.1472
13229TIP3    H239633   0.995   1.962   2.890  2.6678 -0.0661 -0.4893
13230TIP3   OH239634   0.881   0.957   2.874 -0.0953  0.3100 -0.3656
13230TIP3    H139635   0.808   0.916   2.828 -1.0579  1.1027  0.4225
13230TIP3    H239636   0.925   1.010   2.808  0.3396 -0.9083 -1.0666
13231TIP3   OH239637   0.571   1.263   4.485 -0.2895 -0.0428 -0.2169
13231TIP3    H139638   0.621   1.188   4.453  1.2204  1.0686 -0.5643
13231TIP3    H239639   0.509   1.283   4.414 -0.5699 -0.8490 -0.1951
13232TIP3   OH239640   0.793   1.869   5.538  0.3592  0.6526  0.4869
13232TIP3    H139641   0.828   1.782   5.555 -1.5320 -0.4800 -1.1754
13232TIP3    H239642   0.698   1.856   5.534  0.0081  2.9077  0.8657
13233TIP3   OH239643   8.040   1.637   6.182  0.1090 -0.0189  0.6363
13233TIP3    H139644   8.115   1.690   6.156 -1.1585  0.3950 -2.4018
13233TIP3    H239645   8.076   1.549   6.194  1.0530  0.1183 -1.0278
13234TIP3   OH239646   6.473   6.823   2.510 -0.1498  0.1458 -0.0665
13234TIP3    H139647   6.503   6.740   2.547 -0.1291  0.2698  0.1951
13234TIP3    H239648   6.385   6.835   2.546 -0.2414  0.1220 -0.2870
13235TIP3   OH239649   3.919   7.855   4.094 -0.0929  0.8231 -0.8625
13235TIP3    H139650   3.980   7.821   4.159  1.6214  1.2200 -2.2210
13235TIP3    H239651   3.939   7.949   4.089 -0.8436  0.9655 -1.2957
13236TIP3   OH239652   5.893   7.894   3.421 -0.6827 -0.3619  0.3489
13236TIP3    H139653   5.965   7.864   3.364  0.6700  0.5417  1.5496
13236TIP3    H239654   5.863   7.975   3.380 -0.2128 -0.1055  0.5128
13237TIP3   OH239655   0.807   0.590   5.939  0.9407  0.0617  0.0606
13237TIP3    H139656   0.868   0.522   5.969  1.9853  0.4483 -1.1755
13237TIP3    H239657   0.863   0.664   5.916  0.0053  0.4550 -0.9841
13238TIP3   OH239658   7.999   1.695   2.608  0.7439 -0.6470  0.3631
13238TIP3    H139659   8.084   1.728   2.637  0.2677  0.1563  0.9061
13238TIP3    H239660   7.977   1.626   2.670 -0.4856  1.3880  2.2776
13239TIP3   OH239661  -0.005   0.305   2.947  0.3010 -0.0702  0.1610
13239TIP3    H139662   0.068   0.340   2.896 -0.0883  0.3634 -0.1171
13239TIP3    H239663   0.001   0.210   2.937  0.4968 -0.0098 -0.3248
13240TIP3   OH239664   0.369   0.599   4.351  0.0390 -0.1278 -0.2961
13240TIP3    H139665   0.423   0.599   4.272 -1.0931  0.2316 -1.0773
13240TIP3    H239666   0.432   0.596   4.423  1.0870 -0.1748 -1.2056
13241TIP3   OH239667   4.579   5.250   0.775 -0.0953 -0.0256 -0.0862
13241TIP3    H139668   4.618   5.244   0.862  1.1647  1.8334 -0.4897
13241TIP3    H239669   4.485   5.256   0.790  0.1754  1.1257  1.2044
13242TIP3   OH239670   5.111   5.845   2.830 -0.1948 -0.5660 -0.0577
13242TIP3    H139671   5.127   5.751   2.840  2.3469  0.1971  4.3133
13242TIP3    H239672   5.039   5.863   2.890  0.4701  0.5419  0.4153
13243TIP3   OH239673   5.875   7.750   5.285  0.1420 -0.4970  0.3588
13243TIP3    H139674   5.926   7.700   5.222  0.0542 -0.5309  0.3146
13243TIP3    H239675   5.930   7.754   5.363  0.9446  0.9530 -0.2681
13244TIP3   OH239676   2.483   1.373   4.972  0.2434  0.2419  0.5271
13244TIP3    H139677   2.489   1.278   4.983  0.9006  0.1302 -0.6749
13244TIP3    H239678   2.442   1.404   5.052 -0.6344 -1.1323  0.6209
13245TIP3   OH239679   0.628   0.574   5.351  0.9141 -0.2638 -0.2593
13245TIP3    H139680   0.622   0.602   5.443  2.5172 -1.1027  0.1178
13245TIP3    H239681   0.583   0.490   5.349  1.4010 -0.5330 -0.1014
13246TIP3   OH239682   4.221   6.491   4.705 -0.1198 -0.0700  0.5749
13246TIP3    H139683   4.144   6.458   4.660  0.3879 -0.4236 -0.0359
13246TIP3    H239684   4.281   6.517   4.635 -0.0785  1.1389  1.0446
13247TIP3   OH239685   1.255   0.968   5.169  0.4307 -0.0805 -0.4892
13247TIP3    H139686   1.343   0.930   5.162  1.0348  0.8933  1.3729
13247TIP3    H239687   1.264   1.056   5.131  0.1762 -0.1058 -0.6090
13248TIP3   OH239688   8.394   1.253   3.382  0.1726 -0.5488  0.2382
13248TIP3    H139689   8.436   1.204   3.311  1.1596  0.1965  0.2976
13248TIP3    H239690   8.459   1.254   3.452  0.0981  0.7113  0.2985
13249TIP3   OH239691   0.010   0.648   3.402 -0.5456 -0.6969 -0.2782
13249TIP3    H139692  -0.002   0.653   3.496 -1.6128 -0.8664 -0.3944
13249TIP3    H239693   0.068   0.721   3.381  1.4060 -1.9130  0.7640
13250TIP3   OH239694  -0.002   0.073   4.743  0.2581  0.5208  0.2783
13250TIP3    H139695   0.018   0.143   4.805 -1.1774 -0.8161  2.3214
13250TIP3    H239696   0.024  -0.007   4.788 -1.8267 -0.5640 -0.3870
13251TIP3   OH239697   1.229   0.750   4.619 -0.3046  0.1644 -0.2558
13251TIP3    H139698   1.250   0.657   4.612 -0.1737  0.0952  0.9661
13251TIP3    H239699   1.270   0.790   4.542 -1.2722 -0.9400 -1.3570
13252TIP3   OH239700   5.333   7.060   3.834 -0.3084 -0.0648 -0.8544
13252TIP3    H139701   5.342   7.030   3.744 -1.9335 -1.0045 -0.7220
13252TIP3    H239702   5.383   6.997   3.886  0.5245  0.4058 -1.0850
13253TIP3   OH239703   6.536   0.183   3.760 -0.2777 -0.3743 -0.3362
13253TIP3    H139704   6.582   0.099   3.755 -0.2896 -0.4340  0.4277
13253TIP3    H239705   6.590   0.243   3.709  0.6887 -0.4341  0.5870
13254TIP3   OH239706   3.925   6.902   3.069 -1.0993  0.0234 -0.1130
13254TIP3    H139707   3.961   6.888   3.157  1.3793  1.7289 -0.8089
13254TIP3    H239708   3.993   6.951   3.023 -3.7993  2.1898 -1.9144
13255TIP3   OH239709   7.576   5.645   5.686 -0.4945 -0.1054 -0.0063
13255TIP3    H139710   7.559   5.662   5.779 -2.4513 -1.9491  0.0028
13255TIP3    H239711   7.496   5.670   5.641  0.9760  2.2225 -1.4303
13256TIP3   OH239712   4.521   7.340   4.150  0.2549 -0.1827  0.1964
13256TIP3    H139713   4.437   7.344   4.196  0.6067  2.3300  0.7098
13256TIP3    H239714   4.499   7.312   4.061 -1.1257  0.3638  0.3562
13257TIP3   OH239715   0.411   3.277   3.185  0.2384 -0.3165  0.7268
13257TIP3    H139716   0.334   3.289   3.241 -0.4315  0.7920 -0.4181
13257TIP3    H239717   0.483   3.263   3.246 -1.1498 -3.1735  1.8154
13258TIP3   OH239718   1.059   0.409   6.262 -0.7798 -0.7249 -0.0306
13258TIP3    H139719   1.036   0.501   6.275  1.5585 -0.1618  0.5046
13258TIP3    H239720   1.081   0.377   6.349 -0.6313 -1.4997 -0.3460
13259TIP3   OH239721   0.410   0.076   4.719 -0.2373 -0.0566  0.6856
13259TIP3    H139722   0.418  -0.008   4.765  3.0011  1.2140  2.6481
13259TIP3    H239723   0.366   0.133   4.781  0.1315  0.4716  0.4594
13260TIP3   OH239724   4.970   7.565   4.897  0.1869  0.0435 -0.6560
13260TIP3    H139725   5.011   7.595   4.816 -0.1210  0.1731 -0.7650
13260TIP3    H239726   4.878   7.554   4.874 -0.0984  1.0951 -0.0372
13261TIP3   OH239727   0.599   1.226   5.894  0.0385  0.0748 -0.0264
13261TIP3    H139728   0.596   1.194   5.984 -0.0835 -0.0494 -0.0745
13261TIP3    H239729   0.579   1.320   5.901  0.5467  0.1748  0.1308
13262TIP3   OH239730   6.066   7.879   3.172  0.0872  0.0817 -0.3633
13262TIP3    H139731   6.127   7.820   3.127  0.6012 -0.4049  0.9605
13262TIP3    H239732   6.068   7.959   3.120  0.3413 -0.6177 -1.4586
13263TIP3   OH239733   2.273   2.275   5.300  0.4210  0.0220  0.2225
13263TIP3    H139734   2.300   2.263   5.209 -1.6721 -0.3172 -0.3868
13263TIP3    H239735   2.177   2.281   5.296  0.2527 -0.5798  2.4643
13264TIP3   OH239736   6.293   7.579   3.159 -0.0342 -0.9795  0.0212
13264TIP3    H139737   6.381   7.545   3.176 -0.5554 -2.6297 -0.3834
13264TIP3    H239738   6.293   7.598   3.065  0.6484  1.4124  0.4719
13265TIP3   OH239739   6.168   6.177   2.526 -0.0918  0.9207  0.1422
13265TIP3    H139740   6.241   6.146   2.580  0.0587  0.0193 -0.5545
13265TIP3    H239741   6.091   6.135   2.565  0.0221  0.2348 -0.3485
13266TIP3   OH239742   7.688   5.412   6.008 -0.1731 -0.0026 -0.6006
13266TIP3    H139743   7.632   5.420   6.085  2.0120 -0.9423  1.1480
13266TIP3    H239744   7.629   5.423   5.934 -2.8590 -2.0458  1.1458
13267TIP3   OH239745   6.850   7.384   4.003  0.0707  0.4828 -0.0081
13267TIP3    H139746   6.796   7.382   3.924 -0.1509  0.0949  0.1514
13267TIP3    H239747   6.902   7.464   3.995  1.0984 -0.2827 -1.2461
13268TIP3   OH239748   2.653   0.871   1.700 -0.2012 -0.0949 -0.1530
13268TIP3    H139749   2.738   0.836   1.726 -0.6624 -0.9960  0.1587
13268TIP3    H239750   2.637   0.944   1.761 -0.0660 -0.5044  0.3776
13269TIP3   OH239751   0.338   0.547   4.665  0.1041 -0.3249  0.6691
13269TIP3    H139752   0.293   0.489   4.604  0.3221 -0.5344  0.7065
13269TIP3    H239753   0.282   0.624   4.670 -0.3696 -0.6820  0.8990
13270TIP3   OH239754   1.002   2.912   4.197  0.3848 -0.1543  0.0837
13270TIP3    H139755   0.947   2.866   4.134 -0.3530  0.3600  0.3558
13270TIP3    H239756   0.968   2.886   4.283  0.8532 -0.1912  0.2596
13271TIP3   OH239757   7.460   7.465   2.295  0.0353 -0.0616 -0.4439
13271TIP3    H139758   7.369   7.492   2.309 -0.0867 -0.3454 -0.6971
13271TIP3    H239759   7.460   7.425   2.208  0.1665 -1.1098  0.0373
13272TIP3   OH239760   2.160   1.457   3.863  0.3365  0.1672  0.0140
13272TIP3    H139761   2.202   1.496   3.786  1.3069 -1.7304 -0.4539
13272TIP3    H239762   2.155   1.528   3.927 -0.9652  1.9304 -1.9673
13273TIP3   OH239763   6.371   6.528   4.168 -0.1987 -1.0144  0.2718
13273TIP3    H139764   6.285   6.558   4.197 -0.4089 -2.0265  0.7338
13273TIP3    H239765   6.376   6.437   4.199  0.0858 -1.7156 -1.7715
13274TIP3   OH239766   2.093   2.706   3.301  0.0322 -0.2563  0.3683
13274TIP3    H139767   2.051   2.665   3.376 -0.8438 -0.7625 -0.3930
13274TIP3    H239768   2.168   2.649   3.281 -0.3219 -0.6734  0.2311
13275TIP3   OH239769   0.254   0.089   4.211  0.0206  0.2857  0.0216
13275TIP3    H139770   0.269   0.000   4.179  2.3983  1.1658 -1.4667
13275TIP3    H239771   0.300   0.093   4.294  0.3032  0.2557 -0.1330
13276TIP3   OH239772   4.621   7.316   6.634  0.2025 -0.1695 -0.0287
13276TIP3    H139773   4.626   7.221   6.625 -0.3911 -0.0497 -1.9936
13276TIP3    H239774   4.644   7.349   6.547  0.4505  1.4930  0.6474
13277TIP3   OH239775   6.173   7.754   3.771  0.1641  0.4364 -0.3085
13277TIP3    H139776   6.255   7.737   3.725  0.9074  1.3825  0.6612
13277TIP3    H239777   6.138   7.833   3.730 -0.3554 -0.0392 -0.8125
13278TIP3   OH239778   0.359   6.946   3.481 -0.0258 -0.6116 -0.9113
13278TIP3    H139779   0.373   6.986   3.567 -1.0842  1.8081 -1.8166
13278TIP3    H239780   0.442   6.958   3.436 -0.2164  0.2181 -1.0427
13279TIP3   OH239781   4.800   7.562   4.135  0.4256 -0.2460  0.1233
13279TIP3    H139782   4.789   7.494   4.202  1.6451 -0.8433 -0.2630
13279TIP3    H239783   4.888   7.596   4.149  0.4055  0.1577 -0.6929
13280TIP3   OH239784   7.230   7.602   4.651  0.1634  0.3329  0.1113
13280TIP3    H139785   7.143   7.628   4.622 -1.0685 -1.4508  2.0744
13280TIP3    H239786   7.265   7.550   4.578  0.2881  2.4245 -1.3672
13281TIP3   OH239787   7.212   7.526   4.949 -0.2250 -0.5554 -0.4646
13281TIP3    H139788   7.242   7.533   4.858 -0.2552 -0.6610 -0.4839
13281TIP3    H239789   7.290   7.502   4.998  0.8545  4.1215  0.2951
13282TIP3   OH239790   1.457   1.015   4.803 -0.4616  0.2658 -0.1496
13282TIP3    H139791   1.517   1.081   4.839  0.4932 -0.4133 -0.4721
13282TIP3    H239792   1.512   0.962   4.746 -1.6418  0.3703 -1.4045
13283TIP3   OH239793   0.617   1.200   5.448 -0.0828  0.2532 -0.7365
13283TIP3    H139794   0.697   1.156   5.421  1.1113  1.2187  1.0972
13283TIP3    H239795   0.556   1.186   5.375  2.3221  1.0548 -2.9907
13284TIP3   OH239796   2.190   0.026   0.566 -0.0614  0.0422 -0.0142
13284TIP3    H139797   2.265  -0.033   0.577 -0.0835  0.0559  0.2252
13284TIP3    H239798   2.210   0.100   0.623  1.6277  1.9214 -2.9329
13285TIP3   OH239799   4.010   2.598   6.642 -0.2255 -0.1432 -0.7761
13285TIP3    H139800   3.927   2.585   6.596 -0.1145 -0.6379 -0.8436
13285TIP3    H239801   4.010   2.690   6.667  0.1839  0.4133 -2.7130
13286TIP3   OH239802   6.450   4.495   2.379 -0.2196 -0.3128  0.5543
13286TIP3    H139803   6.356   4.500   2.395 -0.2671 -0.4490  0.3337
13286TIP3    H239804   6.491   4.532   2.457 -0.5073  2.2125 -0.4492
13287TIP3   OH239805   6.037   7.300   2.806 -0.3247  0.0897 -0.1947
13287TIP3    H139806   5.997   7.343   2.882 -0.1613 -0.1991  0.0561
13287TIP3    H239807   6.025   7.362   2.734  1.1370  1.1401  0.4632
13288TIP3   OH239808   8.214   7.297   2.724  0.2933 -0.3246 -1.0962
13288TIP3    H139809   8.177   7.312   2.637 -3.1214  0.1031  0.3397
13288TIP3    H239810   8.198   7.204   2.741  0.4088 -0.2720 -0.7032
13289TIP3   OH239811   6.188   6.238   1.131  0.6849 -0.5868  0.0521
13289TIP3    H139812   6.168   6.177   1.202 -1.0738  0.3330  0.3685
13289TIP3    H239813   6.244   6.305   1.170 -0.2237 -0.1203  0.5551
13290TIP3   OH239814   5.403   5.823   1.524 -0.2134 -0.3180  0.1303
13290TIP3    H139815   5.496   5.804   1.513  0.2861  2.3153 -0.5845
13290TIP3    H239816   5.397   5.919   1.516 -3.1785 -0.5860 -1.5387
13291TIP3   OH239817   0.823   4.650   1.417 -0.3361  0.8954  0.1542
13291TIP3    H139818   0.829   4.666   1.323 -1.3320  0.6354  0.0359
13291TIP3    H239819   0.744   4.597   1.426 -0.0897  0.6962  1.1103
13292TIP3   OH239820   4.897   4.538   3.558  0.8003  0.0792  0.0098
13292TIP3    H139821   4.838   4.463   3.568  0.8637  0.2589  1.8324
13292TIP3    H239822   4.977   4.501   3.522  0.6556 -0.6571  0.4286
13293TIP3   OH239823   6.655   7.717   1.398  0.2790  0.4583 -0.1949
13293TIP3    H139824   6.610   7.652   1.452  1.7821  0.4080  1.0194
13293TIP3    H239825   6.748   7.696   1.407  0.6021  0.8701 -2.2740
13294TIP3   OH239826   8.080   4.245   1.865 -0.5048 -0.2937  0.5497
13294TIP3    H139827   8.064   4.155   1.835  0.0680  0.3116 -1.6379
13294TIP3    H239828   7.992   4.281   1.876 -0.7757 -1.6510  3.1764
13295TIP3   OH239829   8.199   7.872   1.801 -0.3550 -0.1644 -0.1893
13295TIP3    H139830   8.295   7.863   1.796 -0.3656  0.5502 -2.0815
13295TIP3    H239831   8.175   7.824   1.881  1.3892 -1.8831 -0.6465
13296TIP3   OH239832   7.446   2.592   1.928 -0.0767 -0.5063 -0.7055
13296TIP3    H139833   7.448   2.685   1.904  0.4392 -0.4051 -0.2941
13296TIP3    H239834   7.389   2.588   2.005 -2.6493 -0.9925 -2.5708
13297TIP3   OH239835   4.864   0.360   6.806  0.1014 -0.3997 -0.4206
13297TIP3    H139836   4.820   0.286   6.846  0.8422  0.0181  1.2181
13297TIP3    H239837   4.829   0.364   6.717 -2.2555 -0.8022  0.4554
13298TIP3   OH239838   4.661   6.943   1.332  0.2154 -0.5586  0.1558
13298TIP3    H139839   4.662   6.900   1.246  1.2052  0.1879 -0.2111
13298TIP3    H239840   4.574   6.983   1.337 -0.1540 -1.3169 -0.1459
13299TIP3   OH239841   2.091   4.920   1.388  0.2937 -0.1198 -0.4452
13299TIP3    H139842   2.034   4.851   1.355 -1.2898  0.9414  0.0693
13299TIP3    H239843   2.086   4.912   1.483  0.0747  0.7338 -0.3836
13300TIP3   OH239844   0.136   7.046   1.852 -0.2589  0.2221  0.0360
13300TIP3    H139845   0.179   7.131   1.846 -0.0136  0.1980  1.2064
13300TIP3    H239846   0.168   6.997   1.776 -0.9514  1.4038 -1.0372
13301TIP3   OH239847   2.378   4.869   2.701  0.2394  0.6533 -0.0910
13301TIP3    H139848   2.424   4.859   2.618  1.4808 -0.9710  0.7658
13301TIP3    H239849   2.320   4.793   2.706 -0.0185  0.8770  0.4224
13302TIP3   OH239850   1.574   5.220   0.427 -0.1004 -0.0563  0.5422
13302TIP3    H139851   1.494   5.223   0.374 -0.2290  2.0967  0.8264
13302TIP3    H239852   1.550   5.262   0.509  1.2526  0.3823  0.7195
13303TIP3   OH239853   7.701   5.330   1.292 -0.1770 -0.0697  0.3076
13303TIP3    H139854   7.644   5.400   1.261  0.2936 -0.0819 -0.5986
13303TIP3    H239855   7.787   5.351   1.256 -0.2160 -1.5620 -0.6910
13304TIP3   OH239856   5.610   5.700   2.290  0.2396 -0.0950  0.5534
13304TIP3    H139857   5.657   5.682   2.209 -0.6562  1.2188 -0.2925
13304TIP3    H239858   5.548   5.628   2.299  0.5498 -0.4006  0.2246
13305TIP3   OH239859   0.149   7.543   1.528  0.3082 -0.6697 -0.0116
13305TIP3    H139860   0.127   7.589   1.447  3.1020 -1.6325 -1.3536
13305TIP3    H239861   0.203   7.469   1.500  2.9100  0.0510  2.8637
13306TIP3   OH239862   0.143   6.572   0.213 -0.2208 -0.1464  0.0516
13306TIP3    H139863   0.069   6.530   0.169 -0.4468 -0.4581  0.7193
13306TIP3    H239864   0.219   6.519   0.188 -0.3108 -0.1745 -0.1616
13307TIP3   OH239865   1.103   5.388   2.842 -0.0760  0.1538 -0.0460
13307TIP3    H139866   1.045   5.462   2.857  0.6306  0.3335  2.0189
13307TIP3    H239867   1.047   5.311   2.849 -0.2042  0.3547  1.2835
13308TIP3   OH239868   0.830   4.732   0.037  0.2463 -0.3418  0.4335
13308TIP3    H139869   0.789   4.664   0.089  0.1199 -0.3109  0.3748
13308TIP3    H239870   0.859   4.797   0.100 -0.7652  0.1574  0.4014
13309TIP3   OH239871   6.140   1.505   5.378  0.1264  0.1752  0.2021
13309TIP3    H139872   6.150   1.468   5.291  0.4479  2.0433 -0.5873
13309TIP3    H239873   6.045   1.508   5.392 -0.0206  1.6349 -0.9068
13310TIP3   OH239874   0.025   5.324   0.020 -0.2034 -0.2331 -0.3485
13310TIP3    H139875   0.078   5.381   0.076  0.9567 -0.9083 -0.7584
13310TIP3    H239876  -0.040   5.286   0.079 -2.4168  3.1496 -0.4099
13311TIP3   OH239877   8.321   6.895   0.522 -0.2497  0.2992 -0.4728
13311TIP3    H139878   8.240   6.871   0.479 -1.0439 -0.4911  1.4086
13311TIP3    H239879   8.388   6.839   0.482 -0.9200 -0.1936 -0.9047
13312TIP3   OH239880   1.108   3.570   0.833 -0.4274 -0.2668 -0.0343
13312TIP3    H139881   1.019   3.542   0.854 -0.0444 -1.0855  0.5010
13312TIP3    H239882   1.146   3.496   0.786 -0.2159  0.3063 -0.7752
13313TIP3   OH239883   2.382   5.025   0.357 -0.3322  0.0049  0.3090
13313TIP3    H139884   2.466   5.051   0.395 -0.7927 -0.4011  1.6252
13313TIP3    H239885   2.327   5.103   0.367 -0.3048  0.0663 -0.0021
13314TIP3   OH239886   8.296   5.424   0.679 -1.1082  0.2198 -0.6118
13314TIP3    H139887   8.334   5.497   0.728 -1.7798 -0.1327  0.4536
13314TIP3    H239888   8.203   5.447   0.671 -1.4081 -0.7206  0.1091
13315TIP3   OH239889   1.657   5.991   3.575  0.3584 -0.5553  0.5247
13315TIP3    H139890   1.654   6.018   3.667  0.6475 -1.0108  0.6646
13315TIP3    H239891   1.717   5.917   3.573 -0.4024 -1.1687  0.1280
13316TIP3   OH239892   0.427   7.429   3.155 -0.2096  0.8992 -0.0332
13316TIP3    H139893   0.445   7.384   3.238  0.3262 -0.1813 -0.7313
13316TIP3    H239894   0.341   7.469   3.168  0.7479  2.4366  1.7669
13317TIP3   OH239895   7.933   4.531   1.924  0.3101  0.4616  0.0176
13317TIP3    H139896   7.857   4.506   1.871  1.1556  0.8555 -1.4017
13317TIP3    H239897   8.003   4.543   1.860  1.4056  0.7104  1.2648
13318TIP3   OH239898   0.695   5.296   2.123  0.1889  0.0255 -0.1239
13318TIP3    H139899   0.672   5.234   2.192  1.4387  1.0094  1.2103
13318TIP3    H239900   0.612   5.320   2.083 -0.6373  0.1237  1.6418
13319TIP3   OH239901   2.089   4.428   0.314  0.1922 -0.4945 -0.2667
13319TIP3    H139902   2.167   4.378   0.339 -0.4709 -0.1367  2.6340
13319TIP3    H239903   2.016   4.380   0.353 -0.8155  0.5201 -0.8766
13320TIP3   OH239904   0.470   4.598   1.195 -0.0640 -0.0669  0.3903
13320TIP3    H139905   0.566   4.605   1.189 -0.3644  3.7487 -0.9262
13320TIP3    H239906   0.449   4.521   1.143  2.0438  0.9340 -2.0400
13321TIP3   OH239907   0.119   5.260   2.314 -0.1974  0.5006 -0.6224
13321TIP3    H139908   0.074   5.339   2.344  0.3880  0.2249  1.0673
13321TIP3    H239909   0.066   5.228   2.242 -1.4921  1.3884 -0.0897
13322TIP3   OH239910   0.447   6.655   0.703 -0.2192 -0.1870  0.1029
13322TIP3    H139911   0.367   6.704   0.721 -0.6014 -0.7609 -0.0133
13322TIP3    H239912   0.507   6.719   0.665 -1.0180 -0.0025 -0.8555
13323TIP3   OH239913   0.574   4.811   0.822  0.1344 -0.0359  0.1109
13323TIP3    H139914   0.616   4.872   0.762  0.0399 -0.6499 -0.5802
13323TIP3    H239915   0.606   4.725   0.796 -2.4854 -0.6543 -1.2406
13324TIP3   OH239916   0.170   5.705   2.129 -0.0153  0.0422 -0.3743
13324TIP3    H139917   0.183   5.617   2.094  0.1115  0.5761 -1.6856
13324TIP3    H239918   0.092   5.737   2.086  0.6791  1.0674 -0.8855
13325TIP3   OH239919   3.006   1.007   1.416  0.4111  0.1057 -0.5264
13325TIP3    H139920   2.927   1.061   1.416 -0.3667 -0.9907  0.7831
13325TIP3    H239921   2.974   0.917   1.426  1.7730 -0.4259 -0.8049
13326TIP3   OH239922   5.911   0.525   5.950 -0.2822  0.0155 -0.1710
13326TIP3    H139923   5.861   0.458   5.903 -1.1394  0.1114  0.5886
13326TIP3    H239924   5.881   0.608   5.913 -2.2484  0.1851  1.7403
13327TIP3   OH239925   1.330   4.362   1.596 -0.1000  0.4876 -0.1218
13327TIP3    H139926   1.365   4.444   1.630 -0.8582  0.5164  0.6054
13327TIP3    H239927   1.294   4.386   1.510 -0.6077  0.9951  0.2255
13328TIP3   OH239928   3.138   7.373   1.434 -0.1006  0.0520 -0.5085
13328TIP3    H139929   3.119   7.311   1.363  0.6650 -0.2137 -0.4895
13328TIP3    H239930   3.064   7.362   1.494 -1.1105  0.7777 -1.5841
13329TIP3   OH239931   4.723   1.740   6.484 -0.1195  0.4000  0.3273
13329TIP3    H139932   4.798   1.772   6.534  2.7260 -1.8229 -2.2711
13329TIP3    H239933   4.712   1.649   6.512 -0.4607  0.0819 -0.8027
13330TIP3   OH239934   6.214   2.563   6.403  0.2882 -0.1844 -0.8309
13330TIP3    H139935   6.282   2.550   6.470 -0.0667 -1.1278 -0.6477
13330TIP3    H239936   6.223   2.655   6.377  0.0070  0.3889  0.9960
13331TIP3   OH239937   0.226   5.699   0.177  0.1099  0.1702  0.5513
13331TIP3    H139938   0.142   5.674   0.140 -0.0694 -0.0007  1.0778
13331TIP3    H239939   0.279   5.723   0.101 -0.7914  1.4450  0.3038
13332TIP3   OH239940   0.098   4.570   1.804  0.5647  0.0707  0.4311
13332TIP3    H139941   0.192   4.561   1.790  0.5125  1.8102 -1.2555
13332TIP3    H239942   0.060   4.564   1.717 -0.8527 -0.0329  1.0349
13333TIP3   OH239943   8.021   3.468   3.009  0.1295 -0.3391 -0.2082
13333TIP3    H139944   8.114   3.452   2.993  0.0283 -0.9861 -0.1458
13333TIP3    H239945   7.999   3.541   2.951  0.5776 -0.4488 -0.5174
13334TIP3   OH239946   7.599   4.115   3.032  0.0857 -0.3352  0.0030
13334TIP3    H139947   7.611   4.209   3.044  0.1530 -0.6046  2.1045
13334TIP3    H239948   7.630   4.076   3.113 -1.0231 -2.0908 -0.3967
13335TIP3   OH239949   6.658   7.603   2.289 -0.3516 -0.1148 -0.4172
13335TIP3    H139950   6.683   7.522   2.245 -0.0068 -1.1930  1.7059
13335TIP3    H239951   6.568   7.619   2.261  0.6567  0.5917 -3.4466
13336TIP3   OH239952   0.891   4.312   0.060 -0.2463 -0.2836 -0.0959
13336TIP3    H139953   0.852   4.390   0.020 -0.7102 -0.9248 -0.9195
13336TIP3    H239954   0.953   4.281  -0.005  0.4754 -0.1879  0.5429
13337TIP3   OH239955   0.236   4.307   0.882  0.4376  0.3730  0.1248
13337TIP3    H139956   0.216   4.399   0.863  2.1801  0.4555 -1.3374
13337TIP3    H239957   0.180   4.258   0.822  0.5845  0.5063 -0.1225
13338TIP3   OH239958   0.123   6.099   1.945 -0.0136  0.2182  0.0158
13338TIP3    H139959   0.164   6.156   1.879 -0.6456 -0.5690 -1.0812
13338TIP3    H239960   0.162   6.013   1.929 -1.5707 -0.3888 -0.6040
13339TIP3   OH239961   6.234   4.801   2.453  0.7474 -0.2728  0.4662
13339TIP3    H139962   6.253   4.845   2.536  3.1235 -0.2899 -0.0440
13339TIP3    H239963   6.179   4.726   2.478 -1.4901  1.6654  1.5888
13340TIP3   OH239964   7.449   5.841   1.531 -0.2246 -0.8765 -0.6038
13340TIP3    H139965   7.383   5.898   1.492  0.9614  0.4157 -0.7323
13340TIP3    H239966   7.474   5.885   1.612  0.6880 -1.2336 -0.6935
13341TIP3   OH239967   0.942   5.152   1.531  0.2429  0.3014  0.3729
13341TIP3    H139968   0.881   5.203   1.476 -1.5261 -1.6754  0.4300
13341TIP3    H239969   0.940   5.064   1.493 -0.3135 -0.8768  3.0277
13342TIP3   OH239970   2.142   6.631   0.700  0.0834  0.0920 -0.1556
13342TIP3    H139971   2.146   6.614   0.605  0.7183 -0.4215 -0.0434
13342TIP3    H239972   2.234   6.633   0.727 -0.0823 -4.2504  1.2022
13343TIP3   OH239973   7.305   7.270   1.015 -0.5710  0.2188 -0.6389
13343TIP3    H139974   7.238   7.285   0.948 -0.9701 -0.1068 -0.3146
13343TIP3    H239975   7.260   7.286   1.097 -0.2773 -0.1170 -0.4131
13344TIP3   OH239976   7.282   5.419   1.256 -0.1862  0.0882  0.5506
13344TIP3    H139977   7.254   5.507   1.278  0.5325  0.4893 -0.1026
13344TIP3    H239978   7.316   5.383   1.337  2.0836  1.4050  0.2290
13345TIP3   OH239979   0.584   4.416   2.442 -0.1292 -0.5431 -0.2215
13345TIP3    H139980   0.677   4.435   2.456 -0.0752 -0.5326 -0.5818
13345TIP3    H239981   0.547   4.408   2.530  0.1963 -0.4633 -0.0780
13346TIP3   OH239982   8.458   2.009   6.574 -0.4107 -0.0666 -0.7888
13346TIP3    H139983   8.532   1.952   6.551  0.1171  0.2154  0.1582
13346TIP3    H239984   8.495   2.097   6.573 -0.9136  0.1420 -0.9921
13347TIP3   OH239985   6.051   1.765   6.878 -0.2393 -0.1583  0.4104
13347TIP3    H139986   6.052   1.787   6.785 -0.6743 -0.9281  0.2199
13347TIP3    H239987   6.082   1.674   6.881 -0.0357 -0.0662  1.0307
13348TIP3   OH239988   7.422   5.311   0.236 -0.2106 -0.2140  0.0165
13348TIP3    H139989   7.426   5.237   0.175  0.2626  1.1382 -1.6398
13348TIP3    H239990   7.513   5.328   0.260 -0.3030 -0.0759  0.2730
13349TIP3   OH239991   8.026   7.640   1.088 -0.2602  0.2168 -0.3871
13349TIP3    H139992   8.004   7.561   1.137  1.3180 -0.0294 -0.0372
13349TIP3    H239993   7.988   7.626   1.001 -1.4654 -0.1713  0.2057
13350TIP3   OH239994   0.555   6.974   1.824  0.5194 -0.0444 -0.0657
13350TIP3    H139995   0.481   6.945   1.771  2.3179 -1.4230 -1.8850
13350TIP3    H239996   0.573   7.063   1.794  0.0355  0.0522 -0.0734
13351TIP3   OH239997   0.558   2.725   1.749  0.3589 -0.0694  0.1777
13351TIP3    H139998   0.556   2.779   1.828 -2.0082 -0.7641  0.6524
13351TIP3    H239999   0.605   2.646   1.775  1.4143  0.5850  0.2791
13352TIP3   OH240000   1.310   4.482   0.378  0.4402  0.0028  0.0551
13352TIP3    H140001   1.336   4.408   0.324  0.6545 -0.6722  1.0778
13352TIP3    H240002   1.354   4.467   0.462 -1.1569  0.2218  0.9366
13353TIP3   OH240003   5.957   8.014   6.056 -0.3237  0.1663 -0.1814
13353TIP3    H140004   5.983   7.940   6.000  0.3604  0.8816 -0.8324
13353TIP3    H240005   6.023   8.016   6.125 -0.4615  0.0444 -0.0453
13354TIP3   OH240006   2.382   6.211   1.535 -0.7133  0.3278  0.2112
13354TIP3    H140007   2.362   6.142   1.598 -0.9943  0.6115  0.4366
13354TIP3    H240008   2.468   6.244   1.562 -0.6977  0.2420  0.2653
13355TIP3   OH240009   6.323   6.410   2.454 -1.1263  0.0082  0.3013
13355TIP3    H140010   6.404   6.360   2.444 -1.5955 -0.8732  0.8429
13355TIP3    H240011   6.254   6.345   2.453 -1.7550  0.6475  0.9273
13356TIP3   OH240012   2.146   6.635   0.426  0.5295 -0.1348  0.4536
13356TIP3    H140013   2.158   6.563   0.364 -0.5424  0.0180  0.0596
13356TIP3    H240014   2.062   6.674   0.402  2.4885  3.1712 -1.3078
13357TIP3   OH240015   7.314   6.146   0.856 -0.2457 -0.5565 -0.1895
13357TIP3    H140016   7.263   6.223   0.833 -0.1875 -0.1948  0.8877
13357TIP3    H240017   7.395   6.155   0.806 -0.0254  0.3324  0.3346
13358TIP3   OH240018   0.302   6.624   1.518 -0.6784 -0.0029 -0.1695
13358TIP3    H140019   0.319   6.607   1.426 -1.2526 -1.2939 -0.0497
13358TIP3    H240020   0.207   6.630   1.525 -0.5518  1.8790  0.0484
13359TIP3   OH240021   7.407   7.554   2.876  0.0144 -0.3778  0.8575
13359TIP3    H140022   7.497   7.577   2.856 -0.6102  1.1369 -0.3388
13359TIP3    H240023   7.366   7.636   2.904 -1.1767 -0.9002  0.7152
13360TIP3   OH240024   2.532   4.815   1.543 -0.1131 -0.0196 -0.4448
13360TIP3    H140025   2.616   4.770   1.545  0.1008  0.3957  0.1338
13360TIP3    H240026   2.482   4.771   1.475  0.6932 -0.0639 -1.0090
13361TIP3   OH240027   7.311   5.672   1.929  0.0260 -0.0108 -0.0311
13361TIP3    H140028   7.400   5.706   1.935  0.2238 -0.2357 -1.5981
13361TIP3    H240029   7.311   5.594   1.986  0.4060  0.8221  1.1338
13362TIP3   OH240030   5.960   0.675   6.598  0.1010 -0.4638  0.5372
13362TIP3    H140031   5.937   0.598   6.651 -0.2088 -0.4951  0.3592
13362TIP3    H240032   6.049   0.697   6.625 -0.1909 -0.2465  1.3582
13363TIP3   OH240033   1.596   6.011   0.451  0.5240 -0.0772  0.0686
13363TIP3    H140034   1.622   6.101   0.432 -0.3579  0.4261  1.2021
13363TIP3    H240035   1.503   6.008   0.428  0.4069 -0.5325  0.6070
13364TIP3   OH240036   4.380   3.607   1.095 -0.5553 -0.2529  0.1568
13364TIP3    H140037   4.474   3.617   1.112 -0.5348  0.1993 -0.1986
13364TIP3    H240038   4.338   3.660   1.162 -0.5250  0.2170 -0.1867
13365TIP3   OH240039   8.461   3.051   6.000 -0.3563  0.0423 -0.1547
13365TIP3    H140040   8.420   3.005   6.074 -0.4271  0.0873 -0.1648
13365TIP3    H240041   8.554   3.054   6.022 -0.1380 -1.3736 -0.8363
13366TIP3   OH240042   3.526   3.424   1.187  0.2051 -0.0587  0.5627
13366TIP3    H140043   3.567   3.419   1.101  0.2660 -0.9728  0.6338
13366TIP3    H240044   3.588   3.379   1.245  0.8159  1.7311  1.3443
13367TIP3   OH240045   6.536   0.997   6.907  0.1669  0.8079  0.1416
13367TIP3    H140046   6.590   1.034   6.836  1.6716  0.3373  1.0103
13367TIP3    H240047   6.543   0.903   6.896 -2.8662  0.7178 -1.4667
13368TIP3   OH240048   4.360   7.388   6.053 -0.3193 -0.4996  0.0864
13368TIP3    H140049   4.384   7.306   6.095  2.6539  0.8475  1.2103
13368TIP3    H240050   4.293   7.426   6.110  0.9114 -0.4837  1.5503
13369TIP3   OH240051   0.236   1.358   6.529  0.3609 -0.0288  0.1929
13369TIP3    H140052   0.241   1.368   6.624  0.4464  1.1256  0.0697
13369TIP3    H240053   0.164   1.296   6.516 -0.5326  0.8212  0.9652
13370TIP3   OH240054   1.183   6.554   0.697  0.3587  0.0844  0.3397
13370TIP3    H140055   1.131   6.556   0.777 -0.2894  2.1266 -0.1065
13370TIP3    H240056   1.273   6.569   0.726 -0.0172  1.9591  0.5996
13371TIP3   OH240057   5.469   0.722   0.573 -0.7122  0.1727 -0.0864
13371TIP3    H140058   5.480   0.811   0.608 -0.0793 -0.2728  0.8501
13371TIP3    H240059   5.435   0.671   0.647  0.6245 -0.7812 -0.1219
13372TIP3   OH240060   8.485   0.089   6.936 -0.6907 -0.0410 -0.6124
13372TIP3    H140061   8.524   0.006   6.909 -1.0084 -0.3723 -0.0664
13372TIP3    H240062   8.453   0.128   6.855  0.9251  0.3241 -1.0964
13373TIP3   OH240063   3.146   6.041   1.303  0.0644 -0.1880 -0.2392
13373TIP3    H140064   3.154   6.110   1.370  0.3451 -0.0399 -0.4225
13373TIP3    H240065   3.094   6.081   1.234 -0.2302 -0.3440 -0.1097
13374TIP3   OH240066   2.735   4.306   1.236  0.0735  0.2566 -0.1600
13374TIP3    H140067   2.724   4.226   1.287  0.1264  1.4960  1.8590
13374TIP3    H240068   2.814   4.347   1.272 -0.5766  1.7635 -0.3852
13375TIP3   OH240069   0.764   6.216   1.444  0.3280 -0.4355  0.7646
13375TIP3    H140070   0.808   6.131   1.443  0.6637 -0.2568 -1.3606
13375TIP3    H240071   0.671   6.195   1.431  0.4821 -0.4375 -0.3287
13376TIP3   OH240072   5.143   8.001   5.779 -0.1580 -0.1569  0.1617
13376TIP3    H140073   5.191   8.016   5.698 -1.4561  2.0508 -0.2290
13376TIP3    H240074   5.097   7.918   5.765  0.8460 -0.5818 -0.7315
13377TIP3   OH240075   2.006   3.382   5.698  0.3772 -0.1948 -0.1783
13377TIP3    H140076   2.045   3.366   5.784  0.5444 -0.5051 -0.3115
13377TIP3    H240077   1.913   3.362   5.710  0.3505  0.0517  0.0083
13378TIP3   OH240078   6.996   1.637   6.498  0.0015  0.1835  0.1926
13378TIP3    H140079   7.040   1.715   6.532 -0.4057 -0.0379  1.2395
13378TIP3    H240080   6.904   1.649   6.522 -0.3013  0.0313 -0.8543
13379TIP3   OH240081   2.087   4.687   0.231 -0.0406  0.3003 -0.0413
13379TIP3    H140082   2.089   4.678   0.136 -0.7004  0.3462 -0.0582
13379TIP3    H240083   2.085   4.597   0.264  2.0592  0.2229 -0.0179
13380TIP3   OH240084   6.683   7.936   5.784  0.0608 -0.0489 -0.4457
13380TIP3    H140085   6.694   7.979   5.869 -0.4233  3.0157 -1.8653
13380TIP3    H240086   6.638   7.854   5.804  0.3513  0.4101  2.2778
13381TIP3   OH240087   1.724   6.879   0.905  0.0118  0.5169 -0.8887
13381TIP3    H140088   1.791   6.947   0.900 -0.3799  0.8895 -1.2035
13381TIP3    H240089   1.767   6.801   0.871  0.6083  0.4938 -0.0768
13382TIP3   OH240090   2.739   0.293   0.325 -0.2527  0.5240  0.1135
13382TIP3    H140091   2.691   0.247   0.395 -0.4507 -0.1088 -0.4340
13382TIP3    H240092   2.831   0.285   0.351 -0.3915  1.2254  0.8567
13383TIP3   OH240093   0.564   5.774   1.087  0.0997  0.3475 -0.3470
13383TIP3    H140094   0.519   5.818   1.158 -0.9979 -0.5196 -0.4828
13383TIP3    H240095   0.657   5.776   1.111 -0.1475  1.0521  0.5424
13384TIP3   OH240096   0.727   5.171   0.145 -0.2473 -0.1705 -0.0387
13384TIP3    H140097   0.781   5.231   0.196  0.2374  0.2176 -1.0013
13384TIP3    H240098   0.789   5.119   0.094 -0.6558 -1.5550  0.8225
13385TIP3   OH240099   6.041   2.664   4.836  0.2065  0.5957 -0.2816
13385TIP3    H140100   6.027   2.625   4.750  1.2996  0.4481 -0.3898
13385TIP3    H240101   6.041   2.590   4.896  2.5624  0.3899 -0.5184
13386TIP3   OH240102   0.220   2.810   5.890  0.4498  0.0044  0.0040
13386TIP3    H140103   0.273   2.801   5.969  0.0820  1.6905  0.4685
13386TIP3    H240104   0.211   2.905   5.878 -0.3947 -0.2408 -1.4581
13387TIP3   OH240105   4.121   7.659   3.719 -0.4156  0.1937  0.1761
13387TIP3    H140106   4.174   7.630   3.793  1.0974 -0.1409 -1.0308
13387TIP3    H240107   4.045   7.701   3.759  0.6073  0.4122  1.9161
13388TIP3   OH240108   3.521   2.674   6.864 -0.1327 -0.2349  0.2870
13388TIP3    H140109   3.456   2.732   6.903 -1.6743 -1.6324 -0.1750
13388TIP3    H240110   3.483   2.649   6.780  2.0960  0.8662 -1.1204
13389TIP3   OH240111   4.738   7.531   1.343 -0.0040 -0.3312  0.3716
13389TIP3    H140112   4.745   7.444   1.306  1.1209 -0.0159 -0.1651
13389TIP3    H240113   4.769   7.522   1.433  1.9916 -0.1016 -0.2712
13390TIP3   OH240114   1.301   1.607   2.171 -0.3626 -0.0263  0.3142
13390TIP3    H140115   1.366   1.676   2.182 -0.4497  0.0580  0.2997
13390TIP3    H240116   1.273   1.586   2.261 -1.3469  0.9239  0.2415
13391TIP3   OH240117   2.212   3.270   2.208  0.6708  0.4693 -0.3998
13391TIP3    H140118   2.302   3.242   2.223  0.6192  0.5544  0.0911
13391TIP3    H240119   2.193   3.244   2.118  1.1489  0.3523 -0.4674
13392TIP3   OH240120   0.900   1.379   0.884  0.1656  0.3098 -0.5090
13392TIP3    H140121   0.936   1.292   0.865 -2.6210 -0.8312 -0.9535
13392TIP3    H240122   0.848   1.366   0.964 -2.3099  0.9208 -1.9550
13393TIP3   OH240123   1.123   1.089   3.519 -0.3679 -0.1232 -0.0684
13393TIP3    H140124   1.145   1.161   3.460 -0.6491 -0.3916 -0.5015
13393TIP3    H240125   1.200   1.032   3.516 -0.3434 -0.0893 -0.0947
13394TIP3   OH240126   0.413   0.456   3.076  0.2929 -0.1550  0.2307
13394TIP3    H140127   0.490   0.402   3.093  0.6610 -0.1387 -1.2817
13394TIP3    H240128   0.431   0.498   2.992 -0.7341  0.9859  0.5645
13395TIP3   OH240129   5.973   6.584   0.565 -0.1160  0.3254 -0.3380
13395TIP3    H140130   5.888   6.578   0.610 -0.7144 -1.0118 -1.6342
13395TIP3    H240131   5.998   6.676   0.575 -1.7855  0.7778 -0.0618
13396TIP3   OH240132   6.884   5.871   1.946  0.9182  0.2462  0.2526
13396TIP3    H140133   6.971   5.896   1.978  0.6598  1.4012  0.0919
13396TIP3    H240134   6.895   5.781   1.915  1.4983 -0.4177  2.2922
13397TIP3   OH240135   2.485   2.851   6.683  0.4693  0.0021  0.0892
13397TIP3    H140136   2.428   2.813   6.616  0.1953  1.6541 -0.6357
13397TIP3    H240137   2.428   2.859   6.760 -0.0085  0.7323 -0.3360
13398TIP3   OH240138   5.958   7.359   1.096  0.2437 -0.7180  0.0472
13398TIP3    H140139   5.956   7.454   1.088 -0.1736 -0.6883  0.5471
13398TIP3    H240140   6.051   7.338   1.110  0.1997 -0.3090  0.9506
13399TIP3   OH240141   1.795   1.837   2.528  0.0180 -0.4265 -0.2284
13399TIP3    H140142   1.772   1.899   2.597 -0.7138 -1.1439  0.1795
13399TIP3    H240143   1.778   1.884   2.447  0.6002  0.3182  0.0752
13400TIP3   OH240144   5.000   3.956   1.198  0.5674  0.2192 -0.4511
13400TIP3    H140145   5.063   3.995   1.138 -0.1572  0.6071 -0.9792
13400TIP3    H240146   4.941   4.029   1.220  1.2450  0.2616  1.3007
13401TIP3   OH240147   1.154   0.555   0.583 -0.2303  0.2791 -0.3333
13401TIP3    H140148   1.241   0.525   0.609  0.2154  1.0229 -0.9580
13401TIP3    H240149   1.115   0.587   0.665 -0.0317 -0.3245  0.0030
13402TIP3   OH240150   6.727   0.337   2.611 -0.5525 -0.0824 -0.3024
13402TIP3    H140151   6.667   0.284   2.664 -1.2320  0.9262 -0.0477
13402TIP3    H240152   6.719   0.302   2.523  0.1507 -1.4026  0.1479
13403TIP3   OH240153   5.455   7.145   0.109 -0.9888 -0.0442 -0.0656
13403TIP3    H140154   5.468   7.181   0.197  1.8402 -1.8140  0.3003
13403TIP3    H240155   5.532   7.174   0.060 -2.6442  1.1279 -2.0935
13404TIP3   OH240156   7.666   1.842   2.705 -0.5778 -0.1071 -0.7953
13404TIP3    H140157   7.756   1.826   2.677 -0.5925 -1.2237 -0.2107
13404TIP3    H240158   7.670   1.922   2.757 -0.0719  0.3229 -1.4824
13405TIP3   OH240159   0.156   0.227   2.513  0.1941  0.6280 -0.2723
13405TIP3    H140160   0.086   0.290   2.495 -0.7370 -0.1693  0.4634
13405TIP3    H240161   0.114   0.160   2.567  0.7508 -1.4107 -2.2526
13406TIP3   OH240162   5.902   7.395   1.829 -0.1390  0.2856 -0.0552
13406TIP3    H140163   5.809   7.384   1.811 -0.3950  0.6547  0.9901
13406TIP3    H240164   5.926   7.317   1.879  0.1699  0.0853 -0.5079
13407TIP3   OH240165   4.714   7.556   2.181 -0.3508 -0.1028 -0.6444
13407TIP3    H140166   4.639   7.568   2.239  0.6566 -0.7399  0.7967
13407TIP3    H240167   4.735   7.644   2.151 -0.7910  0.2422  0.0520
13408TIP3   OH240168   4.805   6.205   0.883 -0.1489 -0.0572 -0.6224
13408TIP3    H140169   4.814   6.296   0.858 -1.8428 -0.0969 -1.4304
13408TIP3    H240170   4.807   6.206   0.979  1.4130  0.6307 -0.6444
13409TIP3   OH240171   6.520   7.106   1.113  0.2306  1.1863  0.2031
13409TIP3    H140172   6.486   7.025   1.153 -1.5103  1.3468 -0.8930
13409TIP3    H240173   6.612   7.087   1.095  0.3425  0.1490  1.7801
13410TIP3   OH240174   6.496   5.960   0.782  0.1067 -0.4008 -0.0359
13410TIP3    H140175   6.483   6.000   0.868  1.3102 -0.7157  0.2992
13410TIP3    H240176   6.408   5.936   0.753 -0.4387  0.8104  0.5629
13411TIP3   OH240177   5.258   4.093   1.628  0.2887 -0.0066  0.2122
13411TIP3    H140178   5.205   4.087   1.707 -0.4595 -0.6008 -0.3243
13411TIP3    H240179   5.195   4.099   1.557  0.9536  0.2806 -0.3575
13412TIP3   OH240180   7.175   6.043  -0.001 -0.2247  0.1209 -0.4087
13412TIP3    H140181   7.269   6.038   0.015 -0.3981 -1.9784  0.1227
13412TIP3    H240182   7.143   6.108   0.062  0.6015 -0.5345  0.6985
13413TIP3   OH240183   3.492   6.684   6.421 -0.2388  0.1493  0.4285
13413TIP3    H140184   3.421   6.619   6.414  1.0706 -1.1954 -0.7389
13413TIP3    H240185   3.535   6.664   6.504  1.4766 -1.9082 -0.8916
13414TIP3   OH240186   6.642   7.476   1.039  0.3927  0.0312 -0.2550
13414TIP3    H140187   6.670   7.453   0.950 -0.1006 -3.1260  0.3443
13414TIP3    H240188   6.547   7.469   1.036 -0.0046  4.1439 -0.5225
13415TIP3   OH240189   1.193   0.688   0.827 -0.3758 -0.0468  0.0138
13415TIP3    H140190   1.222   0.776   0.801 -1.0266  0.5255  1.1497
13415TIP3    H240191   1.122   0.705   0.890  0.4993 -1.3866  1.3846
13416TIP3   OH240192   3.257   0.765   2.148 -0.7296 -0.4806  0.1164
13416TIP3    H140193   3.258   0.854   2.113 -2.7878 -0.6136 -0.3299
13416TIP3    H240194   3.165   0.747   2.168 -0.5315 -2.9189 -0.8908
13417TIP3   OH240195   4.918   7.908   1.795 -0.0725 -0.4600  0.3324
13417TIP3    H140196   4.973   7.851   1.848 -0.2273  0.6794  1.7458
13417TIP3    H240197   4.872   7.849   1.735  1.6261 -1.5671  0.0769
13418TIP3   OH240198   4.830   7.751   1.546 -0.5390  0.4526 -0.0956
13418TIP3    H140199   4.746   7.711   1.568 -0.1822 -0.4703 -0.3861
13418TIP3    H240200   4.895   7.685   1.570  0.2037  1.6449  1.3417
13419TIP3   OH240201   0.980   1.956   3.706  0.0532 -0.0554  0.6135
13419TIP3    H140202   0.942   1.882   3.658 -0.3315  1.4418 -1.4405
13419TIP3    H240203   0.963   1.935   3.798 -0.0378 -2.5241  0.0791
13420TIP3   OH240204   1.293   0.311   0.105  0.4683 -0.0146 -0.0153
13420TIP3    H140205   1.253   0.306   0.018  0.8061 -1.1847 -0.1199
13420TIP3    H240206   1.379   0.271   0.094 -0.1971 -1.8689  1.2616
13421TIP3   OH240207   8.433   8.043   1.327 -0.0574 -0.1729  0.3692
13421TIP3    H140208   8.527   8.026   1.318  0.2852  0.6281  2.2126
13421TIP3    H240209   8.393   7.956   1.326  0.5349 -0.4664 -1.8768
13422TIP3   OH240210   0.169   1.484   0.701 -0.1187  0.1026  0.3104
13422TIP3    H140211   0.107   1.521   0.765  1.4119  0.7475  1.4453
13422TIP3    H240212   0.227   1.557   0.679  0.4690 -0.5980 -0.4656
13423TIP3   OH240213   0.555   1.702   3.786 -0.6365  0.5485  0.5751
13423TIP3    H140214   0.520   1.684   3.873  0.7318  0.3517  1.1016
13423TIP3    H240215   0.491   1.760   3.745 -2.4509 -1.2235  0.8422
13424TIP3   OH240216   1.079   2.430   1.448 -0.4898  0.0831 -0.2377
13424TIP3    H140217   1.045   2.342   1.464  0.3824 -0.8469 -3.2083
13424TIP3    H240218   1.163   2.432   1.495 -0.2627 -0.8594 -0.5968
13425TIP3   OH240219   1.058   0.204   0.576  0.5176 -0.5691  0.0613
13425TIP3    H140220   1.117   0.189   0.502  0.6645 -1.7716  0.4060
13425TIP3    H240221   1.115   0.234   0.646  0.2954  1.1583 -0.4789
13426TIP3   OH240222   0.758   1.746   0.417 -0.7741 -0.3391  0.5014
13426TIP3    H140223   0.835   1.745   0.361 -1.0777 -2.6049  0.0567
13426TIP3    H240224   0.793   1.761   0.505  0.2257 -1.5737  0.3396
13427TIP3   OH240225   0.855   7.104   0.553  0.3199  0.2353  0.0222
13427TIP3    H140226   0.777   7.103   0.497  0.0750 -0.0815  0.3597
13427TIP3    H240227   0.843   7.180   0.610  0.3806  0.3316 -0.0920
13428TIP3   OH240228   6.420   6.409   1.222  0.6366  0.0490  0.2210
13428TIP3    H140229   6.507   6.444   1.205  0.0328  2.1759  1.3970
13428TIP3    H240230   6.426   6.367   1.307  0.3719  0.7266  0.5786
13429TIP3   OH240231   1.540   3.895   5.666  0.5060  0.3458  0.1709
13429TIP3    H140232   1.473   3.827   5.674  0.9065  0.0077  0.7365
13429TIP3    H240233   1.502   3.971   5.709 -0.0106  0.5320 -0.6088
13430TIP3   OH240234   3.690   6.776   0.474  0.2138 -0.2912  0.3738
13430TIP3    H140235   3.705   6.827   0.554 -0.7829  0.4010  0.1190
13430TIP3    H240236   3.648   6.696   0.505  3.2390 -1.7099  0.9585
13431TIP3   OH240237   8.247   1.019   1.089  0.1683 -0.1904  0.3635
13431TIP3    H140238   8.193   0.954   1.134 -1.1931  0.7670  0.1393
13431TIP3    H240239   8.330   1.019   1.137  0.6130 -2.8983 -0.3152
13432TIP3   OH240240   6.685   7.008   3.007  0.3607  0.4022  0.6709
13432TIP3    H140241   6.731   6.959   2.939 -0.7768  0.7352 -0.3438
13432TIP3    H240242   6.698   7.100   2.983  0.6588  0.5484  1.3720
13433TIP3   OH240243   1.134   1.788   1.428  0.3243  0.0581  0.6124
13433TIP3    H140244   1.152   1.860   1.489  0.1121  0.0119  0.7313
13433TIP3    H240245   1.040   1.796   1.410  0.3769  0.0365  0.3367
13434TIP3   OH240246   6.025   7.171   1.414 -0.0163 -0.1186  0.0366
13434TIP3    H140247   6.066   7.253   1.441 -0.2506  0.6750 -1.9383
13434TIP3    H240248   6.096   7.119   1.378  0.0335 -0.5870  0.7896
13435TIP3   OH240249   0.511   2.018   1.075  0.4840 -0.6270  0.0171
13435TIP3    H140250   0.497   2.078   1.002  3.8149  0.2060 -0.0496
13435TIP3    H240251   0.460   1.940   1.054 -1.1779  0.8661 -1.5786
13436TIP3   OH240252   5.626   6.303   1.716 -0.1634  0.5622  0.0815
13436TIP3    H140253   5.557   6.368   1.729 -0.1589  0.7610 -0.8338
13436TIP3    H240254   5.674   6.301   1.799 -1.1349  0.5759  0.6462
13437TIP3   OH240255   2.129   1.365   0.970  0.0509 -0.6809  0.1419
13437TIP3    H140256   2.110   1.436   1.031  0.6878 -0.2955 -0.1049
13437TIP3    H240257   2.087   1.392   0.888 -0.6667 -1.1225  0.3600
13438TIP3   OH240258   7.874   7.744   0.827  0.2957 -0.7934 -0.2693
13438TIP3    H140259   7.783   7.770   0.813  0.5503  0.4129  0.2076
13438TIP3    H240260   7.925   7.819   0.796  0.9936  0.2504  3.0986
13439TIP3   OH240261   5.252   3.012   6.400  0.5339  0.7821  0.1741
13439TIP3    H140262   5.338   3.045   6.428 -0.3099  3.4668 -0.2881
13439TIP3    H240263   5.191   3.051   6.462 -0.6426  1.1364 -1.2003
13440TIP3   OH240264   6.828   5.397   0.638  0.4935  0.4133 -0.0258
13440TIP3    H140265   6.809   5.395   0.544  2.1794 -1.2142 -0.3731
13440TIP3    H240266   6.924   5.397   0.642  0.4345  0.8496  1.7092
13441TIP3   OH240267   0.540   2.125   0.465 -0.4553 -0.4981 -0.5446
13441TIP3    H140268   0.518   2.052   0.523 -2.3594  1.1938  0.9292
13441TIP3    H240269   0.624   2.157   0.498 -0.1020 -1.4002 -0.5691
13442TIP3   OH240270   8.342   5.846   0.642 -0.0982 -0.0945 -0.6591
13442TIP3    H140271   8.250   5.833   0.662 -0.2162 -1.6301 -2.1240
13442TIP3    H240272   8.384   5.856   0.728 -1.6247  0.7234  0.0017
13443TIP3   OH240273   1.197   6.631   1.570  0.2213 -0.4414 -0.0240
13443TIP3    H140274   1.154   6.690   1.631  1.5027  2.2178 -1.5983
13443TIP3    H240275   1.290   6.637   1.592  0.7054  0.5512 -2.1410
13444TIP3   OH240276   0.416   7.275   2.805  0.0005 -0.0367  0.2115
13444TIP3    H140277   0.347   7.338   2.787 -0.8045 -0.7667  0.7422
13444TIP3    H240278   0.489   7.328   2.836 -0.5591  0.6643  0.3394
13445TIP3   OH240279   5.449   7.609   1.995 -0.1613 -0.0112 -0.0242
13445TIP3    H140280   5.388   7.682   1.998  0.0389  0.1006  1.8531
13445TIP3    H240281   5.517   7.637   1.934  0.8777  2.1569  2.0797
13446TIP3   OH240282   5.500   7.887   2.292 -0.2829 -0.3526 -0.0843
13446TIP3    H140283   5.473   7.964   2.343 -0.1805 -0.1479 -0.3338
13446TIP3    H240284   5.594   7.899   2.279 -0.2111 -0.6703  0.1230
13447TIP3   OH240285   1.512   0.851   4.092 -0.0774 -0.1525 -0.0555
13447TIP3    H140286   1.510   0.947   4.088  3.1215  0.0769  1.9544
13447TIP3    H240287   1.568   0.825   4.019 -0.3349 -0.4611 -0.1455
13448TIP3   OH240288   6.723   6.243   0.591  0.6259  0.1142 -0.2044
13448TIP3    H140289   6.678   6.164   0.558 -0.2273  0.3754  0.3294
13448TIP3    H240290   6.654   6.295   0.631  1.6190 -0.0611  1.7617
13449TIP3   OH240291   0.497   0.765   0.281  0.2463  0.6660 -0.2342
13449TIP3    H140292   0.456   0.739   0.363  0.4123 -1.5229 -0.8243
13449TIP3    H240293   0.585   0.795   0.306 -0.5649  2.3901  0.6524
13450TIP3   OH240294   2.322   5.934   6.808  0.4153  0.1543  0.1860
13450TIP3    H140295   2.417   5.931   6.813  0.5343 -0.4897 -1.9022
13450TIP3    H240296   2.293   5.860   6.862  1.2139 -1.1730 -1.1388
13451TIP3   OH240297   3.407   5.943   1.854  0.1131  0.2706 -0.0354
13451TIP3    H140298   3.479   5.879   1.857  0.7571  1.0218  0.7567
13451TIP3    H240299   3.374   5.946   1.943  0.0082  0.9630 -0.0945
13452TIP3   OH240300   7.284   8.010   2.981  0.3749  0.0551 -0.4907
13452TIP3    H140301   7.192   7.988   2.970  0.5441 -2.2114  2.1260
13452TIP3    H240302   7.329   7.958   2.913 -0.2524  1.4213 -1.9866
13453TIP3   OH240303   6.421   2.521   5.798 -0.4085 -0.1492 -0.3904
13453TIP3    H140304   6.431   2.443   5.853 -0.2340  1.0012  1.2553
13453TIP3    H240305   6.329   2.520   5.772 -0.3543 -1.0119 -0.5690
13454TIP3   OH240306   0.204   7.577   3.854  0.0975  0.4984 -0.5815
13454TIP3    H140307   0.239   7.643   3.794 -0.1084  1.1661  0.0244
13454TIP3    H240308   0.247   7.596   3.937  0.3968 -0.4383 -0.5187
13455TIP3   OH240309   0.405   5.209   1.124  0.3797 -0.2799 -0.2256
13455TIP3    H140310   0.474   5.152   1.156 -2.6174 -4.1028 -0.2658
13455TIP3    H240311   0.429   5.226   1.033  1.4749 -1.1747 -0.1224
13456TIP3   OH240312   2.771   0.731   1.455  0.3944 -0.7422 -0.3351
13456TIP3    H140313   2.708   0.666   1.423  1.4614 -1.4889 -0.9519
13456TIP3    H240314   2.718   0.809   1.472 -0.3651 -0.6211 -3.0364
13457TIP3   OH240315   3.362   1.080   1.324 -0.6339 -0.1216  0.1306
13457TIP3    H140316   3.386   1.169   1.296 -0.1998 -0.7613 -1.5976
13457TIP3    H240317   3.314   1.044   1.249 -0.3492 -1.5269  0.6124
13458TIP3   OH240318   6.592   7.126   1.453  0.2867 -0.2264  0.7655
13458TIP3    H140319   6.658   7.060   1.436 -0.1231 -0.6495  0.8108
13458TIP3    H240320   6.609   7.194   1.387 -0.6565 -1.3869 -0.7015
13459TIP3   OH240321   7.423   6.592   0.291 -0.4608  0.1721  0.3532
13459TIP3    H140322   7.407   6.686   0.282  1.0542  0.3844 -0.2828
13459TIP3    H240323   7.515   6.585   0.314 -0.1651 -1.2309 -1.1414
13460TIP3   OH240324   1.240   1.280   2.043  0.5948  0.6414  0.3676
13460TIP3    H140325   1.185   1.339   2.094  2.9438  0.9318  2.7187
13460TIP3    H240326   1.323   1.279   2.091  2.2743 -0.5879 -2.4639
13461TIP3   OH240327   2.143   0.999   1.942  0.6812  0.2158 -0.6294
13461TIP3    H140328   2.069   0.940   1.949  0.7038  0.1814 -0.6779
13461TIP3    H240329   2.175   0.988   1.853  0.6961  0.2885 -0.6333
13462TIP3   OH240330   1.056   7.075   5.076  0.7046 -0.1679  0.2909
13462TIP3    H140331   1.012   7.018   5.139 -0.4067  1.5150  1.0580
13462TIP3    H240332   0.985   7.116   5.027  1.5456 -1.9062 -2.5485
13463TIP3   OH240333   3.009   0.271   1.483 -0.1340 -0.1881  0.2702
13463TIP3    H140334   2.995   0.276   1.388  1.1049  0.6404  0.1184
13463TIP3    H240335   2.926   0.299   1.521 -1.6283 -3.3026 -0.5367
13464TIP3   OH240336   6.201   4.292   6.192 -0.5046  0.6555  0.2669
13464TIP3    H140337   6.117   4.332   6.170 -1.6773 -1.6471  0.3562
13464TIP3    H240338   6.197   4.278   6.287 -0.3216 -0.0907  0.1706
13465TIP3   OH240339   1.833   1.207   3.274 -0.1567 -0.8669  1.0051
13465TIP3    H140340   1.841   1.274   3.206 -0.9777 -0.9452  0.8277
13465TIP3    H240341   1.876   1.246   3.350  2.1929 -1.3939  0.0210
13466TIP3   OH240342   1.498   0.290   2.668 -0.3240 -0.1434  0.0109
13466TIP3    H140343   1.490   0.195   2.665 -0.4103 -0.1046 -1.9018
13466TIP3    H240344   1.587   0.306   2.701  0.3308 -0.9318 -1.3078
13467TIP3   OH240345   2.647   0.122   3.340  0.1073 -0.1385  0.0754
13467TIP3    H140346   2.720   0.179   3.365  0.9680 -1.0336 -0.3557
13467TIP3    H240347   2.600   0.105   3.422 -0.7599  2.0081  0.0356
13468TIP3   OH240348   4.370   2.013   2.189  0.2529 -0.2025 -0.2061
13468TIP3    H140349   4.399   2.101   2.213  0.8530 -0.1142 -1.1942
13468TIP3    H240350   4.377   2.012   2.093 -0.9348 -0.9183 -0.2858
13469TIP3   OH240351   1.927   0.841   3.460  0.3038  0.2035  0.1310
13469TIP3    H140352   1.923   0.870   3.369 -0.3752 -1.5568 -0.4076
13469TIP3    H240353   1.857   0.890   3.504  0.1674  0.5301 -0.4511
13470TIP3   OH240354   7.026   6.845   0.286 -0.7515  0.1914  0.2807
13470TIP3    H140355   7.033   6.749   0.288  0.4475  0.2798  0.8546
13470TIP3    H240356   6.968   6.867   0.358 -0.9859 -0.0959  0.1821
13471TIP3   OH240357   0.675   7.231   1.819 -0.5864  0.5607  0.3210
13471TIP3    H140358   0.755   7.216   1.870 -1.4729 -1.0027  1.2818
13471TIP3    H240359   0.690   7.315   1.776  1.3378  0.5676  0.9495
13472TIP3   OH240360   1.991   0.069   3.664  0.1422  0.6040  0.9545
13472TIP3    H140361   1.981   0.162   3.641  1.7929  1.1472  2.2819
13472TIP3    H240362   2.061   0.069   3.730  0.7613 -1.6763  0.3348
13473TIP3   OH240363   3.288   5.504   6.884  0.0586 -0.9296  0.4016
13473TIP3    H140364   3.380   5.488   6.863  0.6335  1.8508  0.6465
13473TIP3    H240365   3.269   5.589   6.846 -1.9314 -0.6876  1.8610
13474TIP3   OH240366   7.324   2.555   6.636  0.2203 -0.0796  0.0592
13474TIP3    H140367   7.344   2.627   6.575  0.9599  1.2503  1.8265
13474TIP3    H240368   7.234   2.571   6.664 -0.1024 -0.6636 -0.6218
13475TIP3   OH240369   0.214   6.386   0.599  0.0481 -0.1184  0.4131
13475TIP3    H140370   0.256   6.301   0.606  0.3058 -0.0128  0.1654
13475TIP3    H240371   0.269   6.435   0.538 -1.4279 -0.5821 -1.3467
13476TIP3   OH240372   8.134   5.614   2.122 -0.3452  0.6692 -0.0328
13476TIP3    H140373   8.039   5.612   2.127 -0.4190  3.3677  0.7032
13476TIP3    H240374   8.164   5.553   2.190 -1.5626  1.2259  1.0198
13477TIP3   OH240375   0.376   7.216   0.894 -0.1067  0.1261  1.1297
13477TIP3    H140376   0.313   7.275   0.853  0.6766  0.7880  0.8516
13477TIP3    H240377   0.462   7.251   0.868  0.3861 -2.2928 -0.7378
13478TIP3   OH240378   8.366   7.797   0.043 -0.0246  0.3870  0.3078
13478TIP3    H140379   8.403   7.813   0.130  0.4168 -0.6142  0.3115
13478TIP3    H240380   8.421   7.848  -0.016 -0.2963  1.0341  0.6079
13479TIP3   OH240381   8.123   4.456   6.518 -0.4573  0.1147  0.1358
13479TIP3    H140382   8.064   4.466   6.592 -0.6327 -1.4013  0.2224
13479TIP3    H240383   8.095   4.374   6.477  0.7447  0.0663 -0.5955
13480TIP3   OH240384   0.867   8.018   0.575  0.3811 -0.3975 -0.3613
13480TIP3    H140385   0.834   7.972   0.652 -1.4544 -0.2762 -1.0526
13480TIP3    H240386   0.875   7.951   0.508 -0.0154 -0.1427 -0.6683
13481TIP3   OH240387   3.693   0.696   0.735  0.2804 -1.0961  1.2051
13481TIP3    H140388   3.736   0.650   0.662 -1.2817 -1.4977  0.5229
13481TIP3    H240389   3.698   0.788   0.711 -2.2309 -1.3664 -0.5513
13482TIP3   OH240390   4.223   0.109   0.760  0.4343  0.2095 -0.1017
13482TIP3    H140391   4.194   0.114   0.851  2.3621 -0.7085  0.5849
13482TIP3    H240392   4.142   0.106   0.709 -0.6660  0.9533  1.5558
13483TIP3   OH240393   7.139   6.824   0.659  0.1362 -0.0569 -0.0031
13483TIP3    H140394   7.094   6.753   0.705  1.0244 -2.0505 -2.0998
13483TIP3    H240395   7.227   6.826   0.697  0.8194 -1.5991 -1.4086
13484TIP3   OH240396   1.462   0.449   3.466  0.2982 -0.1278  0.5032
13484TIP3    H140397   1.515   0.411   3.536  1.7960 -0.1655 -0.6139
13484TIP3    H240398   1.445   0.539   3.495 -0.7906 -0.7457  1.8187
13485TIP3   OH240399   7.319   7.357   1.599  0.3432 -0.4463  0.7677
13485TIP3    H140400   7.269   7.399   1.529  0.3729 -1.5545  0.0702
13485TIP3    H240401   7.252   7.325   1.660  0.3073  0.3160  1.1292
13486TIP3   OH240402   7.600   1.492   1.070  0.0741 -0.0665 -0.2836
13486TIP3    H140403   7.542   1.495   0.994 -0.6151  3.6016  0.2914
13486TIP3    H240404   7.541   1.495   1.146  0.8087 -2.3258  0.4118
13487TIP3   OH240405   1.194   6.194   2.994  0.1300 -0.1712 -0.5427
13487TIP3    H140406   1.140   6.139   3.051 -0.2079  0.1069 -0.5946
13487TIP3    H240407   1.154   6.281   2.999  0.9192  0.1690 -0.1264
13488TIP3   OH240408   0.059   7.011   0.962 -0.0110 -0.5916  0.1573
13488TIP3    H140409   0.012   7.068   0.901 -1.5132 -1.4325  0.4962
13488TIP3    H240410   0.047   6.923   0.927  0.5440 -0.9007  0.7492
13489TIP3   OH240411   1.277   1.910   0.235 -0.4738  0.3126 -0.1381
13489TIP3    H140412   1.344   1.881   0.296 -0.4352 -1.2368 -0.8842
13489TIP3    H240413   1.324   1.960   0.168 -0.6000  2.5500  1.3976
13490TIP3   OH240414   0.976   7.758   0.201  0.7749  0.2037 -0.8856
13490TIP3    H140415   1.065   7.790   0.188  0.6926  1.7918  1.9040
13490TIP3    H240416   0.921   7.816   0.148  1.2046  0.6000 -0.8964
13491TIP3   OH240417   0.622   0.353   2.327  0.3876 -0.0408  0.1419
13491TIP3    H140418   0.534   0.338   2.363  0.7139  0.5548  1.2307
13491TIP3    H240419   0.624   0.447   2.309  1.0490  0.0808  0.8287
13492TIP3   OH240420   0.909   6.894   0.927  0.3500 -0.0766  0.0983
13492TIP3    H140421   0.900   6.808   0.970 -2.4553  0.9141  1.6527
13492TIP3    H240422   0.930   6.873   0.836  0.7719 -2.3862  0.6892
13493TIP3   OH240423   2.719   0.985   3.179 -1.0739  0.8120 -0.2860
13493TIP3    H140424   2.786   1.024   3.123 -2.2733  1.3402 -1.3835
13493TIP3    H240425   2.692   0.906   3.134  0.7891 -0.9302  1.5535
13494TIP3   OH240426   7.163   3.159   5.358 -0.2629  0.4066 -0.0453
13494TIP3    H140427   7.256   3.158   5.333 -0.1724  0.3976  0.2891
13494TIP3    H240428   7.117   3.179   5.277  0.0326  0.4177 -0.2131
13495TIP3   OH240429   7.967   0.252   1.438  0.3511  0.1291  0.8084
13495TIP3    H140430   7.878   0.281   1.457 -0.6455 -2.3655  0.1854
13495TIP3    H240431   8.023   0.319   1.477 -1.7588  0.6951  3.0034
13496TIP3   OH240432   3.286   2.297   0.543 -0.3259  0.0300 -0.3290
13496TIP3    H140433   3.317   2.300   0.633  1.7258 -1.5623 -0.9572
13496TIP3    H240434   3.210   2.238   0.546 -1.0104  0.9219  0.5305
13497TIP3   OH240435   1.803   1.034   2.311 -0.2721  0.1508 -0.7848
13497TIP3    H140436   1.861   1.068   2.243 -0.2114 -1.0601 -1.3562
13497TIP3    H240437   1.769   1.112   2.355  1.2023  0.8894 -0.9210
13498TIP3   OH240438   6.700   8.003   1.996  0.4468 -0.1290  0.4015
13498TIP3    H140439   6.712   8.018   1.902  0.0357 -1.3654  0.1518
13498TIP3    H240440   6.606   8.004   2.009  0.5416  2.2037  1.1758
13499TIP3   OH240441   6.582   6.454   1.636  0.2781 -0.0542 -0.2123
13499TIP3    H140442   6.525   6.490   1.704  2.0214  0.1412  1.1798
13499TIP3    H240443   6.587   6.361   1.657  0.4237 -0.0836 -0.3840
13500TIP3   OH240444   7.265   7.993   1.629 -0.1878 -0.1575 -0.1471
13500TIP3    H140445   7.261   7.958   1.718 -3.3370 -1.0106 -0.5625
13500TIP3    H240446   7.182   7.966   1.589 -0.4083  3.2525 -2.1965
13501TIP3   OH240447   7.174   7.210   0.772  0.3545  0.3577 -0.0173
13501TIP3    H140448   7.216   7.128   0.798 -0.3103 -0.0302 -0.1392
13501TIP3    H240449   7.162   7.202   0.677  2.0556  1.4284 -0.3550
13502TIP3   OH240450   0.899   7.336   1.246 -0.7398 -0.2435  0.0706
13502TIP3    H140451   0.907   7.301   1.335  0.3715  0.9493  0.4511
13502TIP3    H240452   0.821   7.294   1.211 -1.9599  0.2732  2.0841
13503TIP3   OH240453   6.442   3.410   6.892 -0.0314 -0.7282  0.2280
13503TIP3    H140454   6.421   3.479   6.830  3.4307  2.3853  2.3425
13503TIP3    H240455   6.383   3.427   6.966 -0.3827 -1.1271  0.0425
13504TIP3   OH240456   6.490   3.586   1.474 -0.2728  0.0574  0.5658
13504TIP3    H140457   6.396   3.586   1.487 -0.7515 -1.9263 -2.2607
13504TIP3    H240458   6.514   3.493   1.470  1.4958  0.5223 -0.4469
13505TIP3   OH240459   8.048   7.320   4.582  0.0597 -0.1092 -0.2665
13505TIP3    H140460   8.040   7.330   4.487 -1.1091  0.8983 -0.0741
13505TIP3    H240461   7.957   7.312   4.613  0.4674 -1.1771  0.6917
13506TIP3   OH240462   4.012   1.610   1.444  0.0476  0.0345 -0.2336
13506TIP3    H140463   4.024   1.525   1.402  1.3363 -0.0976  0.3714
13506TIP3    H240464   4.004   1.589   1.537 -0.3300  0.5154 -0.1584
13507TIP3   OH240465   1.496   1.212   3.200  0.6789 -0.4537  0.2843
13507TIP3    H140466   1.588   1.210   3.227  0.7752 -0.6723 -0.0558
13507TIP3    H240467   1.448   1.229   3.281  1.1383  1.6447  0.1347
13508TIP3   OH240468   2.847   1.888   1.269  0.2711  0.1158  0.5301
13508TIP3    H140469   2.756   1.883   1.299 -0.2915  1.4109 -0.9158
13508TIP3    H240470   2.899   1.867   1.347 -1.2657 -1.7697  1.0950
13509TIP3   OH240471   6.324   6.520   0.180 -0.5361  0.3681 -0.2559
13509TIP3    H140472   6.262   6.576   0.228 -0.3511  0.2885  0.0815
13509TIP3    H240473   6.329   6.559   0.093  0.3402  1.4787  0.2771
13510TIP3   OH240474   0.251   5.526   0.816  0.9017  0.0636  0.7979
13510TIP3    H140475   0.346   5.541   0.819  0.9324 -0.2327  1.3445
13510TIP3    H240476   0.241   5.433   0.836  0.6286 -0.4112 -1.4529
13511TIP3   OH240477   8.120   7.375   1.719  0.1007 -0.1053  0.3143
13511TIP3    H140478   8.192   7.434   1.697  0.1117 -0.2773 -0.1103
13511TIP3    H240479   8.133   7.298   1.664  0.3790 -0.7334  1.2432
13512TIP3   OH240480   7.106   7.247   1.722 -0.1015  0.3016  0.0275
13512TIP3    H140481   7.089   7.160   1.758 -1.5592  0.2111 -0.8128
13512TIP3    H240482   7.035   7.301   1.758 -1.3036  0.3122 -2.2551
13513TIP3   OH240483   2.434   0.634   1.566 -0.0654 -0.5155  0.1334
13513TIP3    H140484   2.381   0.683   1.503  0.1514 -3.5922 -2.5391
13513TIP3    H240485   2.490   0.700   1.606 -3.6613  2.3148  0.7528
13514TIP3   OH240486   6.960   7.935   3.021  0.1678 -0.2575  0.3533
13514TIP3    H140487   6.980   7.905   3.109 -2.1179 -1.7489  0.4099
13514TIP3    H240488   6.921   8.022   3.033  0.5567 -0.1413  0.7531
13515TIP3   OH240489   3.633   1.005   0.782 -0.0545 -0.7097 -0.5455
13515TIP3    H140490   3.711   1.058   0.797 -1.5678  1.6649 -0.7585
13515TIP3    H240491   3.583   1.013   0.863 -0.6522 -1.2078 -0.8646
13516TIP3   OH240492   1.318   1.062   3.042  0.9352 -0.5154  0.4717
13516TIP3    H140493   1.280   0.994   3.098 -0.2231 -0.1508  0.1252
13516TIP3    H240494   1.362   1.121   3.103  0.2405 -0.4796  0.9427
13517TIP3   OH240495   0.142   0.280   3.400 -0.6526  0.1867 -0.1103
13517TIP3    H140496   0.151   0.331   3.319 -0.2725  1.3751  0.6550
13517TIP3    H240497   0.216   0.308   3.454 -1.2235 -0.1674  0.8668
13518TIP3   OH240498   5.841   1.459   2.930  0.5354  0.3798  0.1987
13518TIP3    H140499   5.927   1.470   2.971 -0.1392  3.2083  0.8959
13518TIP3    H240500   5.847   1.506   2.847 -0.4948  1.0188  0.4776
13519TIP3   OH240501   7.123   7.887   2.339  0.1749  0.1338  0.0770
13519TIP3    H140502   7.203   7.939   2.331 -2.2726  4.3650  1.3919
13519TIP3    H240503   7.068   7.917   2.267 -1.2718 -0.6638  0.8368
13520TIP3   OH240504   1.950   0.136   2.295  0.6838  0.6017  0.1095
13520TIP3    H140505   1.930   0.226   2.322  1.1351  1.1727 -1.3959
13520TIP3    H240506   2.014   0.146   2.225  1.3100 -0.9433  0.4459
13521TIP3   OH240507   4.864   5.479   0.371  0.4334  0.1272 -0.1040
13521TIP3    H140508   4.895   5.547   0.431 -0.1023 -0.6561  1.0618
13521TIP3    H240509   4.769   5.490   0.368  0.5512  0.8816 -1.6918
13522TIP3   OH240510   1.012   0.581   2.187 -0.2228 -0.2534 -0.4375
13522TIP3    H140511   1.015   0.499   2.235 -0.3042  0.4459  0.7934
13522TIP3    H240512   1.094   0.584   2.138  0.2277 -0.6148  0.2914
13523TIP3   OH240513   6.792   7.802   0.140  0.8378 -0.4432 -0.2339
13523TIP3    H140514   6.751   7.778   0.223  1.3603 -0.9313 -0.1145
13523TIP3    H240515   6.858   7.867   0.165  1.1441 -0.7514 -0.2368
13524TIP3   OH240516   7.313   7.018   0.915 -0.3168  0.1618  0.0149
13524TIP3    H140517   7.349   7.098   0.953 -0.8802  0.9004 -0.9958
13524TIP3    H240518   7.284   6.968   0.991  3.2468 -0.7007  0.8841
13525TIP3   OH240519   1.652   2.023   2.324  0.1137  0.7111 -0.4224
13525TIP3    H140520   1.588   1.956   2.299  2.0614 -0.9819 -0.9521
13525TIP3    H240521   1.606   2.106   2.309 -1.2703 -0.4213 -2.7316
13526TIP3   OH240522   0.722  -0.015   2.076 -0.7316 -0.0647 -0.4566
13526TIP3    H140523   0.735   0.076   2.101 -0.1710 -0.4029  0.4983
13526TIP3    H240524   0.656  -0.048   2.138 -0.1590 -0.5991 -0.1272
13527TIP3   OH240525   3.233   0.079   1.311  0.5156 -0.2966 -0.2173
13527TIP3    H140526   3.315   0.073   1.360  0.9803 -1.9965 -1.1542
13527TIP3    H240527   3.257   0.123   1.230  0.1876  0.5652  0.1512
13528TIP3   OH240528   2.026   1.036   0.947 -0.7159 -0.1879 -0.1450
13528TIP3    H140529   2.098   1.099   0.948  1.2932 -2.3297 -2.8152
13528TIP3    H240530   1.997   1.033   1.038  1.7032  1.6854  0.7659
13529TIP3   OH240531   1.379   3.189   2.276 -0.0190 -0.3189 -0.0896
13529TIP3    H140532   1.343   3.107   2.243 -0.6197 -0.6605  1.3659
13529TIP3    H240533   1.471   3.168   2.295 -0.6808 -1.2774  2.2547
13530TIP3   OH240534   4.583   2.358   6.578 -0.5879  0.1203  0.1143
13530TIP3    H140535   4.607   2.450   6.577 -1.2608  0.3065  0.4918
13530TIP3    H240536   4.512   2.353   6.643  1.0032 -1.0343  1.8082
13531TIP3   OH240537   1.875   0.452   0.934  0.0545  0.4148  0.0609
13531TIP3    H140538   1.902   0.544   0.940 -1.8256  0.9790  0.1960
13531TIP3    H240539   1.845   0.442   0.844 -0.3440  0.1176  0.2239
13532TIP3   OH240540   6.747   8.017   1.731  0.0932 -0.1198 -0.7936
13532TIP3    H140541   6.688   7.947   1.702 -0.0082  0.1859 -1.3431
13532TIP3    H240542   6.797   8.040   1.652  0.5105  0.0497 -0.4818
13533TIP3   OH240543   3.722   1.044   1.169  0.4114 -0.5128  0.1881
13533TIP3    H140544   3.698   1.127   1.127  1.0464 -0.3611  0.1175
13533TIP3    H240545   3.688   0.977   1.111 -0.4668 -0.3025  0.4513
13534TIP3   OH240546   0.333   7.227   0.340  0.5719 -0.4749  0.5664
13534TIP3    H140547   0.366   7.307   0.382  2.0189  1.2396 -3.5174
13534TIP3    H240548   0.411   7.183   0.307 -0.4268 -2.2684  0.5016
13535TIP3   OH240549   0.383   0.975   3.093  0.2257  0.3584 -0.0540
13535TIP3    H140550   0.403   1.006   3.182  2.1374  1.7885 -0.9463
13535TIP3    H240551   0.433   1.033   3.036 -1.5315 -0.1022 -2.1198
13536TIP3   OH240552   3.509   4.690   6.248 -0.5350 -0.3795  0.4101
13536TIP3    H140553   3.603   4.699   6.233 -1.0318  0.8749 -2.2581
13536TIP3    H240554   3.486   4.609   6.203 -1.3419  1.2697 -2.2293
13537TIP3   OH240555   8.281   7.763   1.056  0.1650 -0.1237 -1.3224
13537TIP3    H140556   8.309   7.805   1.137  0.3767 -1.2714 -0.7781
13537TIP3    H240557   8.203   7.714   1.081  0.8157 -1.3110 -1.5532
13538TIP3   OH240558   2.411   0.391   1.814 -0.4010 -0.6626 -0.1713
13538TIP3    H140559   2.501   0.361   1.826  0.2592  0.7009 -1.4461
13538TIP3    H240560   2.416   0.486   1.827 -1.3311 -0.3691 -1.7472
13539TIP3   OH240561   8.485   7.242   2.983  0.6348 -0.4896 -0.2785
13539TIP3    H140562   8.544   7.211   2.914  0.8058  0.4578 -0.5665
13539TIP3    H240563   8.438   7.164   3.012  0.4221 -0.8643 -1.6129
13540TIP3   OH240564   7.962   7.900   1.192  0.3883  0.0288  0.0843
13540TIP3    H140565   7.965   7.824   1.134  1.5495 -0.7010  1.0609
13540TIP3    H240566   7.923   7.969   1.139 -2.2414 -1.6843 -0.3038
13541TIP3   OH240567   2.380   1.382   1.091  0.3686  0.0039  0.3627
13541TIP3    H140568   2.334   1.456   1.131  0.7806  0.0338  0.7936
13541TIP3    H240569   2.311   1.330   1.049 -0.3475 -1.0395  2.7269
13542TIP3   OH240570   8.254   7.897   0.824  0.1200  0.3852  0.3125
13542TIP3    H140571   8.178   7.952   0.845 -0.6472 -0.3895 -0.4322
13542TIP3    H240572   8.280   7.860   0.908 -1.4460 -0.7749  0.3104
13543TIP3   OH240573   1.746   7.600   0.118  0.3347 -0.1508 -0.4003
13543TIP3    H140574   1.809   7.528   0.125  0.7033  0.2887  0.8923
13543TIP3    H240575   1.759   7.652   0.197 -1.0965  0.4013 -0.5047
13544TIP3   OH240576   2.966   2.079   2.546  0.5821  0.4230  0.4494
13544TIP3    H140577   2.954   2.086   2.451 -1.3081  1.5619  0.7498
13544TIP3    H240578   3.045   2.130   2.564 -0.3861  2.1950 -0.2279
13545TIP3   OH240579   4.877   3.751   5.311 -0.1545  0.2263  0.3850
13545TIP3    H140580   4.932   3.800   5.372 -1.8144  0.9362  1.3504
13545TIP3    H240581   4.860   3.813   5.239 -0.2218  0.2338  0.4071
13546TIP3   OH240582   4.048   4.802   6.127 -0.2985 -0.2694 -0.1188
13546TIP3    H140583   4.048   4.882   6.180 -1.0500 -0.2083 -0.2030
13546TIP3    H240584   3.956   4.781   6.116 -0.1191 -0.7705 -0.6774
13547TIP3   OH240585   6.293   6.232   0.267 -0.1488  0.0170 -0.0178
13547TIP3    H140586   6.216   6.255   0.319  0.6656  0.9033  0.8020
13547TIP3    H240587   6.337   6.315   0.250  0.8550 -0.5303 -0.1393
13548TIP3   OH240588   1.937   1.667   4.632 -0.1810  0.1414 -0.1012
13548TIP3    H140589   1.850   1.647   4.596  0.6544 -0.4556 -1.8497
13548TIP3    H240590   1.919   1.726   4.705 -2.0816 -0.1750 -0.2673
13549TIP3   OH240591   6.834   6.062   1.306 -0.1164 -0.0291 -0.5248
13549TIP3    H140592   6.902   6.010   1.349  1.0934  2.8211  1.1123
13549TIP3    H240593   6.807   6.008   1.231  1.8754 -2.4876  0.4433
13550TIP3   OH240594   6.900   7.692   3.292 -0.1493 -0.3543  0.3444
13550TIP3    H140595   6.972   7.631   3.302 -0.1033 -0.3365  0.1221
13550TIP3    H240596   6.931   7.773   3.332 -0.5303 -0.7257  1.3963
13551TIP3   OH240597   7.329   3.399   6.095  0.5610  0.3273 -0.2020
13551TIP3    H140598   7.376   3.341   6.035  1.1334 -2.7448  3.0687
13551TIP3    H240599   7.397   3.433   6.153 -0.2662  1.6249  0.0197
13552TIP3   OH240600   8.490   5.834   1.435 -0.0089 -0.3179  0.1343
13552TIP3    H140601   8.500   5.764   1.500 -0.7132 -0.8050 -0.2729
13552TIP3    H240602   8.510   5.792   1.352 -0.6689 -0.0908 -0.1377
13553TIP3   OH240603   0.022   6.748   0.882  0.2701  0.4500 -0.0727
13553TIP3    H140604   0.053   6.661   0.858 -0.0388  0.3950 -0.2780
13553TIP3    H240605  -0.071   6.747   0.859  0.4470  1.1043 -0.8296
13554TIP3   OH240606   0.856   0.353   0.687  0.3364  0.4685 -0.7992
13554TIP3    H140607   0.916   0.285   0.658  1.3239  1.0439 -0.1271
13554TIP3    H240608   0.845   0.337   0.781 -0.7617  0.2143 -0.9633
13555TIP3   OH240609   7.817   6.792   0.630 -0.1204 -0.1727 -0.3113
13555TIP3    H140610   7.827   6.697   0.641 -0.0618 -0.1137  0.1610
13555TIP3    H240611   7.743   6.814   0.687 -0.9545 -0.1300 -1.3984
13556TIP3   OH240612   0.255   0.195   1.526  0.1133  0.4053 -0.0093
13556TIP3    H140613   0.188   0.189   1.457  0.3108 -0.0834 -0.1623
13556TIP3    H240614   0.215   0.250   1.593  0.7146  2.6564 -1.4301
13557TIP3   OH240615   1.770   6.082   1.260 -0.3696  1.1843  0.3267
13557TIP3    H140616   1.734   6.032   1.333  2.5578 -0.3209  0.8407
13557TIP3    H240617   1.753   6.027   1.183  1.4694  0.0941  0.6776
13558TIP3   OH240618   6.934   7.534   2.060 -0.5066 -0.5732 -0.0463
13558TIP3    H140619   6.852   7.507   2.019 -0.8087 -1.1065  0.8690
13558TIP3    H240620   6.986   7.454   2.063  0.6031  0.0555 -1.8556
13559TIP3   OH240621   1.724   0.311   1.112  0.1116 -0.3531 -0.0567
13559TIP3    H140622   1.763   0.367   1.044  0.1349 -0.0879  0.1740
13559TIP3    H240623   1.788   0.312   1.183 -1.2734  1.8839  1.2461
13560TIP3   OH240624   1.540   1.052   0.503 -0.7324  0.5533  0.2919
13560TIP3    H140625   1.541   1.000   0.583  0.9621  0.2855  0.1019
13560TIP3    H240626   1.447   1.074   0.490 -1.6720 -3.4469 -0.3007
13561TIP3   OH240627   8.138   7.144   2.301  0.0551  0.4792  0.3233
13561TIP3    H140628   8.199   7.074   2.280  0.9587  0.7920  1.8216
13561TIP3    H240629   8.052   7.105   2.292  0.5438 -0.6995  0.6917
13562TIP3   OH240630   6.594   8.004   2.728 -0.7181 -0.0181  0.3269
13562TIP3    H140631   6.688   8.015   2.718 -1.0369  1.6292 -1.1785
13562TIP3    H240632   6.581   7.986   2.821  1.1600 -1.2897  0.3619
13563TIP3   OH240633   2.377   0.105   1.698 -0.2999 -0.2974 -0.0830
13563TIP3    H140634   2.468   0.080   1.706  0.0075  0.5125 -0.9141
13563TIP3    H240635   2.357   0.150   1.781  0.3342  0.3766 -0.2899
13564TIP3   OH240636   0.063   5.927   2.993 -0.3381  0.2836  0.4476
13564TIP3    H140637   0.072   5.851   2.935  0.6133  0.5002  0.2957
13564TIP3    H240638   0.073   6.003   2.935 -1.5558  0.5284  0.5564
13565TIP3   OH240639   0.277   7.273   1.836  0.1868  0.2304  0.4400
13565TIP3    H140640   0.238   7.359   1.850 -2.2389 -0.4369 -1.9672
13565TIP3    H240641   0.362   7.292   1.796  0.1749  1.5089  0.9861
13566TIP3   OH240642   2.391   0.515   0.958  0.1560  0.1809 -0.9410
13566TIP3    H140643   2.332   0.444   0.985  0.1649  1.4647  2.7616
13566TIP3    H240644   2.478   0.485   0.985  0.1100  1.7142  1.0256
13567TIP3   OH240645   2.894   1.513   0.998  0.2076 -0.2031  0.7483
13567TIP3    H140646   2.845   1.458   0.937  1.6018 -0.4044 -0.2107
13567TIP3    H240647   2.868   1.603   0.974 -1.6538 -0.3746  1.9663
13568TIP3   OH240648   7.439   6.159   0.469  0.0934  0.1123  0.1732
13568TIP3    H140649   7.502   6.123   0.407  0.1698  1.1543 -0.3570
13568TIP3    H240650   7.483   6.154   0.554 -0.2517 -1.9029  0.2774
13569TIP3   OH240651   5.140   3.011   6.870 -0.6158 -0.0042  0.4974
13569TIP3    H140652   5.232   3.029   6.852 -0.4585  0.1438  1.3899
13569TIP3    H240653   5.093   3.037   6.790  0.1333 -0.2473 -0.0201
13570TIP3   OH240654   0.688   7.643   0.909 -0.1746  0.2886  0.6776
13570TIP3    H140655   0.609   7.603   0.945  0.3519  0.8840  2.5780
13570TIP3    H240656   0.760   7.598   0.954  0.6474 -1.1476 -1.9498
13571TIP3   OH240657   0.768   1.484   3.194 -0.1157  0.3270  0.3296
13571TIP3    H140658   0.827   1.497   3.120 -0.0983 -0.2278  0.2435
13571TIP3    H240659   0.785   1.395   3.223 -0.7099  0.2601  0.4825
13572TIP3   OH240660   0.196   7.699   3.468  0.0908 -0.1462  0.1612
13572TIP3    H140661   0.254   7.700   3.544  1.5121  0.8925 -0.9083
13572TIP3    H240662   0.211   7.614   3.427  0.5167 -0.0712  0.1601
13573TIP3   OH240663   0.751   1.470   0.395 -0.1042  0.3292  0.4212
13573TIP3    H140664   0.753   1.554   0.440 -1.7995 -0.7491  2.6176
13573TIP3    H240665   0.767   1.405   0.464 -1.3240 -1.2853 -0.7779
13574TIP3   OH240666   0.603   6.574   0.164  0.2021 -0.2219  0.2042
13574TIP3    H140667   0.691   6.608   0.178  0.6636 -1.1777 -0.2626
13574TIP3    H240668   0.573   6.616   0.084 -0.6273  1.7521  1.5330
13575TIP3   OH240669   4.235   5.040   5.685  0.2916 -0.2865  0.1751
13575TIP3    H140670   4.213   4.950   5.707  0.2352  0.2267  2.4398
13575TIP3    H240671   4.190   5.092   5.752 -0.2102  1.4534 -1.4884
13576TIP3   OH240672   4.677   5.622   6.014  0.1245 -0.2305  0.0004
13576TIP3    H140673   4.583   5.604   6.018 -0.8153  3.2559 -2.7751
13576TIP3    H240674   4.691   5.690   6.080  0.7604 -0.9310  0.5901
13577TIP3   OH240675   0.814   0.531   1.916 -0.4445  0.0909  0.0546
13577TIP3    H140676   0.834   0.458   1.858  0.8602  0.0205  0.5853
13577TIP3    H240677   0.888   0.536   1.975 -0.6240  1.7074  0.1718
13578TIP3   OH240678   0.551   7.341   0.704 -0.5028  0.2670 -0.1724
13578TIP3    H140679   0.541   7.262   0.651 -0.0724 -0.2929  0.5711
13578TIP3    H240680   0.537   7.414   0.643 -1.4089 -0.3892 -0.7547
13579TIP3   OH240681   6.930   2.072   6.262  0.4265 -0.3861 -0.3572
13579TIP3    H140682   7.003   2.011   6.266  0.6149 -0.1168  0.3743
13579TIP3    H240683   6.925   2.109   6.350 -0.0812  0.1860 -0.6248
13580TIP3   OH240684   5.172   2.085   6.361  0.3989  0.4194  0.6875
13580TIP3    H140685   5.227   2.142   6.414  0.6712  0.8111 -0.0141
13580TIP3    H240686   5.191   2.109   6.270 -1.2765  0.9049  0.4456
13581TIP3   OH240687   7.720   7.218   0.632  0.0257  0.0374 -0.0470
13581TIP3    H140688   7.753   7.134   0.603 -1.3575 -0.1781 -1.0541
13581TIP3    H240689   7.665   7.198   0.708 -0.7858 -0.0459 -0.6514
13582TIP3   OH240690   2.049   1.490   0.749 -0.3043 -0.2173 -0.9375
13582TIP3    H140691   2.085   1.578   0.745  0.1864 -0.3691 -0.1424
13582TIP3    H240692   2.092   1.443   0.678  1.1288 -0.4044  0.0214
13583TIP3   OH240693   7.429   7.581   0.425  0.5128  0.4651  0.2354
13583TIP3    H140694   7.494   7.632   0.474  0.6415 -0.0168  0.5734
13583TIP3    H240695   7.431   7.495   0.467  1.0619 -0.1358 -1.0125
13584TIP3   OH240696   0.447   7.759   0.381 -0.2975  0.1269  0.1524
13584TIP3    H140697   0.386   7.760   0.454 -0.3651  2.0334  0.1021
13584TIP3    H240698   0.392   7.768   0.303 -0.1314 -0.5507 -0.0442
13585TIP3   OH240699   1.443   7.855   0.525  0.4316  0.3440 -0.2195
13585TIP3    H140700   1.504   7.897   0.465  0.9936 -0.6854 -0.3889
13585TIP3    H240701   1.357   7.880   0.493  0.7535  1.8467  0.0495
13586TIP3   OH240702   0.637   1.982   1.926  0.1148  0.7178  0.8468
13586TIP3    H140703   0.612   1.892   1.945  0.3518  0.7196  1.1574
13586TIP3    H240704   0.605   1.997   1.836  2.0800 -0.4182 -0.0680
13587TIP3   OH240705   3.227   1.962   0.908  0.0589 -0.2361  0.1725
13587TIP3    H140706   3.208   2.009   0.990 -1.0104 -0.6985  0.1923
13587TIP3    H240707   3.204   2.025   0.839 -1.1397 -0.6368  0.2023
13588TIP3   OH240708   8.158   7.017   2.734 -0.0152 -0.1184 -0.0590
13588TIP3    H140709   8.101   6.966   2.676 -0.1899  0.9673 -0.8680
13588TIP3    H240710   8.150   6.974   2.819 -0.1737 -1.4137 -0.7123
13589TIP3   OH240711   7.434   6.076   0.114 -0.0135 -0.1609  0.0980
13589TIP3    H140712   7.455   6.165   0.142 -1.1892  0.2362 -0.2657
13589TIP3    H240713   7.519   6.034   0.102  0.5614  1.2350 -0.7734
13590TIP3   OH240714   7.174   6.651   0.899 -0.0451  0.2404 -0.2729
13590TIP3    H140715   7.091   6.697   0.911  0.4033  1.2299 -0.9464
13590TIP3    H240716   7.222   6.667   0.980  0.2060  1.1452 -0.6053
13591TIP3   OH240717   1.204   0.270   2.665 -0.2318 -0.2921  0.0245
13591TIP3    H140718   1.297   0.253   2.650 -0.3164  0.9647 -2.1829
13591TIP3    H240719   1.159   0.213   2.603 -0.9089 -0.2075  0.4344
13592TIP3   OH240720   3.011   0.133   0.845 -0.5836  0.3203 -0.3069
13592TIP3    H140721   3.042   0.220   0.820 -0.8153  0.5248  0.1130
13592TIP3    H240722   2.940   0.114   0.783 -0.4994  0.4111 -0.4303
13593TIP3   OH240723   1.596   7.323   0.615  0.2488  0.4073 -0.1240
13593TIP3    H140724   1.591   7.260   0.687  2.3707  0.5061  0.1281
13593TIP3    H240725   1.592   7.409   0.659  1.5106  0.4665 -0.1044
13594TIP3   OH240726   7.934   6.153   0.957 -0.2321 -0.6585 -0.1516
13594TIP3    H140727   8.026   6.176   0.954 -0.3395  0.0077  1.2746
13594TIP3    H240728   7.918   6.106   0.875  0.4337  2.7338 -2.3295
13595TIP3   OH240729   7.846   6.402   1.252  0.6870 -0.1450  0.0984
13595TIP3    H140730   7.835   6.311   1.225 -0.6093 -0.3482  1.2629
13595TIP3    H240731   7.767   6.446   1.219  0.6873  0.2906  0.6773
13596TIP3   OH240732   2.382   1.677   1.955  0.0582  0.0947  0.0613
13596TIP3    H140733   2.420   1.604   1.906 -0.8007 -0.8600  0.7906
13596TIP3    H240734   2.451   1.744   1.955  1.0973 -0.9551 -0.0909
13597TIP3   OH240735   4.556   3.625   6.854  0.2457 -0.0424 -0.5826
13597TIP3    H140736   4.537   3.670   6.772 -0.6314 -1.0063 -0.9251
13597TIP3    H240737   4.583   3.537   6.827 -0.8434 -0.6260  0.2023
13598TIP3   OH240738   1.966   2.711   2.686  0.5481  0.2017 -0.1458
13598TIP3    H140739   1.923   2.651   2.626  1.2184 -0.5136  0.0688
13598TIP3    H240740   2.039   2.659   2.723  1.1729  1.1652 -0.0089
13599TIP3   OH240741   3.327   1.926   1.391 -0.4097  0.2020  0.0734
13599TIP3    H140742   3.300   1.840   1.359 -0.5152 -0.4088  1.7430
13599TIP3    H240743   3.331   1.915   1.487  0.3658  1.8214  0.2317
13600TIP3   OH240744   0.363   1.147   1.390 -0.5964 -0.7170  0.1654
13600TIP3    H140745   0.348   1.239   1.367  1.1609 -0.3485  0.3867
13600TIP3    H240746   0.327   1.138   1.478  0.7111  0.2064  0.8091
13601TIP3   OH240747   1.684   0.225   2.155 -0.0092  0.0008  0.1070
13601TIP3    H140748   1.696   0.137   2.193 -1.5754 -0.3791 -0.2554
13601TIP3    H240749   1.589   0.237   2.152  0.2006  1.7896  0.3024
13602TIP3   OH240750   3.371   1.327   1.183  0.1425 -0.0230  0.2942
13602TIP3    H140751   3.291   1.330   1.130  0.5770  1.1697 -0.3313
13602TIP3    H240752   3.439   1.299   1.122  0.3041 -0.5264  0.6996
13603TIP3   OH240753   3.852   1.344   2.936  0.5171 -0.1192  0.0345
13603TIP3    H140754   3.856   1.250   2.919 -0.8079  0.1117 -1.8028
13603TIP3    H240755   3.781   1.354   2.999  0.1083 -0.2945 -0.3914
13604TIP3   OH240756   1.949  -0.006   2.750 -0.5306 -0.0752  0.0398
13604TIP3    H140757   1.973   0.002   2.658 -0.7240  1.9554  0.1484
13604TIP3    H240758   2.028   0.019   2.798 -1.0142  0.7732  0.4065
13605TIP3   OH240759   3.502   5.077   6.833  0.3369 -0.1272  0.1165
13605TIP3    H140760   3.447   5.010   6.875 -2.8815  1.3411 -1.6052
13605TIP3    H240761   3.541   5.125   6.905 -0.0595 -1.6929  1.3937
13606TIP3   OH240762   2.613   1.047   1.887 -0.5140 -0.5589 -0.0544
13606TIP3    H140763   2.665   1.114   1.931 -0.0456 -0.3354 -0.9436
13606TIP3    H240764   2.524   1.061   1.920 -0.4509  0.6204 -0.3827
13607TIP3   OH240765   0.219   0.600   2.245 -0.0733  0.0041  0.8051
13607TIP3    H140766   0.127   0.598   2.219  0.4351  1.0373 -1.2364
13607TIP3    H240767   0.265   0.565   2.169  1.2654 -0.0268  1.6200
13608TIP3   OH240768   7.836   7.504   3.261 -0.3018  0.3268 -0.0656
13608TIP3    H140769   7.892   7.516   3.184  0.8052  0.6246  0.7820
13608TIP3    H240770   7.778   7.431   3.237  3.0445 -2.6562  0.4783
13609TIP3   OH240771   1.643   0.768   0.927 -0.0654  0.4288 -0.1363
13609TIP3    H140772   1.642   0.840   0.991  2.8488  0.5573 -0.1640
13609TIP3    H240773   1.601   0.695   0.973 -0.7027  1.3888  0.8323
13610TIP3   OH240774   1.640   5.873   0.772 -0.0585 -0.5430 -0.2107
13610TIP3    H140775   1.558   5.923   0.770 -0.4427 -1.1937 -4.4987
13610TIP3    H240776   1.685   5.896   0.691  2.3242 -2.9356  0.3571
13611TIP3   OH240777   5.794   6.061   2.005  0.0201  0.3365 -0.0040
13611TIP3    H140778   5.758   6.041   1.919  2.4894 -1.5479 -0.6321
13611TIP3    H240779   5.859   5.993   2.021  1.8547  2.4789  1.9844
13612TIP3   OH240780   6.763   6.534   2.324 -0.7529  0.0300  0.0879
13612TIP3    H140781   6.810   6.559   2.403 -1.0298 -0.8234  0.5268
13612TIP3    H240782   6.830   6.497   2.267 -0.8704 -1.1285  0.6896
13613TIP3   OH240783   7.581   7.247   0.109  0.0959 -0.5833  0.0048
13613TIP3    H140784   7.639   7.230   0.184 -2.4533 -2.9506  1.5374
13613TIP3    H240785   7.525   7.319   0.138  1.2642  0.7192 -0.9199
13614TIP3   OH240786   1.997   7.797   1.154  0.6668  0.3152  0.4069
13614TIP3    H140787   1.934   7.867   1.140 -1.2797 -1.7453 -1.6332
13614TIP3    H240788   1.979   7.765   1.242  0.4187  1.2410  0.6966
13615TIP3   OH240789   5.661   2.698   6.096 -0.6833 -0.3726 -0.6147
13615TIP3    H140790   5.738   2.659   6.139 -0.2985 -0.0449 -0.9990
13615TIP3    H240791   5.696   2.738   6.016 -1.1012  0.6240 -0.3030
13616TIP3   OH240792   5.533   7.273   0.374 -0.9044 -0.9101 -0.5869
13616TIP3    H140793   5.462   7.245   0.432 -1.7276 -0.6403 -1.4521
13616TIP3    H240794   5.596   7.314   0.432 -1.5651 -0.9560  0.1741
13617TIP3   OH240795   7.148   5.859   2.034  0.1713  0.0473 -0.3240
13617TIP3    H140796   7.151   5.841   2.128  0.9575  0.3729 -0.2847
13617TIP3    H240797   7.204   5.792   1.994  0.8480  0.6886 -0.4436
13618TIP3   OH240798   3.384   3.014   6.547 -0.1376 -0.3903 -0.7422
13618TIP3    H140799   3.356   2.935   6.592  0.0859  0.5184  1.0412
13618TIP3    H240800   3.307   3.044   6.499 -0.4961 -1.1583 -0.6395
13619TIP3   OH240801   7.584   8.003   0.486 -0.5576  0.4505 -0.0870
13619TIP3    H140802   7.657   8.046   0.532 -1.4633  1.3011  0.6064
13619TIP3    H240803   7.616   7.989   0.397  0.1426  1.6439 -0.0433
13620TIP3   OH240804   6.258   7.131   1.024  0.8204 -0.2401  0.0145
13620TIP3    H140805   6.341   7.166   0.992  0.1352 -0.1271 -1.7033
13620TIP3    H240806   6.239   7.182   1.102  2.2932 -0.1667  0.3438
13621TIP3   OH240807   7.077   4.265   6.288  0.1125  0.0257 -0.0575
13621TIP3    H140808   6.990   4.304   6.294 -0.0227 -0.1292 -0.8761
13621TIP3    H240809   7.136   4.340   6.276 -0.1388  0.0103 -1.5463
13622TIP3   OH240810   4.121   0.623   0.293  0.0752 -0.0476  0.4706
13622TIP3    H140811   4.079   0.703   0.322 -0.6262 -0.4871  0.6683
13622TIP3    H240812   4.211   0.630   0.326  0.6763  1.6776 -1.4304
13623TIP3   OH240813   1.007   6.507   0.316 -0.4885  0.5180  0.1650
13623TIP3    H140814   0.957   6.477   0.392 -1.8097  0.7605 -0.5961
13623TIP3    H240815   0.983   6.599   0.306  0.3043  0.7035 -0.0710
13624TIP3   OH240816   3.724   0.694   1.216 -0.2904 -0.4755 -0.0041
13624TIP3    H140817   3.731   0.614   1.267 -0.2493 -2.1240 -2.4911
13624TIP3    H240818   3.649   0.740   1.253  0.1093 -1.3126  1.9070
13625TIP3   OH240819   2.299   7.871   0.924 -0.1237 -0.1005  0.0634
13625TIP3    H140820   2.220   7.833   0.885 -0.3557  0.3819  0.0619
13625TIP3    H240821   2.370   7.841   0.868 -0.3697 -0.0574 -0.2775
13626TIP3   OH240822   4.158   1.089   2.636 -0.3971 -0.0794 -0.2756
13626TIP3    H140823   4.246   1.064   2.610  0.6667  0.7603  2.3611
13626TIP3    H240824   4.140   1.037   2.714 -1.5977  0.9356  0.1406
13627TIP3   OH240825   3.090   1.412   6.048  0.3996 -0.3056  0.1438
13627TIP3    H140826   3.087   1.439   5.956 -0.9496  1.0336  0.5644
13627TIP3    H240827   3.131   1.326   6.046  0.5406 -0.2155 -1.7054
13628TIP3   OH240828   6.634   2.364   4.999 -0.1695  0.0529 -0.1756
13628TIP3    H140829   6.636   2.297   4.931  0.3286 -0.5785  0.4681
13628TIP3    H240830   6.640   2.447   4.951  1.1678 -0.4213 -0.8361
13629TIP3   OH240831   0.946   3.740   5.289 -0.0633  0.1431 -0.1308
13629TIP3    H140832   0.945   3.835   5.276 -1.2101  0.1803  0.1584
13629TIP3    H240833   1.037   3.715   5.278  0.4856  1.4789  1.2056
13630TIP3   OH240834   2.097   7.508   1.816 -0.2048  0.2563  0.2708
13630TIP3    H140835   2.153   7.585   1.812 -1.0528  0.9945  2.0310
13630TIP3    H240836   2.143   7.447   1.874  0.0967 -0.2783 -0.5116
13631TIP3   OH240837   0.662   4.969   2.053 -0.8328 -0.0163 -0.4119
13631TIP3    H140838   0.616   4.887   2.069 -1.1759  0.2558  0.0132
13631TIP3    H240839   0.662   5.013   2.138 -0.5092  0.3501 -0.6012
13632TIP3   OH240840   2.704   6.748   1.997  0.6458 -0.7399  0.1183
13632TIP3    H140841   2.730   6.773   1.909 -0.8949  0.8308  0.0626
13632TIP3    H240842   2.614   6.716   1.988  0.4815 -0.5977  1.0841
13633TIP3   OH240843   7.676   4.369   6.200  0.6677  0.3003  0.0493
13633TIP3    H140844   7.738   4.299   6.182  2.5425  2.2426 -1.3805
13633TIP3    H240845   7.731   4.445   6.220 -1.2812  1.5443  0.8594
13634TIP3   OH240846   5.566   1.387   0.497 -0.3626 -0.8269  0.0846
13634TIP3    H140847   5.654   1.353   0.484 -1.1534 -3.4376  1.2347
13634TIP3    H240848   5.576   1.458   0.560  0.7276 -2.2162  1.5166
13635TIP3   OH240849   2.724   0.037   2.721 -0.3652 -0.1319 -0.2569
13635TIP3    H140850   2.780   0.003   2.650 -0.1581  1.7343 -1.0263
13635TIP3    H240851   2.651  -0.024   2.725  2.0566 -3.0608  1.2544
13636TIP3   OH240852   7.880   3.670   5.971  0.1377  0.4101 -0.2397
13636TIP3    H140853   7.949   3.628   6.022  0.1675  1.1174  0.3219
13636TIP3    H240854   7.922   3.698   5.891  0.7590  1.7820  0.5558
13637TIP3   OH240855   6.104   1.436   1.262  0.4843  0.1327 -0.4441
13637TIP3    H140856   6.119   1.356   1.313  0.1427  0.6765  0.5162
13637TIP3    H240857   6.013   1.458   1.277  0.9183  1.4457  0.3761
13638TIP3   OH240858   6.982   4.388   6.882  0.5600  0.7389 -0.7137
13638TIP3    H140859   6.897   4.433   6.885  1.0107  1.5608  0.2648
13638TIP3    H240860   7.039   4.450   6.837  0.7220  0.3315 -1.0630
13639TIP3   OH240861   3.676   0.426   2.398  0.7539  0.3027 -0.7636
13639TIP3    H140862   3.602   0.385   2.353  0.9781 -0.9097 -0.0512
13639TIP3    H240863   3.731   0.353   2.427  0.8092  1.0519  1.1291
13640TIP3   OH240864   7.928   3.387   6.894  0.1006 -0.5451  0.2705
13640TIP3    H140865   7.864   3.388   6.823 -0.4051  0.1573  0.7200
13640TIP3    H240866   7.876   3.374   6.974  0.4110  0.8968  0.7252
13641TIP3   OH240867   0.799   3.398   5.782  0.4877  0.2492  0.1365
13641TIP3    H140868   0.714   3.363   5.755  0.1543  1.0451  0.1408
13641TIP3    H240869   0.832   3.335   5.845 -0.3799  0.2429  0.5902
13642TIP3   OH240870   3.843   0.098   0.033 -0.0581 -0.1150 -0.2938
13642TIP3    H140871   3.822   0.128   0.121 -0.6719  1.8524 -1.0751
13642TIP3    H240872   3.759   0.099  -0.013 -0.0734 -2.9875 -0.4022
13643TIP3   OH240873   8.205   2.401   6.769 -0.0442  0.2337  0.3083
13643TIP3    H140874   8.171   2.324   6.723 -1.7103 -1.3246  3.8995
13643TIP3    H240875   8.300   2.390   6.768 -0.0793 -0.0850 -2.1026
13644TIP3   OH240876   1.478   7.517   0.198 -0.3241 -0.3491 -0.3506
13644TIP3    H140877   1.573   7.529   0.195 -0.3329 -0.6045 -1.7771
13644TIP3    H240878   1.454   7.543   0.287  0.9623  0.5400 -0.2507
13645TIP3   OH240879   7.540   2.114   6.373 -0.2969 -0.0519  0.9699
13645TIP3    H140880   7.516   2.178   6.440 -0.6098 -0.0351  0.8399
13645TIP3    H240881   7.630   2.137   6.349 -0.4736  0.4499  0.7862
13646TIP3   OH240882   6.872   4.139   6.788  0.6958  0.4053  0.3030
13646TIP3    H140883   6.794   4.116   6.839 -0.6006  0.1061 -1.7411
13646TIP3    H240884   6.911   4.213   6.835 -2.0913  2.0349  0.1738
13647TIP3   OH240885   1.384   7.899   1.117  0.0782 -0.2093 -0.1870
13647TIP3    H140886   1.453   7.853   1.165 -0.9341  0.6757  2.1644
13647TIP3    H240887   1.324   7.829   1.090  0.3721 -0.6614  0.3093
13648TIP3   OH240888   0.431   7.459   1.718  0.5657  0.0273  0.1354
13648TIP3    H140889   0.399   7.520   1.784  0.2150 -0.2579  0.2297
13648TIP3    H240890   0.525   7.473   1.715  0.6834 -0.5093  1.2517
13649TIP3   OH240891   1.113   6.761   0.501  0.3754 -0.1888 -0.0119
13649TIP3    H140892   1.164   6.730   0.426 -1.1796 -0.1812 -1.0973
13649TIP3    H240893   1.141   6.705   0.573  1.4338 -0.6146 -0.7286
13650TIP3   OH240894   0.441   7.715   2.563  0.2472 -0.2657  0.1188
13650TIP3    H140895   0.351   7.712   2.532 -0.0531  0.2750  0.9482
13650TIP3    H240896   0.470   7.623   2.561 -0.1615 -0.3802 -0.5984
13651TIP3   OH240897   1.068   6.155   1.524  0.3984 -0.1262 -0.4787
13651TIP3    H140898   1.068   6.190   1.435 -1.3202  2.1446  0.3943
13651TIP3    H240899   1.054   6.231   1.580 -1.4092 -1.9142  1.5706
13652TIP3   OH240900   0.639   7.087   2.085  0.0213  0.6786  0.1904
13652TIP3    H140901   0.650   7.073   1.991  1.0851  0.7475  0.3068
13652TIP3    H240902   0.547   7.064   2.101 -0.1954  0.7539 -0.8763
13653TIP3   OH240903   2.508   4.431   6.632  0.0647  0.3724  0.1553
13653TIP3    H140904   2.539   4.342   6.644 -1.5771 -0.1205  0.7968
13653TIP3    H240905   2.495   4.440   6.538 -0.0056 -0.1325  0.1201
13654TIP3   OH240906   5.648   2.406   6.706 -0.4782 -0.0289  0.4669
13654TIP3    H140907   5.685   2.445   6.627  0.9950 -0.1320  1.0887
13654TIP3    H240908   5.662   2.472   6.774 -0.6777 -0.4234  0.8929
13655TIP3   OH240909   8.088   0.566   6.129 -0.2016  0.7248 -0.0103
13655TIP3    H140910   8.009   0.513   6.116  0.0581 -0.0828  1.5579
13655TIP3    H240911   8.133   0.524   6.203  1.7702  1.0932 -0.9773
13656TIP3   OH240912   6.260   2.161   6.757  0.3331  0.8061  0.2646
13656TIP3    H140913   6.271   2.066   6.766 -1.2582  0.8232  3.0818
13656TIP3    H240914   6.242   2.191   6.846  0.6415  3.7402 -0.6320
13657TIP3   OH240915   4.354   1.279   0.233 -0.0126 -0.5958  0.0659
13657TIP3    H140916   4.416   1.216   0.197  1.9294  0.3826  1.6545
13657TIP3    H240917   4.401   1.362   0.234 -0.4960 -0.2993  3.5089
13658TIP3   OH240918   4.695   0.165   2.652 -0.7185 -0.1068  0.3556
13658TIP3    H140919   4.757   0.102   2.688  0.4920  0.1703 -1.2339
13658TIP3    H240920   4.737   0.200   2.574 -1.2539  2.8909  1.3414
13659TIP3   OH240921   7.613   6.484   1.162 -0.0791 -0.1153  0.4797
13659TIP3    H140922   7.549   6.415   1.178  0.8157 -0.8295  1.0841
13659TIP3    H240923   7.580   6.560   1.211 -1.2251 -0.0112 -0.4468
13660TIP3   OH240924   1.893   7.815   1.799 -0.8018 -0.0046  0.5089
13660TIP3    H140925   1.800   7.826   1.817 -0.9700 -0.0442 -0.3245
13660TIP3    H240926   1.937   7.855   1.875 -1.4771  1.1229  0.3117
13661TIP3   OH240927   1.609   7.220   0.879 -0.0460 -0.4981  0.3926
13661TIP3    H140928   1.670   7.183   0.943 -0.5299 -0.6030  0.7944
13661TIP3    H240929   1.545   7.267   0.932  0.1103  0.2449 -0.0682
13662TIP3   OH240930   3.511   1.417   1.402  0.1216 -0.0922 -0.2232
13662TIP3    H140931   3.467   1.399   1.319  0.7563  0.2263 -0.6355
13662TIP3    H240932   3.460   1.369   1.467 -0.5810 -0.0728 -0.7491
13663TIP3   OH240933   0.899   2.099   6.916  0.2343  0.1688  0.1067
13663TIP3    H140934   0.866   2.189   6.920  1.1699  0.5001  0.5118
13663TIP3    H240935   0.863   2.064   6.835  1.1385  1.4299 -0.8605
13664TIP3   OH240936   3.458   0.110   0.273  0.0570 -0.1155 -0.1023
13664TIP3    H140937   3.471   0.023   0.309  0.8395 -0.6068 -1.5399
13664TIP3    H240938   3.422   0.096   0.186 -2.0340  1.0692  0.5153
13665TIP3   OH240939   3.958   1.213   1.257  0.3766 -0.3471  0.7987
13665TIP3    H140940   3.936   1.161   1.180  0.5091  0.8988 -0.1072
13665TIP3    H240941   3.955   1.151   1.330 -2.1004 -1.0552  0.1282
13666TIP3   OH240942   8.062   6.932   1.536  0.1640  0.3920 -0.2612
13666TIP3    H140943   8.059   7.020   1.498  1.9134 -0.3904 -2.3505
13666TIP3    H240944   7.988   6.887   1.497 -0.6745  0.8888  0.7337
13667TIP3   OH240945   0.373   5.125   3.116  0.0596 -0.4172 -0.7606
13667TIP3    H140946   0.301   5.092   3.170 -0.4101 -1.5074 -2.0062
13667TIP3    H240947   0.452   5.100   3.164 -0.3721 -0.1060  0.1216
13668TIP3   OH240948   8.066   3.591   6.152  0.0165 -0.0823  0.5757
13668TIP3    H140949   8.020   3.579   6.235 -0.7805  0.3890  0.2074
13668TIP3    H240950   8.157   3.608   6.177 -0.4483  1.2563  1.4124
13669TIP3   OH240951   2.663   1.011   1.185 -0.2422  0.6358 -0.6395
13669TIP3    H140952   2.585   1.022   1.130 -0.7710  1.1945  0.1972
13669TIP3    H240953   2.681   1.099   1.219 -1.9640 -0.2245  2.7588
13670TIP3   OH240954   1.339   2.260   6.351 -0.6259 -0.4590 -0.7235
13670TIP3    H140955   1.314   2.205   6.425 -1.2371 -0.1553 -0.6982
13670TIP3    H240956   1.268   2.324   6.344 -0.5048 -0.4028 -1.4890
13671TIP3   OH240957   3.614   5.856   0.449 -0.1298 -0.4227 -0.0449
13671TIP3    H140958   3.606   5.781   0.390 -0.0665 -0.9123  0.5638
13671TIP3    H240959   3.708   5.860   0.470  0.1438  0.8464 -1.3857
13672TIP3   OH240960   2.309   5.381   0.103  0.9187 -0.4730  0.5941
13672TIP3    H140961   2.403   5.367   0.116  0.5549 -1.8174  1.9091
13672TIP3    H240962   2.298   5.476   0.112  2.1451 -0.2983  0.3961
13673TIP3   OH240963   1.277   7.943   1.676  0.0244 -0.2268 -0.1539
13673TIP3    H140964   1.269   8.018   1.735  1.3419 -0.5803  0.4945
13673TIP3    H240965   1.327   7.976   1.601  0.2923 -0.3549 -0.0338
13674TIP3   OH240966   0.805   7.239   0.818 -0.0793  0.3786 -0.3147
13674TIP3    H140967   0.834   7.218   0.907  0.8632 -0.4660 -0.8125
13674TIP3    H240968   0.715   7.271   0.830 -0.2944 -0.5788  0.8534
13675TIP3   OH240969   6.156   7.542   0.827 -0.1925  0.1800  0.0328
13675TIP3    H140970   6.087   7.502   0.773 -1.1705 -0.2771  1.5997
13675TIP3    H240971   6.141   7.636   0.818 -0.2063  0.1145 -0.6679
13676TIP3   OH240972   1.959   6.348   1.654 -0.1927 -1.1839 -0.2091
13676TIP3    H140973   1.984   6.336   1.746  0.8331 -1.7823 -0.5599
13676TIP3    H240974   1.874   6.306   1.647  0.0211 -1.7236  0.3219
13677TIP3   OH240975   0.704   4.782   3.489  0.4125  0.3875  0.6077
13677TIP3    H140976   0.777   4.754   3.433 -1.6787 -0.9312 -1.5378
13677TIP3    H240977   0.688   4.708   3.548  0.8847  0.7431  1.1933
13678TIP3   OH240978   7.813   3.572   6.642  0.4149  0.6087 -0.8674
13678TIP3    H140979   7.720   3.555   6.655  0.4028  0.9814 -0.4652
13678TIP3    H240980   7.817   3.662   6.609  0.6563  0.7000 -0.5889
13679TIP3   OH240981   7.555   3.847   5.166 -0.0802  0.0510 -0.0339
13679TIP3    H140982   7.621   3.818   5.103 -0.0007  0.2598 -0.0475
13679TIP3    H240983   7.472   3.833   5.121 -0.1042 -1.2505  0.4034
13680TIP3   OH240984   0.247   3.578   5.913 -0.0991 -0.7499  0.3497
13680TIP3    H140985   0.224   3.496   5.869 -1.6729 -0.3135  0.3568
13680TIP3    H240986   0.293   3.629   5.846  0.3724 -1.3858  0.1778
13681TIP3   OH240987   2.901   7.052   2.619 -0.3463 -0.1460  0.0081
13681TIP3    H140988   2.839   7.001   2.567 -0.5860  0.4035 -0.2526
13681TIP3    H240989   2.986   7.035   2.577 -0.2950 -1.0202  0.4632
13682TIP3   OH240990   7.835   6.822   1.401  0.2483  0.4385 -0.7592
13682TIP3    H140991   7.754   6.774   1.381  1.1469 -1.7805  0.6627
13682TIP3    H240992   7.874   6.838   1.315 -0.6656 -0.3576 -1.3485
13683TIP3   OH240993   2.626   5.067   0.092  0.4754  0.9943 -0.2575
13683TIP3    H140994   2.699   5.024   0.048 -0.9237 -0.7220 -0.9456
13683TIP3    H240995   2.550   5.047   0.038 -0.7935  1.3102  1.3810
13684TIP3   OH240996   7.509   2.223   6.117  0.5356  0.0456  0.3652
13684TIP3    H140997   7.424   2.180   6.111  0.4361  0.3976 -0.8339
13684TIP3    H240998   7.537   2.210   6.207 -1.0360  0.3881  0.9078
13685TIP3   OH240999   1.835   5.565   0.636  0.0542  0.0775 -0.2502
13685TIP3    H141000   1.898   5.636   0.628 -0.7207  0.7928 -0.0462
13685TIP3    H241001   1.794   5.578   0.721 -1.2865  0.3859 -0.9299
13686TIP3   OH241002   2.861   7.474   0.720  0.3286 -0.1650  0.2628
13686TIP3    H141003   2.769   7.462   0.697  0.5397  0.5798 -1.0627
13686TIP3    H241004   2.875   7.418   0.796 -1.5533  0.7103  1.2945
13687TIP3   OH241005   3.851   0.532   0.215  0.3221 -0.3846 -0.3491
13687TIP3    H141006   3.945   0.534   0.231  0.3844  1.2026 -0.8871
13687TIP3    H241007   3.843   0.500   0.125  0.3670 -0.0187 -0.4829
13688TIP3   OH241008   1.130   5.989   5.792 -0.1263  0.2532 -0.4792
13688TIP3    H141009   1.105   6.065   5.844 -0.3627  0.0650 -0.3099
13688TIP3    H241010   1.117   5.914   5.851 -1.5414 -0.0737 -1.1651
13689TIP3   OH241011   1.615   6.734   0.587 -0.2003 -0.2539 -0.0138
13689TIP3    H141012   1.673   6.668   0.623 -0.2154 -1.4246 -2.0567
13689TIP3    H241013   1.668   6.813   0.580  0.1836 -0.3961  1.2172
13690TIP3   OH241014   7.505   6.751   1.016 -0.0256 -0.7674  0.4813
13690TIP3    H141015   7.555   6.833   1.018  1.4146 -1.6173  0.3078
13690TIP3    H241016   7.541   6.703   0.941  0.5424 -2.4080  1.7723
13691TIP3   OH241017   0.730   3.586   6.386  0.4430  0.0154  0.1655
13691TIP3    H141018   0.654   3.607   6.332  0.2433 -1.5259 -0.1718
13691TIP3    H241019   0.787   3.663   6.378 -0.9030  1.0409  0.1543
13692TIP3   OH241020   0.147   2.306   4.205 -0.2041 -0.2054  0.2636
13692TIP3    H141021   0.153   2.236   4.271 -1.0951  0.2174  0.8063
13692TIP3    H241022   0.159   2.386   4.255  0.3064  0.0638 -0.2839
13693TIP3   OH241023   6.889   2.420   6.430 -0.4694 -0.3859 -0.5833
13693TIP3    H141024   6.840   2.421   6.348  0.6608 -2.2074 -1.3062
13693TIP3    H241025   6.876   2.507   6.467 -1.0947  0.4133 -2.6382
13694TIP3   OH241026   8.290   6.091   0.873 -0.4717 -0.0471  0.2314
13694TIP3    H141027   8.321   6.157   0.812  3.5288 -1.7557  0.2975
13694TIP3    H241028   8.229   6.037   0.821  0.4613  0.4141 -1.3504
13695TIP3   OH241029   1.614   1.220   0.203  0.3712  0.1112  0.4229
13695TIP3    H141030   1.699   1.232   0.160  0.0745 -2.6458 -1.0019
13695TIP3    H241031   1.634   1.224   0.297  1.6912  1.7837  0.0979
13696TIP3   OH241032   6.005   3.210   5.498  0.5828  0.1952  0.1885
13696TIP3    H141033   6.001   3.261   5.579  3.7587  0.0530  0.5255
13696TIP3    H241034   5.998   3.119   5.526  0.9862  0.1807  0.2501
13697TIP3   OH241035   6.852   3.099   6.753  0.1123  0.1118 -0.3125
13697TIP3    H141036   6.934   3.061   6.782  0.0273 -0.5421 -0.9195
13697TIP3    H241037   6.813   3.136   6.832  0.3277 -0.8125  0.2304
13698TIP3   OH241038   3.338   7.829   2.457  0.0281  0.1060  0.1462
13698TIP3    H141039   3.306   7.909   2.415  0.3305  0.3574  0.3980
13698TIP3    H241040   3.373   7.777   2.385  0.7251  0.6222  0.1040
13699TIP3   OH241041   6.026   2.727   5.600  0.4851 -0.3953  0.4033
13699TIP3    H141042   6.008   2.669   5.674 -1.3129 -0.2067  0.1154
13699TIP3    H241043   6.074   2.800   5.639 -0.9386 -0.0208  1.5070
13700TIP3   OH241044   4.443   7.918   2.939 -0.5507 -0.0062  0.3951
13700TIP3    H141045   4.501   7.988   2.908  2.6914 -1.9770  1.6738
13700TIP3    H241046   4.421   7.868   2.861  0.5358  0.0380  0.0519
13701TIP3   OH241047   7.506   3.646   6.511  0.0193 -0.3446 -0.3008
13701TIP3    H141048   7.519   3.719   6.451  0.7151 -0.2561 -0.0472
13701TIP3    H241049   7.530   3.680   6.597  0.7512 -0.9886 -0.2405
13702TIP3   OH241050   7.321   3.742   6.175 -0.0211  0.1654  0.4915
13702TIP3    H141051   7.309   3.740   6.270 -0.1159 -2.7070  0.4618
13702TIP3    H241052   7.266   3.671   6.142 -0.6264  1.6592 -1.8074
13703TIP3   OH241053   7.576   2.733   5.566 -0.2985  0.1991 -0.3880
13703TIP3    H141054   7.545   2.796   5.501 -1.5281  0.7614  0.7190
13703TIP3    H241055   7.533   2.760   5.647  0.3035 -1.2066  0.4063
13704TIP3   OH241056   1.355   1.528   1.901  0.0217 -0.4372  0.2347
13704TIP3    H141057   1.343   1.550   1.993  2.9467 -0.4706  0.6716
13704TIP3    H241058   1.354   1.432   1.900  2.5671 -0.4988  0.6610
13705TIP3   OH241059   7.559   3.836   6.324 -0.7037  0.4592  0.0687
13705TIP3    H141060   7.646   3.847   6.284 -0.5080  1.6993  0.8123
13705TIP3    H241061   7.508   3.789   6.258  1.3180 -2.7999  0.6684
13706TIP3   OH241062   6.352   3.376   6.340  0.4940  0.1524 -0.2135
13706TIP3    H141063   6.416   3.377   6.412  0.3573 -0.9443 -0.0601
13706TIP3    H241064   6.371   3.295   6.293  0.2861  0.6470 -1.1538
13707TIP3   OH241065   1.866   7.705   0.337  0.0113 -0.3034 -0.3923
13707TIP3    H141066   1.954   7.724   0.304  0.5567  0.3242  1.3565
13707TIP3    H241067   1.879   7.637   0.404 -0.5516  1.2389  1.3349
13708TIP3   OH241068   1.723   7.028   1.681 -0.5551  0.4000 -0.4712
13708TIP3    H141069   1.747   6.954   1.737  0.4743  1.5164  0.6155
13708TIP3    H241070   1.765   7.010   1.597  0.6684  0.3192  0.1560
13709TIP3   OH241071   7.703   5.047   6.963 -0.1617 -0.5626 -0.0952
13709TIP3    H141072   7.678   5.104   6.890 -1.2870 -2.1197 -0.9458
13709TIP3    H241073   7.712   4.961   6.923 -0.7279 -1.4194  1.6059
13710TIP3   OH241074   0.543   8.032   0.613 -0.1862 -0.0226 -0.1649
13710TIP3    H141075   0.570   7.943   0.592  0.6871  0.0242  0.7183
13710TIP3    H241076   0.555   8.039   0.708 -2.2603  0.3669  0.0931
13711TIP3   OH241077   2.507   6.549   0.965 -0.2224 -0.7286  0.4141
13711TIP3    H141078   2.528   6.642   0.972  1.2929 -0.9737 -0.6798
13711TIP3    H241079   2.412   6.546   0.966 -0.3882  1.1411 -2.8501
13712TIP3   OH241080   5.640   3.008   6.826  0.4551  0.3532  0.1636
13712TIP3    H141081   5.685   2.951   6.888 -0.5856 -0.8240 -0.1433
13712TIP3    H241082   5.703   3.021   6.755  1.0438  0.3593  0.6856
13713TIP3   OH241083   4.982   2.127   6.782 -0.3074 -0.1275  0.0635
13713TIP3    H141084   4.961   2.211   6.742  0.5532  0.4583  0.8098
13713TIP3    H241085   5.033   2.150   6.860 -2.0727 -1.2196  1.5915
13714TIP3   OH241086   3.934   0.144   0.695 -0.1369  0.5364 -0.0302
13714TIP3    H141087   3.896   0.225   0.728 -0.5766  0.5396 -0.5391
13714TIP3    H241088   3.859   0.087   0.679  0.2340 -0.4011  1.4426
13715TIP3   OH241089   2.044   6.454   1.290 -0.4711  0.6947  0.0545
13715TIP3    H141090   2.096   6.518   1.243  0.2522 -0.6294 -0.9698
13715TIP3    H241091   2.100   6.426   1.363  0.1530 -0.5071 -0.8728
13716TIP3   OH241092   2.003   7.794   0.817  0.0655 -0.0001 -0.8798
13716TIP3    H141093   1.938   7.781   0.885  0.9307  0.5614  0.0695
13716TIP3    H241094   2.020   7.707   0.783  0.9613 -0.5335  0.8802
13717TIP3   OH241095   4.245   0.600   1.685  0.1670  0.1090  0.1499
13717TIP3    H141096   4.197   0.655   1.623 -0.3617 -0.2565  0.2276
13717TIP3    H241097   4.193   0.603   1.765 -0.1663 -0.9534 -0.0202
13718TIP3   OH241098   5.766   3.731   6.451 -0.3425  0.0640 -0.2209
13718TIP3    H141099   5.680   3.758   6.482  0.5520  2.4850  0.3546
13718TIP3    H241100   5.779   3.781   6.370  0.1886 -0.8778 -0.7236
13719TIP3   OH241101   8.175   7.175   0.692  0.5095 -0.2717  0.5589
13719TIP3    H141102   8.132   7.089   0.687 -0.1068  0.0337  0.6270
13719TIP3    H241103   8.118   7.227   0.748  0.4636  0.4270 -0.1329
13720TIP3   OH241104   4.849   0.189   0.102  0.5435 -0.3666 -0.2037
13720TIP3    H141105   4.853   0.284   0.114  1.5889 -0.2136 -1.6950
13720TIP3    H241106   4.858   0.154   0.191 -1.7216  0.9470  0.5747
13721TIP3   OH241107   7.718   3.319   5.923  0.2268  0.4654  0.0146
13721TIP3    H141108   7.740   3.412   5.936  0.3893  0.2946  0.9828
13721TIP3    H241109   7.785   3.272   5.972  0.5115 -0.1845 -0.9881
13722TIP3   OH241110   2.469   6.427   0.377  0.4425 -0.7686 -0.4806
13722TIP3    H141111   2.480   6.403   0.285  1.4509  0.3009 -0.6487
13722TIP3    H241112   2.453   6.521   0.376 -4.0496 -1.4456  0.1233
13723TIP3   OH241113   7.333   3.614   5.799 -0.2777 -0.0855  0.0913
13723TIP3    H141114   7.369   3.545   5.743 -0.7954  0.3325 -0.7832
13723TIP3    H241115   7.405   3.676   5.810 -0.9049  1.1810 -2.3555
13724TIP3   OH241116   8.438   5.081   6.213  0.2379  0.0805 -0.1524
13724TIP3    H141117   8.384   5.093   6.291 -0.1011 -0.9551 -0.2227
13724TIP3    H241118   8.476   4.994   6.223  0.5035  0.0988 -0.9566
13725TIP3   OH241119   0.162   4.042   6.142 -0.5681 -0.0424 -0.4504
13725TIP3    H141120   0.201   4.021   6.057 -1.1186 -0.7424 -0.5341
13725TIP3    H241121   0.233   4.027   6.205 -0.2673  0.1281 -0.7417
13726TIP3   OH241122   0.010   5.245   0.828 -0.2090 -0.6769 -0.4514
13726TIP3    H141123  -0.049   5.265   0.901  1.2535 -0.7865  0.8009
13726TIP3    H241124   0.058   5.167   0.857  0.2348 -0.8506 -1.6312
13727TIP3   OH241125   8.389   7.854   0.331 -0.1573 -0.1661  0.3225
13727TIP3    H141126   8.344   7.824   0.410 -0.0277 -1.1895  0.0168
13727TIP3    H241127   8.463   7.905   0.364  0.0689 -0.8359  0.8681
13728TIP3   OH241128   7.583   3.481   6.290 -0.5775 -0.3529  0.2126
13728TIP3    H141129   7.635   3.404   6.314 -2.7722 -1.7414  0.6882
13728TIP3    H241130   7.562   3.522   6.374 -0.3333  0.1445  0.0278
13729TIP3   OH241131   4.743   0.948   0.897  0.3801  0.1662  0.1649
13729TIP3    H141132   4.764   1.019   0.957  0.0008  0.4997 -0.1015
13729TIP3    H241133   4.826   0.928   0.853 -0.0835  2.2103 -1.6797
13730TIP3   OH241134   6.235   4.527   4.349 -0.1008 -0.1774  0.3016
13730TIP3    H141135   6.259   4.564   4.264  0.4123 -0.3280  0.3808
13730TIP3    H241136   6.147   4.561   4.365 -0.4403 -0.6292 -0.5644
13731TIP3   OH241137   5.510   4.432   6.583 -0.3702  0.7386 -0.6443
13731TIP3    H141138   5.551   4.352   6.549  1.5141  1.2314  0.4171
13731TIP3    H241139   5.536   4.435   6.675 -2.5571  1.2414 -0.0280
13732TIP3   OH241140   4.103   0.110   1.208 -0.3341  0.2770 -0.0237
13732TIP3    H141141   4.159   0.041   1.173  0.9853  2.3469 -2.1209
13732TIP3    H241142   4.026   0.110   1.152  0.2947  1.4070 -0.9022
13733TIP3   OH241143   0.937   7.280   1.516  0.2210  0.1127  0.3106
13733TIP3    H141144   1.010   7.325   1.558  1.7556 -0.0011 -2.1560
13733TIP3    H241145   0.976   7.202   1.476 -1.0464  0.5444 -1.8558
13734TIP3   OH241146   7.255   3.100   6.239 -0.4166  0.0416 -0.4404
13734TIP3    H141147   7.224   3.178   6.286 -0.6010  0.0154 -0.5193
13734TIP3    H241148   7.245   3.122   6.147  1.4424  0.7019 -0.4997
13735TIP3   OH241149   0.978   1.825   6.709 -0.1839 -0.7252 -0.6414
13735TIP3    H141150   0.985   1.869   6.624 -2.4846 -0.9454 -0.9658
13735TIP3    H241151   0.911   1.758   6.696 -0.8832 -0.4557  1.4836
13736TIP3   OH241152   5.307   0.303   1.327  0.2151  1.1759  0.0012
13736TIP3    H141153   5.233   0.290   1.386  0.3611 -1.4957 -0.3230
13736TIP3    H241154   5.355   0.377   1.365 -1.4515  1.5842  1.3886
13737TIP3   OH241155   4.910   7.156   3.057 -0.6629  0.0886  0.0748
13737TIP3    H141156   4.980   7.219   3.039 -2.2837  1.7253 -0.6402
13737TIP3    H241157   4.956   7.076   3.083  1.4342  1.8631  2.0702
13738TIP3   OH241158   1.350   3.712   5.682 -0.5565 -0.1306  0.2158
13738TIP3    H141159   1.352   3.709   5.778 -0.0805 -1.2136  0.1834
13738TIP3    H241160   1.386   3.627   5.655 -1.0342  0.0215 -0.9195
13739TIP3   OH241161   8.089   4.705   6.341  0.8694 -0.1952 -0.0202
13739TIP3    H141162   8.116   4.774   6.402  0.3534  0.7514 -0.8578
13739TIP3    H241163   8.077   4.628   6.397  1.9746  0.2478  0.8444
13740TIP3   OH241164   2.159   1.132   0.099 -0.3229  0.2081  0.0543
13740TIP3    H141165   2.130   1.044   0.124  1.6331 -0.8841 -1.3957
13740TIP3    H241166   2.250   1.121   0.073 -0.1355  2.6282 -0.4655
13741TIP3   OH241167   4.877   5.011   6.594 -0.3741 -0.4517 -0.4838
13741TIP3    H141168   4.812   4.966   6.648 -1.4443  0.8759 -0.6428
13741TIP3    H241169   4.897   5.091   6.643  0.1173 -0.1925 -1.1012
13742TIP3   OH241170   8.344   3.613   6.187  0.3103 -0.4735 -0.3503
13742TIP3    H141171   8.403   3.538   6.193 -0.3627 -0.8916  1.1793
13742TIP3    H241172   8.385   3.670   6.122  2.2270 -0.9106  0.4490
13743TIP3   OH241173   1.666   2.326   6.660  0.5275 -0.0408  0.1978
13743TIP3    H141174   1.611   2.380   6.603  2.1938  1.9650  0.3941
13743TIP3    H241175   1.612   2.308   6.736 -0.5045  0.2697 -0.4529
13744TIP3   OH241176   1.363   7.108   0.220  0.6444  0.4938 -0.6478
13744TIP3    H141177   1.361   7.189   0.169  2.0110  0.7698 -0.2729
13744TIP3    H241178   1.405   7.044   0.163 -0.0027  0.1679 -0.7634
13745TIP3   OH241179   0.665   7.865   0.272  0.2630 -0.3817  0.7758
13745TIP3    H141180   0.581   7.841   0.311  0.5457 -0.7272  1.1820
13745TIP3    H241181   0.718   7.785   0.279 -0.1093 -0.8612 -1.4937
13746TIP3   OH241182   7.708   4.024   5.904 -0.1081 -0.3106  0.2918
13746TIP3    H141183   7.636   4.077   5.939  0.2612  0.5316 -0.1988
13746TIP3    H241184   7.698   4.032   5.809  0.4671 -0.4255  0.2245
13747TIP3   OH241185   0.861   5.960   1.447  0.0638 -0.3514 -0.0073
13747TIP3    H141186   0.903   5.877   1.473  0.1040  1.2663  5.8416
13747TIP3    H241187   0.934   6.021   1.436 -0.2263  0.2006  1.0682
13748TIP3   OH241188   2.188   6.572   2.103  0.2727 -0.5124  0.5128
13748TIP3    H141189   2.164   6.664   2.112  1.0904 -0.2451  0.0826
13748TIP3    H241190   2.174   6.535   2.190  2.2732  0.6022  1.3482
13749TIP3   OH241191   3.473   3.967   1.814 -0.2760  0.6661  0.6165
13749TIP3    H141192   3.482   4.062   1.821  0.0302  0.5952  1.1775
13749TIP3    H241193   3.444   3.953   1.724 -1.1578  1.3552  0.7857
13750TIP3   OH241194   3.078   1.079   0.455 -0.1324 -0.1519  0.1384
13750TIP3    H141195   3.128   1.024   0.515  1.6449  1.4773  0.2393
13750TIP3    H241196   3.067   1.025   0.377 -0.5782 -1.5147  1.1303
13751TIP3   OH241197   0.470   7.818   3.117  0.1850  0.1843  0.2828
13751TIP3    H141198   0.503   7.822   3.027 -0.4794 -0.7439 -0.0141
13751TIP3    H241199   0.487   7.905   3.153  1.1104  0.3405 -0.5090
13752TIP3   OH241200   3.151   1.406   1.055  0.6430  0.2871 -0.1182
13752TIP3    H141201   3.208   1.482   1.039  0.8206  0.2700  0.4289
13752TIP3    H241202   3.062   1.441   1.046  0.7333  0.0772 -2.0650
13753TIP3   OH241203   6.201   4.065   6.952 -0.3477  0.1417  0.0078
13753TIP3    H141204   6.141   4.019   6.893  0.0891 -0.0268 -0.3043
13753TIP3    H241205   6.242   4.131   6.898 -0.5661  0.5391  0.3260
13754TIP3   OH241206   6.521   2.592   6.086  0.2439  0.0075 -0.7895
13754TIP3    H141207   6.426   2.602   6.093  0.5409  1.6838  1.7110
13754TIP3    H241208   6.546   2.649   6.013 -0.4374  1.4872  0.1023
13755TIP3   OH241209   3.058   6.953   1.534  0.3611  0.6315  0.2199
13755TIP3    H141210   3.144   6.914   1.545  0.1753  0.9875  3.7289
13755TIP3    H241211   2.997   6.885   1.565 -0.3686  1.4805  0.6858
13756TIP3   OH241212   2.784   7.233  -0.011  0.8027 -0.2933  1.0932
13756TIP3    H141213   2.731   7.237   0.069 -2.0076 -0.1522 -0.7105
13756TIP3    H241214   2.780   7.321  -0.047 -1.5087 -1.3264 -1.3621
13757TIP3   OH241215   2.997   7.065   0.076  0.4652 -0.3826  0.1176
13757TIP3    H141216   2.948   7.128   0.023 -1.3694 -0.3794  1.7474
13757TIP3    H241217   2.969   6.979   0.044 -1.1501 -0.3916  1.4409
13758TIP3   OH241218   5.057   4.331   6.276  0.5428  0.5526  1.2967
13758TIP3    H141219   5.129   4.384   6.242 -0.8662  1.6514  0.0004
13758TIP3    H241220   5.008   4.391   6.332 -1.0909  0.6532 -0.2199
13759TIP3   OH241221   2.506   7.133   2.106  0.3432  0.3129 -0.4485
13759TIP3    H141222   2.496   7.220   2.067 -1.7475  0.0388 -0.5854
13759TIP3    H241223   2.503   7.073   2.031 -0.2068 -0.0016 -0.1734
13760TIP3   OH241224   7.540   7.922   1.574 -0.6085 -0.1467 -0.0344
13760TIP3    H141225   7.570   7.960   1.492 -0.6427 -0.3832 -0.1567
13760TIP3    H241226   7.449   7.949   1.582 -0.1776  1.1373  0.6691
13761TIP3   OH241227   2.569   5.945   0.470  0.1808  0.6072 -0.2595
13761TIP3    H141228   2.508   5.900   0.411  0.2052  0.2184  0.0140
13761TIP3    H241229   2.524   6.025   0.495 -0.4164  0.0924  0.3213
13762TIP3   OH241230   1.435   4.978   0.865  0.0576 -0.4029 -0.0419
13762TIP3    H141231   1.468   5.009   0.781  1.5397  0.6143  0.8922
13762TIP3    H241232   1.347   5.016   0.872  0.6486  1.0169 -0.2993
13763TIP3   OH241233   0.605   5.095   2.288 -0.0440  0.4333  0.0654
13763TIP3    H141234   0.636   5.014   2.328  0.5031  0.7182  0.2257
13763TIP3    H241235   0.512   5.079   2.271 -0.2569  0.2693  1.3357
13764TIP3   OH241236   4.340   0.477   2.045 -0.1521 -0.0001 -0.1574
13764TIP3    H141237   4.395   0.554   2.055 -1.0235  0.7674 -1.1513
13764TIP3    H241238   4.252   0.511   2.032 -0.2488 -1.0617 -2.7247
13765TIP3   OH241239   6.569   2.994   5.972 -0.5904 -0.4489  0.3948
13765TIP3    H141240   6.560   2.911   5.926 -0.6355 -0.5395  0.5670
13765TIP3    H241241   6.622   2.974   6.049  1.1311  0.0794 -0.6149
13766TIP3   OH241242   5.867   2.076   6.780  0.0194 -0.2353  0.0959
13766TIP3    H141243   5.913   2.030   6.709 -1.0566  1.0858 -1.5138
13766TIP3    H241244   5.808   2.010   6.816  0.5445 -0.9170 -0.2807
13767TIP3   OH241245   0.063  -0.008   1.143  0.0151 -0.7722 -0.2456
13767TIP3    H141246  -0.005   0.057   1.159  1.7755  1.2887 -0.9672
13767TIP3    H241247   0.082  -0.045   1.230  0.2165  0.9070  0.4355
13768TIP3   OH241248   0.143   5.232   5.822  0.1802  0.0750 -0.6490
13768TIP3    H141249   0.084   5.203   5.892  0.6844 -0.0712 -0.2804
13768TIP3    H241250   0.172   5.151   5.780  2.1349 -0.0240  0.8250
13769TIP3   OH241251   2.594   0.526   1.316  0.5899  0.4119 -0.6407
13769TIP3    H141252   2.546   0.459   1.364 -0.4166  2.1549  0.8276
13769TIP3    H241253   2.533   0.558   1.250 -0.0064  1.9889  0.6368
13770TIP3   OH241254   7.767   4.134   6.550  0.2053 -0.1854  0.3977
13770TIP3    H141255   7.729   4.208   6.504  1.1485  0.2295  0.2684
13770TIP3    H241256   7.857   4.128   6.517 -0.0974 -1.8722 -0.1646
13771TIP3   OH241257   4.721   0.374   0.381 -0.7954 -0.0915  0.4836
13771TIP3    H141258   4.808   0.377   0.341 -0.6805 -0.0977  0.7343
13771TIP3    H241259   4.727   0.307   0.448 -1.3117 -0.8650 -0.2325
13772TIP3   OH241260   7.370   1.659   0.409 -0.4775  0.1873 -0.6782
13772TIP3    H141261   7.392   1.583   0.354 -0.2958  0.3571 -0.8380
13772TIP3    H241262   7.303   1.705   0.360 -0.7938 -0.0239 -0.4487
13773TIP3   OH241263   5.766   0.347   0.801 -0.1069  0.1715 -0.0482
13773TIP3    H141264   5.732   0.287   0.868  0.4325 -1.9234 -1.5816
13773TIP3    H241265   5.848   0.380   0.838 -0.4854  0.0890  0.8884
13774TIP3   OH241266   7.148   1.360   0.142 -0.5380 -0.0018  0.1417
13774TIP3    H141267   7.109   1.340   0.056 -0.2861 -0.2668  0.0876
13774TIP3    H241268   7.073   1.361   0.202 -1.1719  3.5050 -0.6198
13775TIP3   OH241269   0.194   3.290   6.455 -0.6868 -0.2612  0.6406
13775TIP3    H141270   0.234   3.250   6.532 -1.0664  1.6080  1.8295
13775TIP3    H241271   0.267   3.307   6.395 -0.1059  0.2262  1.4803
13776TIP3   OH241272   0.920   4.085   5.158  1.2226  0.2892  0.2512
13776TIP3    H141273   0.926   4.139   5.079  1.1036 -0.9242 -0.6115
13776TIP3    H241274   0.938   4.145   5.230 -0.6750  1.8582 -0.5299
13777TIP3   OH241275   0.381   6.911   0.213  0.1070  0.4924  0.1986
13777TIP3    H141276   0.448   6.979   0.223 -0.6487  1.3666 -0.5588
13777TIP3    H241277   0.335   6.911   0.297  0.6767  0.3080  0.5090
13778TIP3   OH241278   3.698   6.338   2.053  0.2360 -0.5249 -0.0307
13778TIP3    H141279   3.631   6.275   2.081 -0.1485  0.1293  0.5021
13778TIP3    H241280   3.649   6.408   2.011  0.5439  0.2907  0.9773
13779TIP3   OH241281   5.218   0.082   0.427 -0.5565  0.1763  0.1289
13779TIP3    H141282   5.242   0.002   0.381  0.6185 -0.1432  1.2829
13779TIP3    H241283   5.300   0.112   0.467 -0.8367  2.2782 -0.7956
13780TIP3   OH241284   7.558   3.671   5.362  0.3105  0.0539 -0.0371
13780TIP3    H141285   7.465   3.679   5.382  0.2832  0.7432 -0.4320
13780TIP3    H241286   7.570   3.718   5.280  0.8976 -0.5582 -0.3118
13781TIP3   OH241287  -0.002   5.522   5.399  0.1362 -0.0252  0.0164
13781TIP3    H141288   0.041   5.601   5.434  0.2722  0.2503 -0.7638
13781TIP3    H241289   0.064   5.483   5.342 -0.7816  0.5925 -1.4666
13782TIP3   OH241290   3.755   7.668   0.319 -0.9944  0.2235  0.3835
13782TIP3    H141291   3.757   7.612   0.397  1.5692 -1.0957 -0.5534
13782TIP3    H241292   3.728   7.610   0.248  0.5763  0.4012 -0.3958
13783TIP3   OH241293   5.646   0.714   1.950  0.0999  0.3581 -1.0268
13783TIP3    H141294   5.639   0.619   1.961 -1.0381  0.4173 -1.1490
13783TIP3    H241295   5.573   0.737   1.893  0.7472  1.2288 -1.5267
13784TIP3   OH241296   4.047   7.434   0.237 -0.2615 -0.4609 -0.1818
13784TIP3    H141297   4.111   7.363   0.233  0.5543  0.0028  2.9197
13784TIP3    H241298   3.962   7.391   0.232  0.2538 -1.5431  0.2375
13785TIP3   OH241299   5.331   0.689   0.883  0.2879 -0.1288  0.7828
13785TIP3    H141300   5.421   0.659   0.895 -0.1707 -1.6301  0.5381
13785TIP3    H241301   5.327   0.773   0.929  2.6100  1.4204 -1.6418
13786TIP3   OH241302   2.680   0.274   1.866  0.6593  0.0175 -0.0215
13786TIP3    H141303   2.680   0.223   1.785  0.0627 -0.0403  0.0114
13786TIP3    H241304   2.737   0.226   1.925 -0.6846 -1.1637  0.3489
13787TIP3   OH241305   7.526   3.449   5.684  0.0756  0.4138  0.2338
13787TIP3    H141306   7.569   3.489   5.759 -1.2621  0.0083  1.2544
13787TIP3    H241307   7.553   3.357   5.686  1.5957  0.8154 -0.9573
13788TIP3   OH241308   0.514   4.063   6.554  0.0217  0.1243 -0.0672
13788TIP3    H141309   0.483   4.111   6.630  0.6280  0.7283 -0.1960
13788TIP3    H241310   0.594   4.109   6.527  0.0453 -0.3354 -0.8096
13789TIP3   OH241311   3.522   7.445   0.189  0.2462  0.1029 -0.3154
13789TIP3    H141312   3.520   7.482   0.277 -0.5837 -0.5896 -0.0440
13789TIP3    H241313   3.494   7.517   0.133 -0.1978  0.2410  0.0852
13790TIP3   OH241314   0.261   1.673   6.141 -0.5709 -0.2491 -0.0818
13790TIP3    H141315   0.232   1.657   6.231 -0.8822 -1.5773 -0.4137
13790TIP3    H241316   0.348   1.713   6.151 -1.5372  1.6941  0.8492
13791TIP3   OH241317   2.250   3.350   5.113 -0.1640  0.3445  0.5886
13791TIP3    H141318   2.177   3.288   5.112 -0.2069  0.3878  0.9059
13791TIP3    H241319   2.225   3.418   5.051 -0.5197  0.5011  0.9021
13792TIP3   OH241320   6.291   3.940   6.480  0.2330  0.1624 -0.3783
13792TIP3    H141321   6.294   3.921   6.386 -2.7835 -1.3573 -0.2166
13792TIP3    H241322   6.255   4.029   6.485  0.4549  0.2681 -0.6537
13793TIP3   OH241323   2.270   7.246   0.357 -0.2024 -0.1018  0.1665
13793TIP3    H141324   2.314   7.249   0.442 -0.1472 -0.5601  0.1584
13793TIP3    H241325   2.249   7.337   0.337  1.5638  0.2348 -0.2466
13794TIP3   OH241326   0.781   5.304   5.908  0.1274  0.3703 -0.1375
13794TIP3    H141327   0.693   5.278   5.883  0.9745 -3.1912  0.2449
13794TIP3    H241328   0.780   5.399   5.907 -3.6504  0.3820 -0.3022
13795TIP3   OH241329   2.576   5.206   4.453 -0.2546  0.4927 -0.1149
13795TIP3    H141330   2.559   5.272   4.520 -1.3501  0.5524 -0.4381
13795TIP3    H241331   2.492   5.160   4.443 -0.1273  0.5362 -1.4905
13796TIP3   OH241332   7.196   2.273   6.616 -0.4518  0.4872  0.3088
13796TIP3    H141333   7.247   2.348   6.647  0.8663 -0.2367 -0.0973
13796TIP3    H241334   7.226   2.200   6.668 -0.9392  0.0064 -0.0773
13797TIP3   OH241335   7.289   1.029   0.158 -0.2412  0.7941 -0.4060
13797TIP3    H141336   7.248   0.962   0.214 -3.0105  0.9791 -2.1113
13797TIP3    H241337   7.350   1.075   0.216 -1.3800 -0.4848  1.8660
13798TIP3   OH241338   5.512   0.525   1.127 -0.5126 -0.1464  0.5949
13798TIP3    H141339   5.424   0.540   1.161 -0.4404  0.3383  0.5757
13798TIP3    H241340   5.551   0.463   1.189  0.3007  2.2313  2.5443
13799TIP3   OH241341   6.729   3.231   5.591 -0.1426 -0.4210  0.2081
13799TIP3    H141342   6.674   3.203   5.664 -2.6841  1.1419 -1.0278
13799TIP3    H241343   6.721   3.327   5.590  1.1994 -0.2996 -1.0679
13800TIP3   OH241344   8.441   4.106   6.455 -0.2171 -0.1719  0.1995
13800TIP3    H141345   8.473   4.170   6.519  1.2098 -1.1367  0.4585
13800TIP3    H241346   8.464   4.144   6.370 -2.0583  1.0795  0.2369
13801TIP3   OH241347   5.043   7.023   0.269  0.5487 -0.0088 -0.2323
13801TIP3    H141348   5.001   7.069   0.196 -1.3676 -1.0150  0.1722
13801TIP3    H241349   5.073   7.092   0.328  0.1628  0.7718 -0.9451
13802TIP3   OH241350   7.219   6.545   5.097 -0.0134  0.2059 -0.3315
13802TIP3    H141351   7.195   6.549   5.005 -0.6882  1.0559 -0.1265
13802TIP3    H241352   7.137   6.529   5.143  0.4738 -1.3339  0.0533
13803TIP3   OH241353   1.822   7.513   0.966  0.3562  0.1982 -0.5000
13803TIP3    H141354   1.801   7.603   0.993  0.5410  0.5460 -1.4847
13803TIP3    H241355   1.752   7.490   0.905  0.2722 -0.3555 -0.1963
13804TIP3   OH241356   6.799   2.709   0.354  0.4840  0.0100  0.5785
13804TIP3    H141357   6.809   2.651   0.278  1.2286 -0.8480  1.3137
13804TIP3    H241358   6.785   2.796   0.316 -2.6750 -0.9389 -0.5506
13805TIP3   OH241359   7.320   4.192   6.601  0.0006  0.3549 -0.5980
13805TIP3    H141360   7.327   4.152   6.687 -3.4389  0.2796 -0.3030
13805TIP3    H241361   7.328   4.286   6.617 -1.2494  0.3805 -0.1060
13806TIP3   OH241362   7.476   1.787   1.442  0.1896 -0.6569 -0.8494
13806TIP3    H141363   7.429   1.811   1.521 -1.2020  0.0650 -1.8687
13806TIP3    H241364   7.469   1.692   1.437 -0.9945 -0.5736 -0.8697
13807TIP3   OH241365   1.106   3.388   5.529  0.1284  0.1836  0.6701
13807TIP3    H141366   1.179   3.376   5.469 -0.8259  0.8946 -0.6874
13807TIP3    H241367   1.039   3.327   5.497 -1.6911  2.9832 -1.2285
13808TIP3   OH241368   6.209   0.704   0.497  0.3923 -0.3891 -0.2772
13808TIP3    H141369   6.279   0.676   0.438  1.7925  0.5504  0.9001
13808TIP3    H241370   6.157   0.765   0.445  0.4789 -1.0459 -1.1450
13809TIP3   OH241371   7.360   1.780   0.868  0.2129  0.1435 -0.5435
13809TIP3    H141372   7.332   1.733   0.789  0.3696  1.0692 -1.1676
13809TIP3    H241373   7.347   1.718   0.939  0.1208 -0.7318 -1.3081
13810TIP3   OH241374   2.614   5.424   4.838  0.5412  0.2281 -0.4338
13810TIP3    H141375   2.558   5.375   4.778  0.8157  0.5910 -0.9961
13810TIP3    H241376   2.574   5.411   4.924 -0.8479  1.1049 -0.9227
13811TIP3   OH241377   4.198   0.449   1.100 -0.0092  0.6023  0.1574
13811TIP3    H141378   4.111   0.420   1.129  0.5475  0.8374  2.1334
13811TIP3    H241379   4.184   0.539   1.071 -0.5091  0.4840  0.0238
13812TIP3   OH241380   1.402   0.631   1.388  0.0441 -0.5105  0.1434
13812TIP3    H141381   1.395   0.554   1.444  1.5605 -2.2742 -1.9990
13812TIP3    H241382   1.321   0.632   1.337 -0.5199  0.0354  1.0451
13813TIP3   OH241383   0.907   5.606   4.498  0.0048  0.0744  0.1746
13813TIP3    H141384   0.974   5.609   4.430 -0.8148 -0.0933 -0.6548
13813TIP3    H241385   0.878   5.697   4.508  1.6425  0.4359  1.8521
13814TIP3   OH241386   7.445   1.475   1.299  0.5613 -0.1424  0.6577
13814TIP3    H141387   7.474   1.391   1.334  1.6246 -0.3555 -0.6888
13814TIP3    H241388   7.350   1.468   1.294  0.5921 -0.9992  1.1915
13815TIP3   OH241389   7.336   1.214   1.802  0.0462  0.3482 -0.0522
13815TIP3    H141390   7.424   1.245   1.820  0.3274 -0.8728  0.7437
13815TIP3    H241391   7.328   1.217   1.707  1.3451 -0.6135 -0.2010
13816TIP3   OH241392   0.573   1.130   1.216  0.2546  0.2068  0.5552
13816TIP3    H141393   0.528   1.159   1.136 -0.7708  0.6895  1.3027
13816TIP3    H241394   0.523   1.169   1.287  1.0697 -0.3655  1.4488
13817TIP3   OH241395   4.954   7.084   1.171 -0.1908  0.0748 -0.1306
13817TIP3    H141396   5.031   7.027   1.179 -0.7003 -0.6305 -0.2201
13817TIP3    H241397   4.911   7.078   1.256  0.1920  0.9558  0.1215
13818TIP3   OH241398   4.316   7.681   1.551  0.1577  0.6177  0.0579
13818TIP3    H141399   4.395   7.649   1.508  0.5366  0.2116  1.0499
13818TIP3    H241400   4.306   7.771   1.520  0.1365  0.1634 -1.2758
13819TIP3   OH241401   7.722   0.442   2.272  0.1350  0.2081 -0.0001
13819TIP3    H141402   7.713   0.355   2.234  1.1378  0.1142 -0.0567
13819TIP3    H241403   7.783   0.488   2.213 -2.1650  1.7271 -1.2498
13820TIP3   OH241404   1.934   6.841   6.714  0.1556 -0.3074  0.6781
13820TIP3    H141405   1.914   6.798   6.798 -1.2193  0.5076  0.7926
13820TIP3    H241406   1.935   6.770   6.650 -0.4324 -0.7321  1.1323
13821TIP3   OH241407   1.914   3.134   5.568  0.2330  0.4134  0.0070
13821TIP3    H141408   2.004   3.159   5.586 -0.1402  2.7341 -1.2226
13821TIP3    H241409   1.889   3.184   5.490 -2.9251  1.8388  1.8178
13822TIP3   OH241410   7.563   1.271   0.558 -0.3046 -0.1580 -0.0920
13822TIP3    H141411   7.658   1.259   0.554 -0.3396 -0.0244 -2.2926
13822TIP3    H241412   7.551   1.366   0.551 -0.6018 -0.1897 -0.0128
13823TIP3   OH241413   6.746   2.605   1.186  0.0280 -0.4289 -0.1683
13823TIP3    H141414   6.813   2.598   1.255 -0.2502  0.9133  0.2541
13823TIP3    H241415   6.771   2.538   1.122  1.5100 -0.2772  0.2169
13824TIP3   OH241416   8.191   2.100   0.710  0.4762 -0.5764  0.4008
13824TIP3    H141417   8.231   2.046   0.778 -0.1531 -1.1623  0.3139
13824TIP3    H241418   8.097   2.096   0.728  0.4786  1.1574  0.8748
13825TIP3   OH241419   0.319   5.032   6.763 -0.3406  0.1982 -0.4711
13825TIP3    H141420   0.316   5.094   6.690 -0.4042 -2.1030 -2.4972
13825TIP3    H241421   0.365   4.956   6.728  0.1366 -0.7424  2.0922
13826TIP3   OH241422   6.579   2.935   1.984  0.1469  0.5494 -0.5413
13826TIP3    H141423   6.669   2.965   1.976  0.6145 -0.8214 -0.5617
13826TIP3    H241424   6.553   2.961   2.073  0.5020  1.0831 -0.5903
13827TIP3   OH241425   8.040   3.015   5.003  0.4907 -0.1029 -0.0134
13827TIP3    H141426   8.021   3.107   4.984  1.7317  0.2344  0.2974
13827TIP3    H241427   8.091   3.017   5.084  0.8577 -1.0365 -0.2142
13828TIP3   OH241428   7.545   5.765   5.138 -0.8397  0.2718  0.2006
13828TIP3    H141429   7.541   5.839   5.198 -0.5907  0.5377 -0.1103
13828TIP3    H241430   7.611   5.789   5.074 -2.0582  0.5697 -0.9684
13829TIP3   OH241431   0.886   5.387   6.677  0.0068 -0.7192  0.5147
13829TIP3    H141432   0.972   5.351   6.699  0.5857 -1.0178 -2.1175
13829TIP3    H241433   0.872   5.363   6.586 -1.3397  2.3437 -0.1421
13830TIP3   OH241434   7.725   0.770   1.127  0.2240 -0.1246 -0.2318
13830TIP3    H141435   7.729   0.702   1.194  0.8273  0.1133 -0.0202
13830TIP3    H241436   7.776   0.842   1.164  1.5779 -0.4300 -1.4517
13831TIP3   OH241437   0.687   2.909   0.749 -0.6196  0.3582  0.3141
13831TIP3    H141438   0.676   2.942   0.660 -1.4684  1.0924  0.6806
13831TIP3    H241439   0.754   2.841   0.742  0.2287  1.2856 -0.6718
13832TIP3   OH241440   8.228   1.265   0.130  0.2702  0.3712  0.2992
13832TIP3    H141441   8.198   1.261   0.040  2.5267 -0.8728 -0.4517
13832TIP3    H241442   8.168   1.208   0.178  1.5359 -2.3655 -1.2216
13833TIP3   OH241443   4.688   7.741   2.966 -0.0071  0.7492 -0.5051
13833TIP3    H141444   4.759   7.805   2.964 -0.8620  1.7720  1.1652
13833TIP3    H241445   4.615   7.787   3.007 -0.6351 -1.2864  0.7134
13834TIP3   OH241446   4.389   7.108   1.832 -0.3952 -0.0218  0.1872
13834TIP3    H141447   4.373   7.200   1.814 -1.0794 -0.4621 -1.5394
13834TIP3    H241448   4.313   7.080   1.883  0.4484  0.6546  1.8970
13835TIP3   OH241449   7.355   0.953   1.359  0.5173  0.6833 -0.2618
13835TIP3    H141450   7.325   0.862   1.363  1.7091  0.3351  1.0184
13835TIP3    H241451   7.278   1.005   1.381 -0.6580  0.0923 -2.8272
13836TIP3   OH241452   5.968   1.731   1.320 -0.1185 -0.2177  0.0914
13836TIP3    H141453   5.916   1.652   1.332 -0.2214  0.1096  2.0956
13836TIP3    H241454   5.971   1.771   1.407  0.4079  1.6823 -0.7587
13837TIP3   OH241455   1.571   5.125   5.789 -0.2080 -0.1522  0.1789
13837TIP3    H141456   1.578   5.071   5.711 -1.6110  0.2991 -0.2617
13837TIP3    H241457   1.477   5.132   5.806 -0.0128  1.4950  0.6905
13838TIP3   OH241458   0.281   2.531   0.267  0.3209 -0.1369  0.3239
13838TIP3    H141459   0.370   2.507   0.291  0.6334  0.2012 -0.4841
13838TIP3    H241460   0.289   2.619   0.231 -0.0963 -0.7150 -1.2404
13839TIP3   OH241461   0.512   0.470   0.668 -0.3687 -0.4641  0.4583
13839TIP3    H141462   0.597   0.508   0.644  0.0736 -0.9561  1.2348
13839TIP3    H241463   0.492   0.509   0.753 -0.3468 -1.2750  0.8355
13840TIP3   OH241464   1.174   2.599   0.398  0.2074 -0.1871 -0.1862
13840TIP3    H141465   1.253   2.557   0.363  0.8079  0.4019  0.4245
13840TIP3    H241466   1.104   2.535   0.384  0.8331 -0.7989 -0.5630
13841TIP3   OH241467   1.982   2.483   1.757 -0.3418  0.1292  0.2574
13841TIP3    H141468   1.972   2.473   1.852 -0.8135  0.1474  0.2104
13841TIP3    H241469   1.893   2.500   1.726 -0.1508  0.3521 -0.1607
13842TIP3   OH241470   3.125   6.839   6.061  0.3215 -0.3396 -0.1985
13842TIP3    H141471   3.171   6.793   5.991  1.6528  0.4225  0.1631
13842TIP3    H241472   3.163   6.804   6.142 -0.6406 -0.6394  0.1251
13843TIP3   OH241473   0.936   0.397   1.704 -0.2199 -0.2569 -0.0477
13843TIP3    H141474   0.910   0.318   1.657  0.8597 -0.4335 -0.3821
13843TIP3    H241475   0.944   0.464   1.636  3.7213 -1.1026 -0.5666
13844TIP3   OH241476   5.726   1.756   2.812  0.8973 -0.1846 -0.6223
13844TIP3    H141477   5.744   1.693   2.742 -1.5679 -0.8523 -0.7073
13844TIP3    H241478   5.672   1.707   2.875 -3.2671  2.4905 -1.9267
13845TIP3   OH241479   3.243   3.359   1.150 -0.4738 -0.1937 -0.1881
13845TIP3    H141480   3.231   3.387   1.241  0.6389 -1.7383  0.4550
13845TIP3    H241481   3.327   3.313   1.150  0.7856  2.0180 -2.5426
13846TIP3   OH241482   4.884   5.794   6.637 -0.3788  0.3946 -0.3561
13846TIP3    H141483   4.876   5.824   6.727  2.8507 -2.3283  0.9255
13846TIP3    H241484   4.853   5.703   6.640  2.5423 -0.6794 -1.3143
13847TIP3   OH241485   6.021   7.634   0.103 -0.2067 -0.1754  0.7026
13847TIP3    H141486   6.012   7.695   0.030 -0.2853 -1.5126 -0.4275
13847TIP3    H241487   6.088   7.673   0.159  0.3564  0.5250 -0.4407
13848TIP3   OH241488   0.308   2.900   2.050  0.1349 -0.1185  0.0729
13848TIP3    H141489   0.233   2.851   2.084 -0.4294  1.0134  0.4733
13848TIP3    H241490   0.383   2.844   2.068 -0.3267 -0.1837  1.8846
13849TIP3   OH241491   5.152   7.654   0.999  0.1461 -1.0071 -0.2184
13849TIP3    H141492   5.076   7.609   1.036 -0.9879  0.7057 -0.4317
13849TIP3    H241493   5.167   7.728   1.058 -1.2543  1.3603 -2.7278
13850TIP3   OH241494   0.104   1.168   0.224 -0.2598  0.1814  0.0676
13850TIP3    H141495   0.170   1.182   0.156  0.3658 -1.5506  0.3104
13850TIP3    H241496   0.025   1.209   0.189  0.7111  1.5246 -0.5949
13851TIP3   OH241497   4.790   6.627   1.311  0.0272  1.0988 -0.1885
13851TIP3    H141498   4.847   6.656   1.382 -0.0968  0.8445  0.0140
13851TIP3    H241499   4.786   6.702   1.252 -0.8816  1.7731  0.7004
13852TIP3   OH241500   6.833   7.969   1.486 -0.3541  0.4176 -0.5257
13852TIP3    H141501   6.904   8.005   1.434 -0.0932  2.2562  1.0609
13852TIP3    H241502   6.817   7.883   1.447  1.1071  0.9511 -2.4082
13853TIP3   OH241503   0.906   2.191   0.764  0.3108  0.4682 -0.1729
13853TIP3    H141504   0.907   2.198   0.859  0.8071 -1.3055 -0.0233
13853TIP3    H241505   0.978   2.246   0.735 -0.0407  1.2672  0.4567
13854TIP3   OH241506   0.638   1.182   0.359 -0.3483 -0.4648  0.3490
13854TIP3    H141507   0.565   1.147   0.409  1.5222 -0.2765  3.2869
13854TIP3    H241508   0.709   1.119   0.371  0.8753  0.8012 -0.0706
13855TIP3   OH241509   2.338   2.693   6.549  0.5474  0.6259 -0.7395
13855TIP3    H141510   2.345   2.599   6.565  1.1075  0.8519  0.3310
13855TIP3    H241511   2.259   2.701   6.495  1.0703 -0.5552 -1.7360
13856TIP3   OH241512   1.192   1.083   2.790 -0.1447  0.5590 -0.2356
13856TIP3    H141513   1.205   1.013   2.726 -1.1845 -0.2398  0.3980
13856TIP3    H241514   1.230   1.048   2.871 -0.1542  0.9529 -0.0604
13857TIP3   OH241515   8.001   7.274   0.882 -0.0703 -1.0103  0.4468
13857TIP3    H141516   7.951   7.343   0.838 -0.1445 -0.4090  1.4693
13857TIP3    H241517   8.017   7.308   0.970 -1.2459 -2.8308  1.4047
13858TIP3   OH241518   2.670   1.479   0.821  0.4823 -0.1343  0.1716
13858TIP3    H141519   2.622   1.541   0.877  0.4897  0.4681 -0.4855
13858TIP3    H241520   2.701   1.532   0.748  2.5704 -0.3978  0.8222
13859TIP3   OH241521   0.317   3.084   1.755 -0.2160 -0.5307  0.7633
13859TIP3    H141522   0.225   3.101   1.739  0.2259  0.2560 -1.0431
13859TIP3    H241523   0.336   3.129   1.838 -0.7830  1.6688 -0.2941
13860TIP3   OH241524   3.672   2.295   0.529  0.4303 -0.0584 -0.9905
13860TIP3    H141525   3.755   2.316   0.486 -0.2229  1.3792 -1.5895
13860TIP3    H241526   3.606   2.306   0.460 -0.6236  2.2514  0.3188
13861TIP3   OH241527   7.759   1.609   1.399 -0.1080 -0.0006 -0.2124
13861TIP3    H141528   7.836   1.570   1.357 -1.7681 -2.2760 -1.3034
13861TIP3    H241529   7.724   1.669   1.334  0.9010  1.2869  0.4116
13862TIP3   OH241530   1.901   1.757   1.753  0.0254 -0.4672 -0.2562
13862TIP3    H141531   1.898   1.665   1.728  1.1837  0.1744 -3.0007
13862TIP3    H241532   1.982   1.767   1.803  0.7393 -0.6355 -1.3675
13863TIP3   OH241533   1.816   1.616   1.281  0.2340 -0.4798  0.6476
13863TIP3    H141534   1.877   1.562   1.330  1.6009 -0.3534 -0.9079
13863TIP3    H241535   1.786   1.561   1.209 -1.5095 -0.5477  1.3966
13864TIP3   OH241536   7.046   1.936   1.396  0.6126  0.3462  0.0333
13864TIP3    H141537   7.017   2.017   1.354 -1.3942 -0.8628 -0.9619
13864TIP3    H241538   7.007   1.939   1.483  1.6897  1.0771  0.5087
13865TIP3   OH241539   0.392   0.986   1.837  0.0099  0.6523  0.3123
13865TIP3    H141540   0.387   0.898   1.798  1.4712  0.9643 -0.6417
13865TIP3    H241541   0.398   0.970   1.931 -2.1372 -0.1695  0.3383
13866TIP3   OH241542   1.278   2.011   0.761  0.9372 -0.3384 -0.0301
13866TIP3    H141543   1.221   1.961   0.819 -0.4393 -0.9330 -1.8236
13866TIP3    H241544   1.354   1.955   0.749  0.8078 -0.6234  0.4647
13867TIP3   OH241545   6.141   7.726   2.554  0.3382 -0.5409  0.1439
13867TIP3    H141546   6.095   7.784   2.615  1.9543  0.8322  0.1127
13867TIP3    H241547   6.226   7.769   2.540  0.7206 -1.8048 -1.6052
13868TIP3   OH241548   0.231   0.725   1.800  0.4049 -0.3702 -0.1482
13868TIP3    H141549   0.292   0.660   1.834  0.1647 -0.1428  0.7328
13868TIP3    H241550   0.145   0.695   1.830  0.3402  0.5716  0.6379
13869TIP3   OH241551   1.652   2.559   0.719  0.2820 -0.3149  0.4513
13869TIP3    H141552   1.611   2.637   0.682  1.7209  0.3307  0.1965
13869TIP3    H241553   1.721   2.593   0.776 -1.1167 -1.3238  2.8413
13870TIP3   OH241554   4.743   6.247   5.546  0.1158 -0.1678  0.0118
13870TIP3    H141555   4.686   6.323   5.560 -1.2720 -1.0027 -1.0385
13870TIP3    H241556   4.779   6.260   5.458  0.5143 -0.3097  0.1531
13871TIP3   OH241557   7.911   1.195   0.678  0.0271 -0.3395  0.3567
13871TIP3    H141558   7.873   1.236   0.756  0.1561 -0.0929  0.2910
13871TIP3    H241559   7.997   1.165   0.708 -0.2314 -0.9282  0.5147
13872TIP3   OH241560   3.188   4.360   6.116  0.0117 -0.5227  0.0369
13872TIP3    H141561   3.211   4.268   6.126  1.2856 -0.2065  0.1422
13872TIP3    H241562   3.172   4.390   6.206 -0.2641 -0.5977  0.0146
13873TIP3   OH241563   8.004   0.847   0.698 -0.0845 -0.1877 -0.1457
13873TIP3    H141564   8.005   0.887   0.611  0.7144 -0.3016 -0.1912
13873TIP3    H241565   7.911   0.831   0.715 -0.5272  2.7166  0.3602
13874TIP3   OH241566   3.951   3.177   6.833 -0.1395 -0.0165 -0.2303
13874TIP3    H141567   3.871   3.193   6.884 -0.6896 -1.5922 -0.5748
13874TIP3    H241568   3.979   3.264   6.804 -2.1042  0.4965 -0.6671
13875TIP3   OH241569   1.684   2.678   1.332  0.5685 -0.1936  0.5539
13875TIP3    H141570   1.598   2.711   1.357 -0.3719 -1.7297 -0.5787
13875TIP3    H241571   1.733   2.756   1.307 -0.2705  0.7681  1.8089
13876TIP3   OH241572   7.524   2.130   0.385  0.1956  0.0042  0.1583
13876TIP3    H141573   7.505   2.047   0.429  0.4643  0.6349  1.4956
13876TIP3    H241574   7.514   2.111   0.292  0.2067 -1.5166  0.4565
13877TIP3   OH241575   7.199   7.881   0.944  0.0683  0.1238 -0.9032
13877TIP3    H141576   7.219   7.911   0.855 -2.8509  1.9402 -1.0220
13877TIP3    H241577   7.181   7.962   0.993 -0.7973 -0.9943  0.6842
13878TIP3   OH241578   4.843   4.988   5.759 -0.4856  0.1737  0.2163
13878TIP3    H141579   4.841   4.930   5.835 -0.1598  0.1458  0.2037
13878TIP3    H241580   4.759   4.973   5.715 -0.9798  0.7327  0.9758
13879TIP3   OH241581   1.614   1.811   1.079 -0.5869 -0.2544 -0.1155
13879TIP3    H141582   1.566   1.730   1.093 -0.1006 -0.6670 -0.8038
13879TIP3    H241583   1.547   1.874   1.052 -1.2768  0.1232  2.3604
13880TIP3   OH241584   6.354   5.527   5.840  0.2119 -0.3009 -0.3205
13880TIP3    H141585   6.409   5.452   5.818 -0.8397 -1.4733  0.9397
13880TIP3    H241586   6.318   5.556   5.756 -1.3250 -2.7770 -0.5850
13881TIP3   OH241587   0.423   0.586   3.321 -0.2984 -0.3021 -0.4583
13881TIP3    H141588   0.497   0.644   3.339 -0.4747  0.0245 -0.7736
13881TIP3    H241589   0.443   0.546   3.237  0.9542 -2.5160  0.8618
13882TIP3   OH241590   5.822   6.998   1.528 -0.7317 -0.0036 -0.0280
13882TIP3    H141591   5.820   7.007   1.623 -1.1665 -1.3281  0.1023
13882TIP3    H241592   5.888   7.061   1.498 -1.1327  0.9510  1.0803
13883TIP3   OH241593   4.094   4.357   6.345  0.2836 -0.0799 -0.2197
13883TIP3    H141594   4.063   4.330   6.259  0.8764 -0.0420 -0.4518
13883TIP3    H241595   4.018   4.349   6.402  0.2775 -1.6530 -0.4057
13884TIP3   OH241596   0.102   2.425   0.505 -0.2152  0.8210 -0.0491
13884TIP3    H141597   0.113   2.343   0.458  0.6227  0.5246  0.6465
13884TIP3    H241598   0.028   2.468   0.463 -0.2373  0.0065 -0.8369
13885TIP3   OH241599   2.656   4.963   5.839 -0.0108 -0.2018 -0.1077
13885TIP3    H141600   2.627   4.875   5.814 -0.4985  0.0932 -0.5631
13885TIP3    H241601   2.704   4.949   5.921 -1.6764 -0.6463  0.8116
13886TIP3   OH241602   1.215   0.627   2.007 -0.2057  0.1041  0.9976
13886TIP3    H141603   1.226   0.533   1.995 -1.9711  0.0439 -0.3151
13886TIP3    H241604   1.299   0.664   1.980 -0.0415 -0.9783 -0.0198
13887TIP3   OH241605   1.439   2.054   1.044  0.8110 -0.3729  0.1749
13887TIP3    H141606   1.454   2.064   1.138  0.3933 -0.9172  0.3037
13887TIP3    H241607   1.352   2.015   1.038  1.1705 -1.1056 -0.4083
13888TIP3   OH241608   1.356   1.421   3.074 -0.3269 -0.2923  0.0328
13888TIP3    H141609   1.426   1.364   3.106 -0.6602 -0.2885  0.7602
13888TIP3    H241610   1.389   1.510   3.087 -0.1866 -0.3003 -0.2587
13889TIP3   OH241611   7.327   0.365   0.622  0.0832  0.3771 -0.5018
13889TIP3    H141612   7.248   0.406   0.586 -0.4744 -1.4931 -1.4458
13889TIP3    H241613   7.305   0.344   0.713 -0.1448  0.7898 -0.4624
13890TIP3   OH241614   7.616   7.821   0.824 -0.2512  0.2880  0.2217
13890TIP3    H141615   7.554   7.760   0.864  0.8738  0.3664  2.1849
13890TIP3    H241616   7.581   7.908   0.845  0.8225  0.3429  1.9258
13891TIP3   OH241617   0.335   0.099   1.060 -0.0771  0.5761  0.5761
13891TIP3    H141618   0.284   0.059   0.990 -0.3118  0.3271  0.8896
13891TIP3    H241619   0.301   0.060   1.140  1.9343 -1.0645  0.6644
13892TIP3   OH241620   8.248   0.622   1.090  0.2682  0.2102  0.5866
13892TIP3    H141621   8.166   0.649   1.048  0.8632  0.7155 -0.2800
13892TIP3    H241622   8.313   0.629   1.020  0.3348 -4.1851  0.0731
13893TIP3   OH241623   0.497   2.956   1.576  0.5198  0.3153  0.2630
13893TIP3    H141624   0.563   2.912   1.630  0.4888 -0.8224 -0.6002
13893TIP3    H241625   0.415   2.944   1.623  0.3033 -1.6705 -0.5722
13894TIP3   OH241626   3.002   4.955   6.596 -0.0336  0.3643  0.3795
13894TIP3    H141627   3.029   5.047   6.599 -1.6390  0.8518  0.3324
13894TIP3    H241628   2.923   4.951   6.650 -1.1282 -0.5700 -1.2505
13895TIP3   OH241629   6.352   2.629   0.243  0.3268  0.3192 -0.3618
13895TIP3    H141630   6.411   2.667   0.178  0.4517  0.3459 -0.2316
13895TIP3    H241631   6.321   2.705   0.293  1.0898  0.1768  0.3274
13896TIP3   OH241632   8.456   0.404   1.490 -0.3548 -0.2775  0.0463
13896TIP3    H141633   8.462   0.489   1.448 -0.5986 -0.4963 -0.4458
13896TIP3    H241634   8.369   0.403   1.530 -0.0777 -0.0266  0.6562
13897TIP3   OH241635   0.995   3.226   1.041  0.1603 -0.4633  0.4802
13897TIP3    H141636   1.029   3.315   1.050 -3.4146  0.9337  0.9212
13897TIP3    H241637   1.010   3.187   1.127  1.2384 -0.1303  0.4582
13898TIP3   OH241638   4.805   7.369   0.908 -0.0173  0.0050 -0.0676
13898TIP3    H141639   4.731   7.413   0.866  0.2387  0.4432 -0.0715
13898TIP3    H241640   4.881   7.397   0.856  0.1988 -0.1206  0.1795
13899TIP3   OH241641   0.495   3.020   0.354  0.2393 -0.2451 -0.3423
13899TIP3    H141642   0.479   2.962   0.429  2.1185  1.1650  1.1988
13899TIP3    H241643   0.432   3.091   0.364  1.8873  1.0514  1.1405
13900TIP3   OH241644   3.124   7.008   6.701 -0.2721  0.4010  0.1091
13900TIP3    H141645   3.106   6.954   6.624 -0.7173  0.5437  0.1145
13900TIP3    H241646   3.049   7.066   6.708  0.2842  1.1382  0.0063
13901TIP3   OH241647   2.768   6.159   6.380  0.5141 -0.5852  0.0424
13901TIP3    H141648   2.863   6.161   6.392  0.5607 -1.1444 -0.2108
13901TIP3    H241649   2.755   6.181   6.287  0.3561  0.1819  0.2422
13902TIP3   OH241650   2.064   2.318   3.039 -0.1856  0.1977  0.1211
13902TIP3    H141651   2.102   2.251   3.096 -0.4166  0.0498  0.1051
13902TIP3    H241652   1.983   2.344   3.084 -0.0148  0.5749  0.2025
13903TIP3   OH241653   5.937   6.857   0.537 -1.0424 -0.5215 -0.1623
13903TIP3    H141654   5.863   6.900   0.579 -1.6510 -0.2158 -1.5084
13903TIP3    H241655   5.913   6.853   0.444 -0.5227 -2.7769 -0.2300
13904TIP3   OH241656   1.507   2.596   1.908 -0.2252  0.2714  0.2235
13904TIP3    H141657   1.416   2.572   1.924  0.0740  0.2630  2.0131
13904TIP3    H241658   1.518   2.680   1.952  0.9928 -0.3803  1.1885
13905TIP3   OH241659   0.785   0.427   1.438 -0.2476 -0.1772  0.0503
13905TIP3    H141660   0.834   0.371   1.379  1.4905  1.4819 -0.1337
13905TIP3    H241661   0.743   0.491   1.380 -1.5133 -0.7373  0.3277
13906TIP3   OH241662   2.754   2.870   3.748  0.0478  0.2481 -0.7461
13906TIP3    H141663   2.698   2.795   3.767 -1.3585  1.3382 -0.4554
13906TIP3    H241664   2.746   2.883   3.653  2.6517 -1.7755 -1.2738
13907TIP3   OH241665   0.413   1.076   0.470  0.2997 -0.3780 -0.1462
13907TIP3    H141666   0.352   1.010   0.435 -0.7248  1.2569 -1.5167
13907TIP3    H241667   0.357   1.145   0.504  1.3724  0.8515 -0.8283
13908TIP3   OH241668   1.631   5.724   6.198 -0.0262 -0.4070  0.2204
13908TIP3    H141669   1.537   5.729   6.214 -0.3713 -0.9700 -1.5196
13908TIP3    H241670   1.648   5.631   6.180  0.8892 -0.3385  0.7011
13909TIP3   OH241671   0.351   2.007   0.309  0.1238 -0.3620  0.0177
13909TIP3    H141672   0.394   2.073   0.364 -0.0327 -0.1787 -0.0806
13909TIP3    H241673   0.408   1.931   0.315  0.7294  0.0411 -0.5083
13910TIP3   OH241674   2.471   6.568   5.567  0.3312  0.6543  0.7156
13910TIP3    H141675   2.551   6.555   5.618 -0.7101 -0.2823  2.1558
13910TIP3    H241676   2.405   6.517   5.614 -0.9729  0.9237 -0.8031
13911TIP3   OH241677   1.325   1.023   1.667 -0.0554  0.0960 -0.0024
13911TIP3    H141678   1.245   1.075   1.654 -0.1270 -0.1508 -0.5755
13911TIP3    H241679   1.327   1.005   1.761 -0.5129  0.3628  0.0609
13912TIP3   OH241680   2.915   1.986   0.834 -0.3631  0.0869 -0.0153
13912TIP3    H141681   2.844   1.990   0.769 -0.8380 -1.9974  0.3488
13912TIP3    H241682   2.902   1.903   0.878  1.7700  0.1262  0.7148
13913TIP3   OH241683   0.519   0.934   1.605  0.1057 -0.1827  0.9422
13913TIP3    H141684   0.517   0.964   1.696  0.7185 -0.0424  0.9162
13913TIP3    H241685   0.541   1.012   1.554 -1.6925  0.0577  0.5165
13914TIP3   OH241686   4.440   4.787   6.730 -0.0089 -0.0537  0.2983
13914TIP3    H141687   4.382   4.726   6.683  1.0362  1.2471 -2.8314
13914TIP3    H241688   4.508   4.731   6.767 -0.5319 -1.0816 -0.2591
13915TIP3   OH241689   3.016   5.659   5.578 -0.3220 -0.4947 -0.2353
13915TIP3    H141690   2.951   5.589   5.581  1.1744 -1.9338 -0.7804
13915TIP3    H241691   3.095   5.617   5.544  0.1555  1.8256 -2.1145
13916TIP3   OH241692   3.089   5.739   5.837  0.0907  0.4426 -0.5309
13916TIP3    H141693   3.056   5.709   5.752 -0.3136 -0.4340 -0.0645
13916TIP3    H241694   3.184   5.741   5.827 -0.0449  2.3714 -1.6800
13917TIP3   OH241695   7.692   0.342   0.808  0.3099 -0.1121  0.4061
13917TIP3    H141696   7.638   0.329   0.886 -0.0976  0.3212  0.1942
13917TIP3    H241697   7.782   0.345   0.841  0.1363  0.0974  0.8561
13918TIP3   OH241698   1.326   2.173   0.487  0.1443  0.2753  0.2335
13918TIP3    H141699   1.382   2.198   0.561  0.4052  1.2434 -0.2761
13918TIP3    H241700   1.383   2.180   0.411 -0.5491  0.8668 -0.2445
13919TIP3   OH241701   8.496   2.918   1.478  0.4241 -0.1438  0.0725
13919TIP3    H141702   8.575   2.874   1.445  0.0549 -0.1194 -0.8618
13919TIP3    H241703   8.427   2.852   1.471  0.6617 -0.6797  2.3701
13920TIP3   OH241704   0.063   0.221   1.313 -0.3385  0.2668  0.0047
13920TIP3    H141705   0.036   0.285   1.379  1.5784  0.1233  0.9626
13920TIP3    H241706   0.100   0.273   1.242 -0.1437  0.3075  0.1346
13921TIP3   OH241707   3.225   5.545   4.400 -0.6394  0.0700 -0.1570
13921TIP3    H141708   3.281   5.484   4.449 -3.2460 -2.5661 -0.3084
13921TIP3    H241709   3.249   5.631   4.433  1.9387 -1.1446  1.3416
13922TIP3   OH241710   0.928   1.442   0.164  0.6315  0.8241 -0.3200
13922TIP3    H141711   0.871   1.433   0.240  0.5463 -1.5374 -0.6330
13922TIP3    H241712   0.913   1.531   0.133 -1.6406  0.7920  0.6006
13923TIP3   OH241713   0.027   1.984   1.477 -0.6229 -0.3125  0.3848
13923TIP3    H141714  -0.019   2.019   1.401 -1.7312 -2.8425 -0.1461
13923TIP3    H241715   0.118   2.013   1.466 -1.6578  3.1865  0.5142
13924TIP3   OH241716   1.192   0.112   0.862 -0.3450  0.1238  0.1379
13924TIP3    H141717   1.209   0.174   0.933  1.1331 -1.9105  1.5988
13924TIP3    H241718   1.257   0.134   0.795  1.6737 -1.2475  1.5891
13925TIP3   OH241719   2.844   4.751   6.083  0.0470  0.2690  0.3522
13925TIP3    H141720   2.871   4.843   6.080 -0.8935  0.6271  2.2643
13925TIP3    H241721   2.872   4.715   5.999  0.2601  2.3530 -0.4890
13926TIP3   OH241722   4.353   5.539   6.682  0.2376  0.1731 -0.1614
13926TIP3    H141723   4.417   5.526   6.752  0.2691 -0.8262 -0.3726
13926TIP3    H241724   4.380   5.480   6.612 -0.4433  0.3433 -0.5788
13927TIP3   OH241725   7.964   1.748   0.428 -0.1004  0.3497  0.3908
13927TIP3    H141726   8.004   1.835   0.425 -1.0621  0.7502 -1.0944
13927TIP3    H241727   7.923   1.744   0.515 -0.0361  1.3608  0.4759
13928TIP3   OH241728   4.791   7.731   0.110  0.9421  0.5446 -0.0402
13928TIP3    H141729   4.794   7.782   0.191 -1.9760  0.5511  0.1253
13928TIP3    H241730   4.812   7.794   0.041 -0.2840  1.4544  0.3906
13929TIP3   OH241731   1.597   2.179   2.032  0.3477 -0.0717 -0.4967
13929TIP3    H141732   1.549   2.097   2.046  0.7960 -0.1262  0.7358
13929TIP3    H241733   1.605   2.185   1.937  1.6142 -2.2249 -0.5706
13930TIP3   OH241734   3.618   5.804   6.689 -0.2433  0.4160 -0.1489
13930TIP3    H141735   3.667   5.722   6.702 -0.6447 -0.1014 -1.7173
13930TIP3    H241736   3.682   5.862   6.648  0.8329  1.8211  3.3500
13931TIP3   OH241737   4.903   5.575   6.205 -0.2568 -0.0400  0.1536
13931TIP3    H141738   4.863   5.660   6.225  0.4894  0.3194  0.1110
13931TIP3    H241739   4.862   5.548   6.123  1.5199  1.5769 -1.3249
13932TIP3   OH241740   4.683   7.849   6.796  0.0904  1.3612  0.0915
13932TIP3    H141741   4.765   7.889   6.767 -0.4611  2.1119 -0.4560
13932TIP3    H241742   4.672   7.773   6.739 -0.3944  2.1628 -0.8958
13933TIP3   OH241743   5.635   6.775   0.488  0.0388  0.0892  0.3283
13933TIP3    H141744   5.680   6.851   0.450  0.5183  0.2282  1.1728
13933TIP3    H241745   5.548   6.808   0.511  0.5826  0.6478  1.6137
13934TIP3   OH241746   7.574   1.537   0.104 -0.2214 -0.2113 -0.3749
13934TIP3    H141747   7.531   1.515   0.022  0.0372 -0.7389 -0.3666
13934TIP3    H241748   7.516   1.502   0.172  0.2638 -1.0087 -0.3657
13935TIP3   OH241749   1.654   2.094   0.867 -0.4847 -0.2200  0.0587
13935TIP3    H141750   1.687   2.182   0.886  0.7139 -1.2351  2.9862
13935TIP3    H241751   1.570   2.089   0.912 -0.1040 -0.8757  0.7126
13936TIP3   OH241752   0.480   0.345   1.842 -0.2509 -0.1111  0.0661
13936TIP3    H141753   0.520   0.334   1.756  0.1522 -0.5275  0.3033
13936TIP3    H241754   0.444   0.259   1.863  2.7053 -0.9824  1.8328
13937TIP3   OH241755   7.827   1.155   0.386 -0.1499  0.0907 -0.5009
13937TIP3    H141756   7.811   1.244   0.355 -0.1094  0.0733 -0.5711
13937TIP3    H241757   7.856   1.166   0.477  0.1279  0.1673 -0.5988
13938TIP3   OH241758   2.486   2.236   1.774  0.1905  0.2023  0.3816
13938TIP3    H141759   2.492   2.327   1.747  1.3004 -0.2143 -0.7971
13938TIP3    H241760   2.571   2.216   1.812  0.6077 -0.8519 -1.0441
13939TIP3   OH241761   2.220   4.249   0.850  0.0631  0.0321  0.2920
13939TIP3    H141762   2.171   4.304   0.911  0.9818  2.3790 -1.0127
13939TIP3    H241763   2.292   4.214   0.902 -0.0030  0.8188  0.9254
13940TIP3   OH241764   0.982   2.473   0.882 -0.3927 -0.2048  0.2679
13940TIP3    H141765   1.076   2.463   0.893 -0.5704 -0.3820  1.6572
13940TIP3    H241766   0.944   2.399   0.929 -1.2477  0.2468  0.3017
13941TIP3   OH241767   1.563   3.579   0.430  0.7965 -0.1071 -0.3430
13941TIP3    H141768   1.494   3.512   0.431  0.8050 -0.1478 -1.5309
13941TIP3    H241769   1.616   3.560   0.508 -0.1751 -0.4426  0.2489
13942TIP3   OH241770   0.037   3.075   0.384  0.0660 -0.2994  0.1472
13942TIP3    H141771   0.069   3.162   0.406 -0.7243 -0.0212  0.2184
13942TIP3    H241772  -0.050   3.070   0.423  0.5226 -1.5134  1.0354
13943TIP3   OH241773   1.000   4.266   0.949  0.2705  0.2139 -0.1943
13943TIP3    H141774   1.041   4.180   0.946  0.5019  0.2564  1.4668
13943TIP3    H241775   0.924   4.258   0.891  0.4789 -0.9968 -0.3190
13944TIP3   OH241776   0.250   1.896   2.008 -0.3799  0.0549 -0.1183
13944TIP3    H141777   0.160   1.925   2.023  0.0815  0.4270  2.0660
13944TIP3    H241778   0.244   1.800   2.010 -0.9907  0.0445 -1.7203
13945TIP3   OH241779   0.978   2.422   0.327  0.0653 -0.0791  0.1083
13945TIP3    H141780   0.974   2.349   0.265  0.9336 -1.2498  1.3994
13945TIP3    H241781   0.892   2.422   0.370 -0.5980  0.8379 -1.1782
13946TIP3   OH241782   2.528   0.977   0.492  0.4629  0.3615  0.2991
13946TIP3    H141783   2.481   0.993   0.411  0.6781 -1.5699 -0.2309
13946TIP3    H241784   2.559   1.064   0.520 -1.0869  1.2695 -0.7468
13947TIP3   OH241785   5.764   3.823   6.191 -0.3312  0.6498 -0.2980
13947TIP3    H141786   5.758   3.755   6.123  0.6634 -0.7001  0.9358
13947TIP3    H241787   5.684   3.874   6.181 -0.5853 -0.0376 -1.9564
13948TIP3   OH241788   2.526   1.154   0.924 -0.4150 -0.3458 -0.1917
13948TIP3    H141789   2.579   1.117   0.854  0.6688  0.1441  0.3658
13948TIP3    H241790   2.578   1.226   0.959 -2.7392  2.1793 -1.6676
13949TIP3   OH241791   3.899   5.032   6.160  0.4186  0.6133  0.3311
13949TIP3    H141792   3.922   5.125   6.156 -2.4696  1.3508 -0.2563
13949TIP3    H241793   3.829   5.027   6.225 -0.8398 -0.8254 -1.0811
13950TIP3   OH241794   4.262   4.001   6.772 -0.6031 -0.1364 -0.1317
13950TIP3    H141795   4.191   4.044   6.725 -1.1009  1.1246  1.7206
13950TIP3    H241796   4.226   3.917   6.798 -0.1844 -1.0267 -2.3228
13951TIP3   OH241797   2.916   4.423   6.338  0.2225 -0.2584 -0.2238
13951TIP3    H141798   2.894   4.394   6.427  1.4641 -0.6567 -0.0316
13951TIP3    H241799   3.000   4.468   6.348 -0.4535  1.1873 -0.9367
13952TIP3   OH241800   3.562   1.176   2.549 -0.3878  0.3803  0.3518
13952TIP3    H141801   3.561   1.121   2.627 -2.0397  0.5100  0.4439
13952TIP3    H241802   3.565   1.115   2.476  1.2900  0.2609  0.4995
13953TIP3   OH241803   1.767   0.504   2.498  0.5005  0.0223  0.1963
13953TIP3    H141804   1.816   0.439   2.447 -0.2230 -1.4890  1.3797
13953TIP3    H241805   1.771   0.584   2.445  0.4391 -1.2872 -1.8624
13954TIP3   OH241806   6.382   8.046   1.625 -0.0120 -0.6253 -0.3048
13954TIP3    H141807   6.336   7.979   1.675  1.2095 -0.4978  1.0354
13954TIP3    H241808   6.430   7.997   1.558 -0.5927 -0.9191 -0.5090
13955TIP3   OH241809   2.584   6.214   6.696  0.3942 -0.3505 -0.0899
13955TIP3    H141810   2.657   6.177   6.745 -0.9669 -1.3386  1.2407
13955TIP3    H241811   2.562   6.147   6.632 -0.5444 -0.8652  0.7571
13956TIP3   OH241812   8.290   1.123   1.472 -0.2013 -0.2505 -0.1000
13956TIP3    H141813   8.372   1.124   1.423 -1.7394  0.1686 -2.7317
13956TIP3    H241814   8.285   1.035   1.509 -0.4277 -1.5688 -3.1801
13957TIP3   OH241815   7.875   1.449   2.124 -0.4993  0.5259 -0.7090
13957TIP3    H141816   7.833   1.523   2.079 -2.5901  1.8784  3.1704
13957TIP3    H241817   7.806   1.383   2.130  0.3552 -0.4143 -1.2055
13958TIP3   OH241818   3.651   5.097   5.933 -0.1099 -0.8828 -0.2048
13958TIP3    H141819   3.730   5.042   5.940  0.2642 -0.2138  0.7830
13958TIP3    H241820   3.672   5.159   5.864  0.8846  0.3755  1.2107
13959TIP3   OH241821   7.747   1.294   0.904  1.0948  0.1618 -0.6523
13959TIP3    H141822   7.721   1.386   0.918 -2.3507 -0.5770 -1.6292
13959TIP3    H241823   7.706   1.247   0.977  1.3137 -0.8330 -1.1754
13960TIP3   OH241824   7.345   1.747   1.153 -0.0627 -0.0263  0.3026
13960TIP3    H141825   7.404   1.776   1.222  0.0389  2.0903 -0.6167
13960TIP3    H241826   7.261   1.734   1.197  0.0813  0.9928  0.8981
13961TIP3   OH241827   4.027   6.817   5.924  0.5773  0.3989 -0.0730
13961TIP3    H141828   4.093   6.751   5.904 -0.4479 -0.5919 -0.2712
13961TIP3    H241829   3.996   6.794   6.012  1.0442  1.3208  0.3350
13962TIP3   OH241830   1.501   0.868   1.494 -0.1082 -0.5122 -0.6602
13962TIP3    H141831   1.424   0.914   1.528  1.2177  0.4930  1.0129
13962TIP3    H241832   1.469   0.780   1.475 -2.0230  0.3033 -1.3654
13963TIP3   OH241833   0.500   2.063   3.147 -0.4654  0.0118  0.0611
13963TIP3    H141834   0.499   2.107   3.232 -1.4372  1.3007 -0.6078
13963TIP3    H241835   0.583   2.090   3.108  0.2520 -1.0347  0.8047
13964TIP3   OH241836   0.020   2.498   0.057 -0.1047  0.8052 -0.2659
13964TIP3    H141837   0.036   2.418   0.006  0.9314  1.5407 -1.1294
13964TIP3    H241838  -0.035   2.552  -0.000 -0.3111  0.9578  0.0761
13965TIP3   OH241839   1.935   2.333   0.244 -0.1734 -0.0978  0.2598
13965TIP3    H141840   1.924   2.253   0.296 -0.9554  2.0545  3.5768
13965TIP3    H241841   2.006   2.379   0.288  0.9439  0.6134 -2.2298
13966TIP3   OH241842   1.486   1.374   0.565  0.1014  0.2162 -0.9655
13966TIP3    H141843   1.433   1.301   0.597 -0.9228  1.3872  0.0534
13966TIP3    H241844   1.576   1.350   0.587 -0.5211  0.7956  2.4883
13967TIP3   OH241845   0.466   1.235   0.989  0.0448  0.2874  0.2296
13967TIP3    H141846   0.476   1.176   0.913 -1.5992  0.0317  0.1912
13967TIP3    H241847   0.496   1.320   0.957 -0.1273  0.0629 -0.5497
13968TIP3   OH241848   0.974   2.098   2.297  0.3541 -0.5217 -0.0310
13968TIP3    H141849   0.910   2.148   2.247  1.5106  0.3444 -0.6443
13968TIP3    H241850   0.923   2.025   2.333 -0.9587  0.0918 -0.5916
13969TIP3   OH241851   8.216   2.743   0.120 -0.3761  0.3914  0.0700
13969TIP3    H141852   8.173   2.663   0.090 -1.1693  0.9918 -0.4015
13969TIP3    H241853   8.181   2.757   0.208 -0.8190  0.6338 -0.1418
13970TIP3   OH241854   1.569   1.499   0.279  0.6460  0.2038  0.5733
13970TIP3    H141855   1.555   1.421   0.225 -0.2894  2.0571 -2.0111
13970TIP3    H241856   1.518   1.484   0.358  0.4182 -1.7508  0.0692
13971TIP3   OH241857   4.232   7.133   4.863 -0.1780  0.1663 -0.0637
13971TIP3    H141858   4.253   7.133   4.769 -1.3498  0.8834 -0.3312
13971TIP3    H241859   4.243   7.224   4.890  1.0974 -0.2067  0.7263
13972TIP3   OH241860   5.701   4.828   5.470 -0.2444 -0.5457 -0.0051
13972TIP3    H141861   5.792   4.840   5.440 -0.6354 -1.1423 -1.4667
13972TIP3    H241862   5.661   4.914   5.459 -0.0691 -0.4749 -0.0965
13973TIP3   OH241863   7.172   6.990   2.258 -0.2815 -0.0835  0.0931
13973TIP3    H141864   7.250   7.023   2.213 -0.6287  1.6132  0.7006
13973TIP3    H241865   7.100   7.039   2.219 -1.3139 -2.9427 -1.7860
13974TIP3   OH241866   7.582   0.267   0.552  0.4070  0.0205 -0.2850
13974TIP3    H141867   7.623   0.306   0.628  0.4467 -0.7852  0.1148
13974TIP3    H241868   7.488   0.274   0.569  0.4188 -0.4917  0.0216
13975TIP3   OH241869   3.577   7.932   1.816 -0.1530  0.1227 -0.4661
13975TIP3    H141870   3.665   7.928   1.780 -0.3981 -1.9622 -0.9039
13975TIP3    H241871   3.590   7.938   1.911  0.4560  0.2975 -0.5583
13976TIP3   OH241872   1.709   2.040   0.613  0.5822 -0.1468  0.1080
13976TIP3    H141873   1.668   2.060   0.697 -2.2009 -0.7633 -1.0611
13976TIP3    H241874   1.712   2.124   0.567 -1.8622 -0.5521 -0.8434
13977TIP3   OH241875   0.875   1.818   1.075  0.3249 -0.0105  0.1667
13977TIP3    H141876   0.909   1.852   1.157 -0.7412 -0.2997  0.7323
13977TIP3    H241877   0.919   1.733   1.064  1.0684  0.3896  0.0263
13978TIP3   OH241878   7.006   0.640   1.385  0.2581 -0.6498 -0.0590
13978TIP3    H141879   6.998   0.680   1.471  1.1150  0.1571 -0.3436
13978TIP3    H241880   6.938   0.573   1.383 -0.2195 -0.2028  0.9771
13979TIP3   OH241881   8.404   1.221   0.650 -0.1725 -0.0321 -0.1035
13979TIP3    H141882   8.365   1.303   0.619 -0.7872 -0.5232 -0.6474
13979TIP3    H241883   8.409   1.231   0.745 -0.1651  0.6729 -0.1790
13980TIP3   OH241884   0.556   1.176   3.031  0.0075 -0.1813  0.0617
13980TIP3    H141885   0.484   1.229   2.998 -1.2955 -0.7832  1.8444
13980TIP3    H241886   0.634   1.216   2.993 -1.2023  0.8916 -1.3700
13981TIP3   OH241887   4.080   6.753   5.604  0.4001  0.2519 -0.2704
13981TIP3    H141888   3.992   6.775   5.572 -0.3789 -0.1522  1.4870
13981TIP3    H241889   4.094   6.813   5.678  0.8794 -0.8253  0.5351
13982TIP3   OH241890   0.369   2.396   0.669  0.0461  0.0946 -0.3988
13982TIP3    H141891   0.395   2.469   0.725  0.0248 -0.5943  0.5149
13982TIP3    H241892   0.279   2.416   0.644 -0.0587  0.2469  0.0838
13983TIP3   OH241893   0.978   4.471   6.524  0.3842 -0.3104  0.2778
13983TIP3    H141894   0.908   4.406   6.520 -0.7760  0.9409 -0.1619
13983TIP3    H241895   1.042   4.442   6.459 -0.7382 -0.3186 -0.8438
13984TIP3   OH241896   8.400   3.973   1.919  0.1451  0.0547 -1.0664
13984TIP3    H141897   8.488   3.942   1.944 -0.1495  1.6683  2.2842
13984TIP3    H241898   8.350   3.969   2.001 -2.4837  0.5803 -2.6214
13985TIP3   OH241899   3.090   2.641   2.352  0.2275 -0.2655  0.1949
13985TIP3    H141900   3.087   2.734   2.330  0.7481 -0.2797  0.0473
13985TIP3    H241901   3.151   2.603   2.288  0.8140 -0.5211  0.9082
13986TIP3   OH241902   3.208   2.873   2.813  0.7472  0.1674 -0.3481
13986TIP3    H141903   3.296   2.895   2.844  0.5490  1.4288 -0.6325
13986TIP3    H241904   3.210   2.896   2.720  0.4423 -0.8181 -0.6022
13987TIP3   OH241905   3.198   1.028   1.820 -0.2208  0.0881 -0.6360
13987TIP3    H141906   3.252   0.998   1.893  0.3197  1.5516 -0.4218
13987TIP3    H241907   3.111   0.992   1.838  0.3174 -1.0274 -0.2007
13988TIP3   OH241908   8.155   7.633  -0.030  0.3346 -0.4391 -0.0690
13988TIP3    H141909   8.233   7.679   0.001 -1.2564  1.9124  0.5675
13988TIP3    H241910   8.143   7.562   0.033 -0.6180  1.9355  2.5188
13989TIP3   OH241911   7.108   7.641   1.666  0.0171  0.1022 -0.4339
13989TIP3    H141912   7.044   7.662   1.733 -0.0245 -2.1615  0.2704
13989TIP3    H241913   7.056   7.622   1.588 -0.2006 -2.0176  0.2150
13990TIP3   OH241914   1.034   0.798   0.466  0.1783  0.1216 -0.3107
13990TIP3    H141915   1.106   0.839   0.419 -0.1910  0.2929 -0.7309
13990TIP3    H241916   1.051   0.704   0.459 -0.3301  0.1008 -1.5424
13991TIP3   OH241917   4.348   4.732   6.402 -0.1154 -0.0759 -0.2212
13991TIP3    H141918   4.297   4.669   6.454 -2.0934  1.5704 -0.1482
13991TIP3    H241919   4.352   4.810   6.457  1.8298  0.0947 -0.5725
13992TIP3   OH241920   3.214   3.704   2.930  0.2390 -0.6351 -0.7568
13992TIP3    H141921   3.261   3.723   3.012 -0.1580  0.9271 -0.8842
13992TIP3    H241922   3.122   3.703   2.955  0.0332  1.1903 -1.4399
13993TIP3   OH241923   1.973   1.959   2.197 -0.6981 -0.5531  0.1406
13993TIP3    H141924   1.892   1.982   2.151 -0.4763 -0.0078  0.0172
13993TIP3    H241925   1.984   1.865   2.182 -2.4050 -1.0660  1.8770
13994TIP3   OH241926   7.074   4.977   5.836 -0.4276  0.3688  0.9686
13994TIP3    H141927   7.034   4.910   5.892  1.9172 -0.4452  1.7395
13994TIP3    H241928   7.064   5.058   5.885 -3.2571  0.6205  0.0482
13995TIP3   OH241929   5.939   4.352   5.935 -0.5650  0.0299 -0.3522
13995TIP3    H141930   5.897   4.267   5.949 -1.4179  0.3446 -1.0132
13995TIP3    H241931   5.961   4.382   6.023 -0.6419 -0.6845 -0.0850
13996TIP3   OH241932   7.237   7.475   2.023 -0.2546  0.5008 -0.1514
13996TIP3    H141933   7.282   7.498   1.941  0.1002 -0.0920 -0.1211
13996TIP3    H241934   7.292   7.408   2.063 -1.0747 -0.0894 -0.0173
13997TIP3   OH241935   2.252   1.520   0.144  0.5861  0.3948  0.1651
13997TIP3    H141936   2.280   1.444   0.195  0.7201  1.4222  1.6665
13997TIP3    H241937   2.212   1.483   0.066 -0.1450 -1.2349  1.2879
13998TIP3   OH241938   1.933   0.995   0.305 -0.5695  0.1878 -0.0479
13998TIP3    H141939   1.857   0.968   0.254 -0.5035  0.1279 -0.1147
13998TIP3    H241940   2.005   0.941   0.272 -0.5191  0.1730  0.0842
13999TIP3   OH241941   3.594   6.137   6.405  0.4379  0.1954 -0.2585
13999TIP3    H141942   3.529   6.069   6.422 -0.2911  1.3991  2.0373
13999TIP3    H241943   3.567   6.179   6.324 -0.0401 -1.1636 -0.8005
14000TIP3   OH241944   1.612   1.717   1.447  0.3172  0.1952 -0.1241
14000TIP3    H141945   1.596   1.638   1.499  0.5335  1.6138  2.1472
14000TIP3    H241946   1.689   1.697   1.395 -0.1244 -1.3874 -0.1938
14001TIP3   OH241947   7.484   7.846   1.152  0.0982  0.3782 -0.3971
14001TIP3    H141948   7.527   7.901   1.218 -3.0677  0.3883  1.7563
14001TIP3    H241949   7.426   7.905   1.105 -0.4687 -0.3761 -0.6565
14002TIP3   OH241950   4.475   0.507   0.875 -0.2601  0.5635 -0.3256
14002TIP3    H141951   4.551   0.475   0.828 -0.0992 -1.1317  1.0266
14002TIP3    H241952   4.506   0.586   0.920  0.9395 -0.5215  0.8103
14003TIP3   OH241953   2.424   3.418   3.828 -0.5325  0.3733  0.2987
14003TIP3    H141954   2.422   3.364   3.907 -0.3074  1.0954  0.7974
14003TIP3    H241955   2.489   3.486   3.846 -0.4608  0.5293 -0.5154
14004TIP3   OH241956   4.531   5.378   6.808  0.6530 -0.5550  0.0442
14004TIP3    H141957   4.602   5.423   6.762 -0.9626  0.6104 -1.3237
14004TIP3    H241958   4.573   5.344   6.887  2.0712  2.9869  0.9556
14005TIP3   OH241959   2.045   1.877   3.437  0.1646  0.2499  0.3414
14005TIP3    H141960   2.109   1.912   3.376 -1.0758  0.2806 -0.9551
14005TIP3    H241961   2.089   1.802   3.478  1.0317  0.2842 -0.5205
14006TIP3   OH241962   4.524   4.980   2.126 -0.1972  0.0808 -0.3865
14006TIP3    H141963   4.604   5.030   2.146  0.3395 -0.8850 -0.0621
14006TIP3    H241964   4.527   4.966   2.032 -1.5957  2.7366 -0.8609
14007TIP3   OH241965   6.416   7.920   0.278 -0.2949 -0.3401 -0.0449
14007TIP3    H141966   6.353   7.895   0.212 -2.0664 -0.3407  1.6013
14007TIP3    H241967   6.364   7.964   0.346  1.7726  1.6595  0.3086
14008TIP3   OH241968   0.469   1.772   0.329 -0.1342  0.4522 -0.0573
14008TIP3    H141969   0.475   1.677   0.339 -1.3485  0.4662  0.8406
14008TIP3    H241970   0.559   1.802   0.342  0.1959 -0.5423  0.0491
14009TIP3   OH241971   2.722   2.299   1.428  0.4798 -0.0541  1.0558
14009TIP3    H141972   2.630   2.301   1.402  0.4639  2.2438  1.2266
14009TIP3    H241973   2.766   2.251   1.357 -0.8092 -1.0701  0.9221
14010TIP3   OH241974   7.189   7.692   0.501  0.3024 -0.1214  0.0756
14010TIP3    H141975   7.266   7.640   0.479  0.6336 -0.1829  1.3451
14010TIP3    H241976   7.143   7.703   0.418  0.4331 -2.1154 -0.2819
14011TIP3   OH241977   2.182   0.623   0.662 -0.1301 -0.3362  0.5162
14011TIP3    H141978   2.269   0.583   0.653 -0.1431  0.1436 -2.2422
14011TIP3    H241979   2.178   0.652   0.753  2.7583 -0.0188  0.5896
14012TIP3   OH241980   7.004   7.977   0.183 -0.0577  0.0584  0.0478
14012TIP3    H141981   7.067   7.915   0.220 -0.5813 -0.5108 -0.0047
14012TIP3    H241982   7.047   8.011   0.105  0.5618  0.3631  0.5137
14013TIP3   OH241983   3.239   1.355   1.955 -0.1815 -0.1642 -0.0661
14013TIP3    H141984   3.314   1.364   1.896  0.5036  0.1432  0.8334
14013TIP3    H241985   3.179   1.297   1.909 -0.2202  1.0638 -1.6180
14014TIP3   OH241986   5.450   4.446   5.272  0.0590  0.3310 -0.0858
14014TIP3    H141987   5.510   4.408   5.208 -0.2664 -0.7008  0.2087
14014TIP3    H241988   5.505   4.499   5.329  0.6695 -0.4535  0.0574
14015TIP3   OH241989   3.115   1.727   1.080  0.1626 -0.1524 -0.2291
14015TIP3    H141990   3.022   1.705   1.067  0.0300 -0.1071  0.6682
14015TIP3    H241991   3.143   1.760   0.994 -1.2249  1.8993  0.0566
14016TIP3   OH241992   5.100   6.427   6.430 -0.4540 -0.1272  0.8524
14016TIP3    H141993   5.081   6.511   6.387 -1.6001 -0.8198 -0.0196
14016TIP3    H241994   5.057   6.434   6.515 -1.0566 -0.0425  0.5477
14017TIP3   OH241995   5.665   4.555   5.459  0.1716 -0.1198  0.2571
14017TIP3    H141996   5.670   4.523   5.549 -1.7101 -0.6628  0.1893
14017TIP3    H241997   5.692   4.647   5.465  3.2198 -1.0011  0.8324
14018TIP3   OH241998   4.854   2.269   1.484  0.1758  0.1919 -0.1125
14018TIP3    H141999   4.792   2.275   1.411  1.7271  0.2692 -1.4546
14018TIP3    H242000   4.827   2.191   1.532 -0.0690 -0.6489 -1.5622
14019TIP3   OH242001   4.238   5.210   6.386 -0.0478  0.6982  0.4915
14019TIP3    H142002   4.189   5.232   6.465 -0.3247  0.7284  0.3093
14019TIP3    H242003   4.245   5.114   6.389  1.8882  0.8539  1.7163
14020TIP3   OH242004   1.984   2.277   0.550  0.9154  0.0683  0.1384
14020TIP3    H142005   2.058   2.217   0.541  1.6910  0.7425  1.7713
14020TIP3    H242006   2.017   2.361   0.517  0.7253  0.2495  0.4005
14021TIP3   OH242007   3.910   2.346   1.922 -0.7288  0.2263 -0.7966
14021TIP3    H142008   3.974   2.337   1.851 -0.6137 -0.0605 -0.6575
14021TIP3    H242009   3.880   2.256   1.938  1.4279 -0.1457  1.5221
14022TIP3   OH242010   1.131   2.158   3.527  0.4446 -0.5910  0.5204
14022TIP3    H142011   1.131   2.131   3.619 -1.2704  1.2209  1.0923
14022TIP3    H242012   1.224   2.169   3.506  0.8219 -0.1614  2.2964
14023TIP3   OH242013   3.589   2.689   2.581 -0.0946 -0.0663  0.0466
14023TIP3    H142014   3.520   2.753   2.595 -1.0758 -1.2966  1.0038
14023TIP3    H242015   3.565   2.645   2.499  0.8129  1.0570 -0.8425
14024TIP3   OH242016   1.167   0.948   0.707 -0.5769  0.2858  0.2728
14024TIP3    H142017   1.235   0.903   0.656 -2.1061 -4.4180  2.1057
14024TIP3    H242018   1.106   0.982   0.642  1.3143  0.8645 -1.2330
14025TIP3   OH242019   0.499   2.712   0.037  0.4715 -0.2239  0.2491
14025TIP3    H142020   0.583   2.668   0.047 -0.1534 -1.3159  0.8620
14025TIP3    H242021   0.445   2.649  -0.012  0.1612  0.6572 -0.5434
14026TIP3   OH242022   8.231   3.730   1.391 -0.0485  0.7354 -0.5841
14026TIP3    H142023   8.157   3.708   1.448  1.8304  1.7314  2.3471
14026TIP3    H242024   8.274   3.645   1.375 -0.3137  0.5177 -0.1453
14027TIP3   OH242025   2.728   3.067   2.195  0.3004 -0.3374  0.0498
14027TIP3    H142026   2.787   3.100   2.263  2.4804 -0.3402 -1.7433
14027TIP3    H242027   2.784   3.010   2.141 -0.8793  1.0430 -2.7229
14028TIP3   OH242028   7.957   1.795   5.515 -0.3089 -0.2023 -0.3833
14028TIP3    H142029   7.954   1.722   5.454 -0.0383  0.4811 -1.2130
14028TIP3    H242030   7.961   1.753   5.602  0.3374 -1.1638 -0.8696
14029TIP3   OH242031   1.505   1.290   1.236  0.2108  0.4838  0.2459
14029TIP3    H142032   1.530   1.301   1.327  0.6534 -0.2915  0.2180
14029TIP3    H242033   1.584   1.313   1.186  0.9101 -1.9673  0.1607
14030TIP3   OH242034   2.841   2.804   2.047 -0.2634 -0.3024  0.8734
14030TIP3    H142035   2.760   2.813   1.997  0.0632 -0.4568  0.3039
14030TIP3    H242036   2.910   2.821   1.982  0.1567 -0.2098  1.3455
14031TIP3   OH242037   2.083   1.854   2.534  0.3961  0.4816 -0.3004
14031TIP3    H142038   2.046   1.888   2.616  1.3350  1.4452 -0.2702
14031TIP3    H242039   2.019   1.789   2.504  0.1433 -0.0406  1.3105
14032TIP3   OH242040   5.334   5.391   6.180  0.0725  0.0820  0.0008
14032TIP3    H142041   5.380   5.474   6.173 -0.3910  0.4229  0.8255
14032TIP3    H242042   5.395   5.333   6.225  1.0587 -0.5573 -2.1136
14033TIP3   OH242043   1.972   1.426   1.378 -0.5117  0.0783 -0.0585
14033TIP3    H142044   2.049   1.375   1.354 -0.7943 -0.0453 -0.7175
14033TIP3    H242045   1.902   1.361   1.385 -0.0263 -0.1658  3.0503
14034TIP3   OH242046   5.043   5.991   6.169 -0.0421  0.3315  0.1093
14034TIP3    H142047   5.089   5.924   6.119 -0.6420  0.7369 -0.9967
14034TIP3    H242048   5.032   5.952   6.256  2.9054  0.4701  0.6038
14035TIP3   OH242049   1.682   2.430   1.166 -0.1051 -0.3922 -0.1352
14035TIP3    H142050   1.684   2.525   1.176  1.9949 -0.4991  0.7735
14035TIP3    H242051   1.643   2.415   1.080 -0.5699  1.2742 -0.2248
14036TIP3   OH242052   5.597   3.349   2.138 -0.3412  0.2938 -0.1270
14036TIP3    H142053   5.649   3.411   2.087 -1.8421  1.8473  0.1697
14036TIP3    H242054   5.512   3.348   2.095 -0.1489 -2.0627 -0.4907
14037TIP3   OH242055   4.158   1.823   0.373  0.1491  0.1822 -0.0805
14037TIP3    H142056   4.174   1.733   0.401  0.2156  0.1405 -0.2527
14037TIP3    H242057   4.092   1.815   0.304  1.9895  0.0511 -1.8491
14038TIP3   OH242058   2.143   2.250   2.382  0.4261  0.5315 -0.6367
14038TIP3    H142059   2.147   2.214   2.470  0.4089  0.8843 -0.4900
14038TIP3    H242060   2.205   2.322   2.382  1.7538 -0.5807 -1.4402
14039TIP3   OH242061   8.405   0.598   1.309  0.4284 -0.4990  0.0626
14039TIP3    H142062   8.342   0.609   1.237  0.8706  0.2969 -0.1987
14039TIP3    H242063   8.432   0.687   1.331  2.5764 -0.9080 -0.8006
14040TIP3   OH242064   3.459   3.895   6.014 -0.0792 -0.0475 -0.5493
14040TIP3    H142065   3.487   3.977   5.975 -0.4256  0.6652  0.6875
14040TIP3    H242066   3.437   3.917   6.104 -3.0225 -0.9097 -0.9997
14041TIP3   OH242067   2.167   0.052   1.528 -0.4267  0.2875 -0.0778
14041TIP3    H142068   2.236   0.101   1.572  0.0092  0.4535 -0.9416
14041TIP3    H242069   2.170  -0.035   1.568 -1.0834  0.9145  1.3283
14042TIP3   OH242070   1.837   1.104   1.162  0.1718  0.0063  0.4498
14042TIP3    H142071   1.773   1.034   1.174 -2.5344  2.3598  0.2485
14042TIP3    H242072   1.834   1.154   1.244 -0.3486  1.7610 -0.6098
14043TIP3   OH242073   4.731   6.731   6.553 -0.6998  0.0672 -0.7765
14043TIP3    H142074   4.688   6.654   6.590  1.4421 -1.3656 -1.1352
14043TIP3    H242075   4.723   6.798   6.621 -1.3975 -0.9094  0.1183
14044TIP3   OH242076   5.465   3.661   6.120  0.2928  0.0043 -0.3055
14044TIP3    H142077   5.373   3.653   6.146  0.4027  1.4773  0.5688
14044TIP3    H242078   5.471   3.747   6.079  1.5133  0.3605  0.5967
14045TIP3   OH242079   1.152   3.102   4.035 -0.1284 -0.1922  0.4165
14045TIP3    H142080   1.218   3.096   3.967  1.8348  2.3013  1.9838
14045TIP3    H242081   1.146   3.014   4.071  0.7971 -0.9121 -1.1612
14046TIP3   OH242082   1.766   0.491   2.018 -0.0679  0.3043 -0.4513
14046TIP3    H142083   1.743   0.402   1.990  1.4967 -1.0566  2.4182
14046TIP3    H242084   1.832   0.520   1.954 -0.3403 -0.7129 -1.2018
14047TIP3   OH242085   6.206   6.652   5.573  0.0564 -0.6231  0.2313
14047TIP3    H142086   6.165   6.738   5.570  0.5115 -0.4892 -3.8696
14047TIP3    H242087   6.269   6.659   5.645 -1.3620  1.7270  1.3375
14048TIP3   OH242088   1.118   2.492   2.431 -0.3387  0.2580  0.6421
14048TIP3    H142089   1.034   2.520   2.394 -0.3778  0.1341  0.6385
14048TIP3    H242090   1.124   2.539   2.514 -0.1925  0.6377  0.4206
14049TIP3   OH242091   2.761   0.379   1.515  0.0588 -0.2295 -0.0697
14049TIP3    H142092   2.772   0.398   1.422 -1.9937  2.4816  0.1790
14049TIP3    H242093   2.668   0.394   1.532  0.7505  1.1325  2.7816
14050TIP3   OH242094   1.391   0.045   2.612 -0.1959  0.1413  0.2150
14050TIP3    H142095   1.422  -0.026   2.555 -0.2317 -0.0445  0.4287
14050TIP3    H242096   1.309   0.013   2.649 -0.7842  0.7359 -0.5474
14051TIP3   OH242097   5.884   4.698   6.875  0.1485 -0.3237 -1.0753
14051TIP3    H142098   5.931   4.772   6.835  0.4896 -0.2602 -0.5699
14051TIP3    H242099   5.792   4.718   6.862  0.2137  0.6724 -0.1168
14052TIP3   OH242100   3.751   3.879   6.615 -0.1139  0.3645 -0.5092
14052TIP3    H142101   3.661   3.901   6.637 -0.3534  0.0934 -1.2225
14052TIP3    H242102   3.804   3.929   6.677 -0.7448  0.8637 -0.3769
14053TIP3   OH242103   6.995   6.577   1.621 -0.3447  0.9138  0.2041
14053TIP3    H142104   7.015   6.669   1.638  0.4706  0.5920  1.0212
14053TIP3    H242105   6.970   6.541   1.706  1.0948 -0.0498  0.2526
14054TIP3   OH242106   3.355   1.803   1.715  0.4656  0.8307  0.1003
14054TIP3    H142107   3.297   1.761   1.779  1.1061  1.4986  1.1218
14054TIP3    H242108   3.352   1.745   1.639 -0.4494  0.1292  0.6591
14055TIP3   OH242109   0.754   0.252   2.688  0.4353  0.0160 -0.2351
14055TIP3    H142110   0.768   0.346   2.696 -0.0236  0.0892 -0.2391
14055TIP3    H242111   0.816   0.212   2.750 -1.4791  0.4690  2.0571
14056TIP3   OH242112   3.848   6.086   6.328 -0.1180 -0.0257 -0.0769
14056TIP3    H142113   3.769   6.124   6.366 -0.5209 -0.6716 -0.2562
14056TIP3    H242114   3.866   6.009   6.383  0.1788 -0.0915 -0.2621
14057TIP3   OH242115   7.360   7.578   1.799  0.6347 -0.0756 -0.0806
14057TIP3    H142116   7.289   7.624   1.753  2.0426  2.2614 -0.0028
14057TIP3    H242117   7.382   7.505   1.742 -0.3139  0.4948 -1.2016
14058TIP3   OH242118   1.894   2.881   1.223  0.3059  0.0351 -0.2798
14058TIP3    H142119   1.859   2.942   1.158  0.5664 -0.0911 -0.5404
14058TIP3    H242120   1.874   2.921   1.307 -0.5193 -0.0561 -0.4218
14059TIP3   OH242121   0.210   6.994   0.405 -0.3216 -0.0259 -0.3159
14059TIP3    H142122   0.125   7.032   0.382 -1.1122  0.4594  3.1701
14059TIP3    H242123   0.271   7.068   0.402  0.1148 -0.4251 -3.0944
14060TIP3   OH242124   3.028   2.073   1.469 -0.1213  0.1380 -0.2617
14060TIP3    H142125   3.005   1.983   1.494  1.7704 -0.4413 -0.5781
14060TIP3    H242126   2.988   2.128   1.537  0.1115 -1.0418  0.8365
14061TIP3   OH242127   5.153   4.190   6.572 -0.8068 -0.5641  0.0241
14061TIP3    H142128   5.058   4.184   6.581 -0.9746  0.2799 -1.0501
14061TIP3    H242129   5.176   4.274   6.611 -0.3660 -1.2468  1.2427
14062TIP3   OH242130   2.828   1.551   2.737  0.0240  0.3311 -0.3477
14062TIP3    H142131   2.887   1.543   2.662 -0.5912  1.7959 -1.0006
14062TIP3    H242132   2.766   1.479   2.727  0.8657 -0.3975 -0.3960
14063TIP3   OH242133   6.693   5.392   4.558 -0.4359 -0.3099  0.9809
14063TIP3    H142134   6.756   5.429   4.618  1.1760 -1.5123  0.0674
14063TIP3    H242135   6.673   5.306   4.595  2.6259 -2.2075 -1.5410
14064TIP3   OH242136   4.719   2.266   1.228  0.4273  0.1085  0.1010
14064TIP3    H142137   4.783   2.196   1.216 -0.1128 -0.2501 -0.7597
14064TIP3    H242138   4.635   2.227   1.203 -0.0474  0.7324  0.6948
14065TIP3   OH242139   0.763   0.318   0.224  0.0368 -0.1016  0.2039
14065TIP3    H142140   0.676   0.316   0.184  0.1854  0.5522 -0.1631
14065TIP3    H242141   0.750   0.285   0.313 -0.6794  0.5092  0.3302
14066TIP3   OH242142   2.212   2.787   2.958  0.0215  0.4039  0.3810
14066TIP3    H142143   2.212   2.874   2.998  0.5061  1.4032 -1.6757
14066TIP3    H242144   2.304   2.764   2.949 -0.0281  0.6604 -1.0286
14067TIP3   OH242145   5.748   4.789   4.467  0.5930  0.0237 -0.4240
14067TIP3    H142146   5.724   4.714   4.520  1.8595  0.1376  0.3530
14067TIP3    H242147   5.687   4.788   4.394 -0.1043 -1.1131  0.1563
14068TIP3   OH242148   4.520   1.528   0.552 -0.2933  0.0069 -0.8804
14068TIP3    H142149   4.565   1.579   0.619 -0.4578 -0.2116 -0.5993
14068TIP3    H242150   4.570   1.446   0.547  0.3047  0.4217 -1.7328
14069TIP3   OH242151   2.443   1.848   0.201  0.0208  0.6234 -0.3534
14069TIP3    H142152   2.481   1.773   0.246 -0.3748  0.7395  0.1757
14069TIP3    H242153   2.384   1.809   0.136  0.1541  0.4697 -0.3834
14070TIP3   OH242154   2.902   0.620   0.935  0.6967  0.5063 -0.1060
14070TIP3    H142155   2.902   0.675   1.013  0.1581  1.0029 -0.4531
14070TIP3    H242156   2.953   0.543   0.960  1.9421  1.4171  0.2082
14071TIP3   OH242157   8.456   2.467   1.851 -0.0805  0.2991 -0.0125
14071TIP3    H142158   8.486   2.556   1.863 -0.8733  0.9804 -2.8199
14071TIP3    H242159   8.528   2.412   1.881  0.7587  1.8633  0.8565
14072TIP3   OH242160   3.787   4.770   1.640  0.3092 -0.5285  0.3320
14072TIP3    H142161   3.814   4.694   1.588 -0.3379 -1.0752  0.7845
14072TIP3    H242162   3.862   4.828   1.638  0.4166 -0.6902 -0.9525
14073TIP3   OH242163   4.679   5.006   6.797  0.1142  0.0152 -0.5301
14073TIP3    H142164   4.677   4.965   6.884 -2.5776  0.1171 -0.4962
14073TIP3    H242165   4.604   4.968   6.751  1.0716  0.5138 -2.5714
14074TIP3   OH242166   4.815   4.527   6.342  0.1323  0.4312 -0.0709
14074TIP3    H142167   4.781   4.452   6.294  2.0174 -0.8187  0.4604
14074TIP3    H242168   4.738   4.570   6.379 -0.9338 -1.6703  0.2212
14075TIP3   OH242169   1.476   1.854   2.232 -0.1273  0.4819 -0.1102
14075TIP3    H142170   1.477   1.865   2.137  0.1404  1.4833  0.0028
14075TIP3    H242171   1.387   1.875   2.257  0.3786  2.4869  0.1031
14076TIP3   OH242172   3.123   4.794   5.063 -0.3539 -0.4149 -0.1633
14076TIP3    H142173   3.084   4.707   5.064  0.8423 -0.9581  2.1427
14076TIP3    H242174   3.094   4.834   5.144  2.3510 -0.1669  0.7270
14077TIP3   OH242175   7.460   7.510   0.145  0.5643 -0.1250 -0.5129
14077TIP3    H142176   7.422   7.558   0.072 -0.8868 -0.8934 -0.2791
14077TIP3    H242177   7.424   7.552   0.223 -0.6792 -1.5335 -0.3054
14078TIP3   OH242178   1.101   0.804   2.966  0.3844  0.5837 -0.2010
14078TIP3    H142179   1.048   0.725   2.976  0.1386  0.8572  0.7113
14078TIP3    H242180   1.037   0.875   2.957  0.5833  0.8591  0.4710
14079TIP3   OH242181   6.468   4.938   6.371  0.3246  0.0306  0.4441
14079TIP3    H142182   6.392   4.980   6.330  0.0651 -0.0884  0.8003
14079TIP3    H242183   6.435   4.907   6.456  1.3903  2.1741  1.6993
14080TIP3   OH242184   1.217   3.818   0.736  0.1644  0.5729 -0.0738
14080TIP3    H142185   1.309   3.798   0.723  0.1004  0.9105 -1.0915
14080TIP3    H242186   1.179   3.736   0.769  0.4924 -0.0865 -1.2961
14081TIP3   OH242187   5.980   3.810   6.605  0.5014 -0.0752 -0.4255
14081TIP3    H142188   5.910   3.786   6.544  0.1153 -1.0012  0.3670
14081TIP3    H242189   6.043   3.739   6.599  0.1781 -0.4575  0.6882
14082TIP3   OH242190   3.749   1.566   2.276  0.3681  0.1618  0.9595
14082TIP3    H142191   3.679   1.559   2.341 -0.0446 -2.1321  0.3009
14082TIP3    H242192   3.798   1.485   2.284 -0.9122 -1.1340 -2.9326
14083TIP3   OH242193   6.190   5.003   5.336 -0.4936  0.3833  0.5500
14083TIP3    H142194   6.135   5.040   5.267  0.5772  1.7779  0.4226
14083TIP3    H242195   6.138   5.013   5.416 -1.0406  0.3347  0.2004
14084TIP3   OH242196   5.287   5.728   6.363  0.3315 -0.2158  0.1620
14084TIP3    H142197   5.258   5.639   6.384  1.7931 -0.7242  0.0230
14084TIP3    H242198   5.274   5.736   6.268 -0.4297 -0.0358  0.2735
14085TIP3   OH242199   6.109   5.162   5.793 -1.0738  0.6814 -0.1820
14085TIP3    H142200   6.045   5.214   5.843 -1.7688  0.7717 -1.1535
14085TIP3    H242201   6.182   5.222   5.778 -0.8615  0.6553  0.7238
14086TIP3   OH242202   1.391   1.504   3.544  0.5237 -0.2472 -0.6647
14086TIP3    H142203   1.369   1.438   3.609 -1.9790  0.9014 -0.2987
14086TIP3    H242204   1.479   1.532   3.567  0.2059 -0.8799  1.3666
14087TIP3   OH242205   6.188   5.609   5.645  0.1359 -0.3475 -0.4090
14087TIP3    H142206   6.102   5.576   5.617 -0.2078 -0.2317  0.4783
14087TIP3    H242207   6.210   5.676   5.581 -1.3268  0.9646  0.4059
14088TIP3   OH242208   1.834   2.664   0.927  0.6218  0.1368 -0.2291
14088TIP3    H142209   1.831   2.602   1.000  0.2450  0.9340  0.4490
14088TIP3    H242210   1.908   2.720   0.947 -1.1594  2.1291  1.0348
14089TIP3   OH242211   4.130   5.054   5.429 -0.4724 -0.2366 -0.0512
14089TIP3    H142212   4.157   5.057   5.521 -1.1139  1.0558  0.1158
14089TIP3    H242213   4.212   5.052   5.380 -0.1263 -1.8694  0.5600
14090TIP3   OH242214   5.370   4.211   6.054 -0.1720  0.6766  0.0592
14090TIP3    H142215   5.336   4.122   6.062 -0.7303  0.8326 -0.5810
14090TIP3    H242216   5.357   4.250   6.140 -0.3670  0.2962  0.2000
14091TIP3   OH242217   4.129   5.161   4.973 -0.3012 -0.0476 -0.7122
14091TIP3    H142218   4.063   5.097   5.001  0.9313 -1.0194 -0.0131
14091TIP3    H242219   4.087   5.246   4.987 -1.7670 -0.6698 -1.1947
14092TIP3   OH242220   1.254   0.345   1.732 -0.6686 -0.4973 -1.1560
14092TIP3    H142221   1.176   0.353   1.788  1.5725  2.6030  1.6835
14092TIP3    H242222   1.297   0.265   1.763 -0.5818  0.0256  0.1003
14093TIP3   OH242223   1.330   0.231   0.657  0.3124  0.0259 -0.4566
14093TIP3    H142224   1.330   0.319   0.695 -1.1238  0.5408 -1.6044
14093TIP3    H242225   1.366   0.243   0.569  1.7782 -0.8394  0.0056
14094TIP3   OH242226   1.360   0.477   0.783  0.4372 -0.4047 -0.2819
14094TIP3    H142227   1.400   0.437   0.861 -0.1027 -0.1247  0.1417
14094TIP3    H242228   1.305   0.546   0.818  0.4999 -0.0189 -0.9481
14095TIP3   OH242229   1.455   0.737   1.922 -0.0533  0.2622  0.4976
14095TIP3    H142230   1.517   0.753   1.993  2.5091 -1.3102 -1.2890
14095TIP3    H242231   1.486   0.792   1.850 -1.8460  0.8356  0.1329
14096TIP3   OH242232   4.249   1.767   1.419  0.3602  0.1062 -0.7085
14096TIP3    H142233   4.164   1.757   1.375  0.3400  1.9824 -1.1225
14096TIP3    H242234   4.271   1.679   1.449 -3.4146  0.0748  2.4565
14097TIP3   OH242235   2.129   0.081   1.050 -0.1778  0.0134  0.0513
14097TIP3    H142236   2.109   0.171   1.025 -0.0631 -0.0981 -0.4546
14097TIP3    H242237   2.067   0.027   1.001 -0.1701 -0.1903  0.2616
14098TIP3   OH242238   1.839   1.048   1.629  0.4441 -0.2426 -0.3091
14098TIP3    H142239   1.787   0.985   1.680  1.0676 -0.0941  0.5122
14098TIP3    H242240   1.847   1.124   1.686 -0.6557  0.7593 -1.4617
14099TIP3   OH242241   8.227   1.653   1.225  0.0313  0.0208  0.2990
14099TIP3    H142242   8.240   1.601   1.145  2.5417  0.3097  0.4664
14099TIP3    H242243   8.241   1.590   1.296 -1.3996 -0.0546  0.5288
14100TIP3   OH242244   2.383   3.518   1.662 -0.5968 -0.3753  0.6088
14100TIP3    H142245   2.288   3.508   1.670 -0.7486 -0.6594 -1.2393
14100TIP3    H242246   2.403   3.484   1.575  1.0362  0.8726  0.4780
14101TIP3   OH242247   5.675   6.120   5.373  0.4285 -0.6768 -0.4347
14101TIP3    H142248   5.695   6.214   5.368  1.7266 -0.7797  1.8948
14101TIP3    H242249   5.589   6.116   5.415  1.3058 -0.5572  1.4207
14102TIP3   OH242250   4.435   6.136   6.489  0.6398  0.1028 -0.1268
14102TIP3    H142251   4.523   6.113   6.459  0.9689  2.6553 -1.2691
14102TIP3    H242252   4.391   6.052   6.501  2.8193 -1.1787 -0.8085
14103TIP3   OH242253   1.115   1.305   0.036  1.0896  0.7092 -0.6194
14103TIP3    H142254   1.165   1.361  -0.024 -0.9260  1.0776 -2.0277
14103TIP3    H242255   1.044   1.362   0.068 -0.6148 -0.8263 -1.5899
14104TIP3   OH242256   4.472   2.068   1.715  0.0648  0.1869 -0.2091
14104TIP3    H142257   4.480   2.067   1.619 -0.1465  0.0241 -0.2237
14104TIP3    H242258   4.562   2.076   1.746  0.1683 -0.1841 -0.4140
14105TIP3   OH242259   7.673   7.990   1.311 -0.2019  0.4628 -0.3620
14105TIP3    H142260   7.723   8.047   1.252 -1.8525  2.4414  0.0702
14105TIP3    H242261   7.717   7.998   1.396  0.2201  0.2298 -0.5593
14106TIP3   OH242262   8.155   6.672   0.543 -0.9115 -0.1348  0.1031
14106TIP3    H142263   8.116   6.590   0.512 -3.9831  1.1422  0.3874
14106TIP3    H242264   8.115   6.687   0.628  1.2557  0.5827  1.0108
14107TIP3   OH242265   5.723   6.201   6.010 -0.5457  0.3785 -0.2038
14107TIP3    H142266   5.713   6.207   5.915 -1.5823 -1.4893 -0.2292
14107TIP3    H242267   5.700   6.288   6.042 -0.1612  1.0355 -1.6506
14108TIP3   OH242268   1.620   0.910   1.177  0.1509  0.2707 -0.2605
14108TIP3    H142269   1.535   0.914   1.222  0.9830  1.7236  1.2485
14108TIP3    H242270   1.674   0.857   1.235  0.2192 -0.8150 -1.3211
14109TIP3   OH242271   0.605   3.979   3.748  0.5335  0.2117  0.2809
14109TIP3    H142272   0.525   4.025   3.773  0.7929 -0.2998  2.1099
14109TIP3    H242273   0.623   4.009   3.658 -0.5950  1.8662  0.5839
14110TIP3   OH242274   3.696   4.453   6.055 -0.6240  0.1893 -0.1939
14110TIP3    H142275   3.741   4.476   5.974 -0.1204  1.7546  0.5352
14110TIP3    H242276   3.609   4.493   6.046  0.0565  1.9140  0.8236
14111TIP3   OH242277   1.265   0.532   0.239 -0.2867  0.3051  0.1639
14111TIP3    H142278   1.174   0.528   0.270 -0.0486  1.2421  1.0466
14111TIP3    H242279   1.276   0.454   0.185 -1.6477  0.2367 -0.0354
14112TIP3   OH242280   2.362   0.017   0.885 -0.1812 -0.1531 -0.0728
14112TIP3    H142281   2.290   0.015   0.948 -0.8165 -1.6347 -0.8103
14112TIP3    H242282   2.345   0.094   0.831 -0.2349  0.4992  0.8717
14113TIP3   OH242283   5.266   5.873   5.006  0.1486  0.1764  0.4006
14113TIP3    H142284   5.329   5.884   4.934 -1.1478  3.5963 -0.3336
14113TIP3    H242285   5.319   5.880   5.085  0.8244  2.6966 -0.2170
14114TIP3   OH242286   2.741   3.867   0.144 -0.4391 -0.3595 -0.2408
14114TIP3    H142287   2.770   3.810   0.072  0.8484 -0.8271  0.6367
14114TIP3    H242288   2.739   3.955   0.105 -2.4023 -0.9416 -1.5930
14115TIP3   OH242289   0.823   4.190   0.286  0.8286 -0.1836 -0.0805
14115TIP3    H142290   0.846   4.274   0.325  2.9135 -0.5228 -0.5271
14115TIP3    H242291   0.824   4.206   0.192 -1.1475 -0.1381 -0.1218
14116TIP3   OH242292   1.996   1.958   0.425  0.3003  0.2606 -0.0307
14116TIP3    H142293   1.948   1.995   0.499  0.3935 -1.2071  0.7820
14116TIP3    H242294   1.929   1.916   0.371 -0.1111  3.4590 -2.1360
14117TIP3   OH242295   3.459   1.659   1.510 -0.2216  0.1866 -0.1363
14117TIP3    H142296   3.497   1.587   1.459  0.9017 -1.3285  2.7145
14117TIP3    H242297   3.524   1.729   1.507 -0.1629  0.0992 -0.7809
14118TIP3   OH242298   4.663   4.555   6.727 -0.5842  0.3514 -0.4699
14118TIP3    H142299   4.759   4.553   6.729 -0.5784  1.1609  0.9664
14118TIP3    H242300   4.639   4.489   6.662  0.9190 -1.0165  0.3221
14119TIP3   OH242301   2.493   2.631   1.180 -0.1888  0.0878  0.2269
14119TIP3    H142302   2.483   2.624   1.085 -2.4451  0.5946  0.3982
14119TIP3    H242303   2.579   2.594   1.198  0.5343  0.5905 -2.0829
14120TIP3   OH242304   2.595   2.775   1.620  0.0802 -0.0363  0.0337
14120TIP3    H142305   2.656   2.771   1.546  2.0313  1.4597  1.4964
14120TIP3    H242306   2.510   2.790   1.580  0.8337 -1.0441 -2.0145
14121TIP3   OH242307   0.135   7.278   0.737 -0.2464  0.2031  0.6148
14121TIP3    H142308   0.112   7.356   0.686  1.2154  2.1710  2.8811
14121TIP3    H242309   0.106   7.205   0.682 -1.2322  2.2996 -1.7828
14122TIP3   OH242310   2.197   1.775   1.599  0.0607  0.2407  0.9364
14122TIP3    H142311   2.137   1.835   1.556 -0.1896  0.9055  2.1840
14122TIP3    H242312   2.269   1.830   1.630  1.8894 -0.6969 -1.4959
14123TIP3   OH242313   4.533   0.368   1.524  0.2910  0.5621  0.2109
14123TIP3    H142314   4.570   0.312   1.591  1.2844 -0.0620 -0.8375
14123TIP3    H242315   4.478   0.310   1.472  0.0618  0.8933  0.0794
14124TIP3   OH242316   4.649   2.005   0.971 -0.3355  0.1564  0.1876
14124TIP3    H142317   4.697   2.075   0.926 -0.9998  0.9678  0.7235
14124TIP3    H242318   4.577   2.050   1.015 -0.5067 -0.8124  0.9128
14125TIP3   OH242319   5.728   7.684   1.316  0.1754 -0.3919 -0.2714
14125TIP3    H142320   5.682   7.719   1.392 -0.1422  1.3219 -1.2324
14125TIP3    H242321   5.661   7.638   1.267 -0.2096  0.7977 -0.8826
14126TIP3   OH242322   5.892   5.511   6.874  0.0683  1.0077 -0.1773
14126TIP3    H142323   5.857   5.595   6.844 -0.1173  0.8150 -0.5198
14126TIP3    H242324   5.834   5.446   6.833 -0.6904  0.7507  1.2648
14127TIP3   OH242325   7.284   7.696   3.155 -0.0148 -1.1189 -0.1255
14127TIP3    H142326   7.303   7.789   3.151 -0.0328 -1.1077  0.0466
14127TIP3    H242327   7.213   7.683   3.091 -0.4531 -0.9069  0.3143
14128TIP3   OH242328   4.036   5.220   5.800  0.6041  0.2737 -0.4819
14128TIP3    H142329   3.955   5.172   5.784 -0.0276  1.3721 -0.6245
14128TIP3    H242330   4.044   5.224   5.895 -0.0583  1.0503 -0.4513
14129TIP3   OH242331   0.342   0.111   3.024 -0.0957  0.2998 -0.3438
14129TIP3    H142332   0.278   0.066   2.970  1.2972  1.5231 -3.1492
14129TIP3    H242333   0.414   0.132   2.963  2.1831  0.4876  2.3013
14130TIP3   OH242334   3.659   6.098   6.662  0.4970 -0.1550 -0.3137
14130TIP3    H142335   3.632   6.090   6.570  1.8408 -0.2686 -0.7125
14130TIP3    H242336   3.607   6.171   6.696  2.0182  1.7280 -1.9431
14131TIP3   OH242337   1.084   1.201   1.667  0.2084 -0.7503  0.3022
14131TIP3    H142338   1.071   1.186   1.761 -1.5837 -0.3808  0.1305
14131TIP3    H242339   1.009   1.159   1.625 -0.1059  0.8647 -0.8072
14132TIP3   OH242340   2.666   1.299   1.113 -0.1372 -0.6541  0.1946
14132TIP3    H142341   2.710   1.354   1.178  2.0964  0.7327 -2.3639
14132TIP3    H242342   2.580   1.338   1.103  0.8749  1.4935 -0.4326
14133TIP3   OH242343   1.531   0.945   0.201  0.4927  0.0432  0.0280
14133TIP3    H142344   1.530   0.989   0.285  0.8127  1.3358 -0.6294
14133TIP3    H242345   1.566   0.858   0.219 -0.3287 -0.0214  1.3745
14134TIP3   OH242346   4.852   0.882   1.369  0.2887 -0.2229  0.3698
14134TIP3    H142347   4.927   0.821   1.365 -0.2007 -0.7977 -0.2050
14134TIP3    H242348   4.859   0.923   1.454  1.3899 -0.1256  0.2409
14135TIP3   OH242349   1.427   2.688   0.599  0.0336  0.3301  0.2413
14135TIP3    H142350   1.455   2.652   0.516  1.0856  0.3749  0.5691
14135TIP3    H242351   1.395   2.776   0.578  0.5900  0.4571 -0.0636
14136TIP3   OH242352   2.462   2.414   0.307 -0.0487  0.1561  0.0863
14136TIP3    H142353   2.407   2.343   0.274 -0.0377  1.2163 -2.3291
14136TIP3    H242354   2.537   2.415   0.246  0.4866  1.5188  0.7674
14137TIP3   OH242355   5.173   4.808   6.832 -0.5923  0.3811  0.3028
14137TIP3    H142356   5.083   4.786   6.812 -0.7441  0.2786  1.0939
14137TIP3    H242357   5.197   4.752   6.906 -0.2795  1.2677  0.8944
14138TIP3   OH242358   2.531   2.827   2.399 -0.1363  0.1711  0.2377
14138TIP3    H142359   2.624   2.821   2.421 -0.1057 -0.5136 -0.0764
14138TIP3    H242360   2.530   2.844   2.305 -0.3602 -1.4383 -0.0573
14139TIP3   OH242361   5.829   1.209   0.321 -0.3187 -0.2206  0.0042
14139TIP3    H142362   5.856   1.159   0.398 -0.3782 -0.0948  0.1070
14139TIP3    H242363   5.772   1.149   0.272  0.3511 -0.5798 -0.3506
14140TIP3   OH242364   3.067   1.358   0.504 -0.5923 -0.1188 -0.0396
14140TIP3    H142365   3.080   1.265   0.489 -0.3511 -0.1882  0.6016
14140TIP3    H242366   3.120   1.401   0.436  1.3057 -0.4224  1.2006
14141TIP3   OH242367   7.432   2.766   5.793 -0.0773 -0.2654  0.2258
14141TIP3    H142368   7.474   2.752   5.877  0.5255 -1.3628 -0.2570
14141TIP3    H242369   7.369   2.694   5.785 -0.7509  0.3249  0.1203
14142TIP3   OH242370   6.685   7.330   1.261  0.0122  0.1367  0.4981
14142TIP3    H142371   6.761   7.282   1.228  0.6443  1.1592  0.4476
14142TIP3    H242372   6.663   7.393   1.192 -1.8371 -1.1729 -0.1368
14143TIP3   OH242373   2.708   3.304   2.778 -0.4039  0.1408 -0.5122
14143TIP3    H142374   2.670   3.373   2.723 -0.6517  0.9594  0.6710
14143TIP3    H242375   2.715   3.229   2.719 -0.9314  0.9117 -1.5946
14144TIP3   OH242376   2.748   2.858   2.810 -0.7378  0.3077  0.8043
14144TIP3    H142377   2.826   2.839   2.757 -1.0258  0.1276  0.4448
14144TIP3    H242378   2.714   2.939   2.774 -2.0428 -0.8206 -0.5683
14145TIP3   OH242379   3.952   1.689   1.856 -0.2427 -0.7533 -0.2816
14145TIP3    H142380   3.935   1.685   1.950  0.3013  1.2191 -0.0739
14145TIP3    H242381   3.902   1.765   1.826  2.3278  0.7440 -0.9366
14146TIP3   OH242382   0.205   7.717   0.594  0.1739  0.1045  0.1761
14146TIP3    H142383   0.222   7.686   0.683  1.9937  0.2868 -0.0944
14146TIP3    H242384   0.167   7.641   0.549 -0.1846 -0.1707  0.9286
14147TIP3   OH242385   6.523   3.461   5.328  0.0623 -0.2997 -0.0417
14147TIP3    H142386   6.602   3.511   5.310  0.4280 -0.7810  0.2239
14147TIP3    H242387   6.541   3.373   5.293 -1.3317  0.2778 -2.3461
14148TIP3   OH242388   7.176   2.176   5.879  0.3747 -0.0344  0.3129
14148TIP3    H142389   7.230   2.099   5.892 -0.1817 -0.9237 -2.2914
14148TIP3    H242390   7.223   2.227   5.812 -0.6296  0.5251  0.0240
14149TIP3   OH242391   2.593   1.308   2.144  0.0097 -0.1203  0.2625
14149TIP3    H142392   2.514   1.256   2.154 -1.4759  2.0054 -0.1303
14149TIP3    H242393   2.605   1.352   2.228  0.1032  0.4517 -0.0410
14150TIP3   OH242394   7.977   7.544   1.864 -0.3866 -0.2676 -0.1242
14150TIP3    H142395   8.019   7.495   1.793 -0.5260 -0.9109  0.2340
14150TIP3    H242396   7.986   7.488   1.941  0.6665  0.8776  0.6069
14151TIP3   OH242397   3.165   1.528   2.426 -0.3563  0.4671  0.4681
14151TIP3    H142398   3.101   1.556   2.360 -0.0158  0.1174 -0.0209
14151TIP3    H242399   3.225   1.470   2.378  0.5299  1.0681  0.8349
14152TIP3   OH242400   6.934   6.918   1.636  0.4318 -0.1323  0.6940
14152TIP3    H142401   6.913   6.966   1.556  2.2768 -0.6389 -0.1136
14152TIP3    H242402   6.849   6.899   1.675 -0.4622  0.7049 -0.7917
14153TIP3   OH242403   1.019   1.579   1.725 -0.3160  0.4995 -0.4789
14153TIP3    H142404   1.044   1.560   1.816 -0.2050  0.0432 -0.6077
14153TIP3    H242405   1.097   1.557   1.674 -0.8472 -0.5664 -0.8417
14154TIP3   OH242406   4.723   2.811   5.452 -0.1062 -0.0616  0.4687
14154TIP3    H142407   4.705   2.845   5.539 -0.2107 -0.5021  0.6211
14154TIP3    H242408   4.816   2.828   5.438 -0.3922  1.2413  0.1164
14155TIP3   OH242409   0.520   1.492   0.920  0.4145 -0.2657  0.6555
14155TIP3    H142410   0.524   1.588   0.922  0.9909 -0.1661 -2.2690
14155TIP3    H242411   0.443   1.473   0.865  0.0150 -1.5002  1.6182
14156TIP3   OH242412   4.365   3.960   0.794 -0.8052  0.1599  0.5739
14156TIP3    H142413   4.409   4.021   0.853 -0.4517 -1.0966  1.6614
14156TIP3    H242414   4.345   4.011   0.716  0.0775  1.4765  1.1917
14157TIP3   OH242415   8.392   1.491   2.650  0.1659  0.1312  0.1244
14157TIP3    H142416   8.437   1.575   2.646  0.8942 -0.2126  0.8864
14157TIP3    H242417   8.455   1.432   2.692 -1.0140 -0.3701  1.2209
14158TIP3   OH242418   1.442   0.468   2.406  0.2628  0.4161  0.3913
14158TIP3    H142419   1.479   0.440   2.490 -1.2647  2.9989  1.9858
14158TIP3    H242420   1.487   0.551   2.386 -1.0236  0.9765 -0.2068
14159TIP3   OH242421   4.275   4.511   6.909  0.5917 -0.1006 -0.2336
14159TIP3    H142422   4.243   4.481   6.994  0.5099  0.3676 -0.1013
14159TIP3    H242423   4.225   4.591   6.890  0.6532 -0.1651 -0.6918
14160TIP3   OH242424   6.688   6.803   6.836  0.1429  0.1209 -0.6360
14160TIP3    H142425   6.702   6.816   6.929 -0.3686  2.9459 -0.9227
14160TIP3    H242426   6.646   6.717   6.830 -1.6725  0.7938  1.8767
14161TIP3   OH242427   1.100   3.694   2.307  0.1504  0.7054  0.4277
14161TIP3    H142428   1.044   3.626   2.269  0.2857  1.8028 -1.8564
14161TIP3    H242429   1.043   3.742   2.367 -0.1087 -1.0262  1.5808
14162TIP3   OH242430   2.144   0.424   0.200  0.2128  0.3126 -0.6220
14162TIP3    H142431   2.185   0.340   0.222 -1.3854  0.3508  2.8215
14162TIP3    H242432   2.217   0.481   0.176  1.8191 -0.7482  1.6060
14163TIP3   OH242433   1.872   2.159   1.575 -0.3532 -0.4675  0.0474
14163TIP3    H142434   1.840   2.168   1.485  1.3727 -0.9599 -0.6372
14163TIP3    H242435   1.795   2.132   1.625 -1.9222  2.2857 -0.7812
14164TIP3   OH242436   1.802   0.846   1.384 -0.1882  0.8745  0.0233
14164TIP3    H142437   1.898   0.854   1.384 -0.0294 -0.7719  0.8866
14164TIP3    H242438   1.773   0.905   1.453  0.5501 -1.7724  2.7123
14165TIP3   OH242439   5.214   5.494   6.523 -0.0823 -0.1541 -0.0845
14165TIP3    H142440   5.230   5.401   6.540 -1.3412 -0.1282  1.3771
14165TIP3    H242441   5.123   5.497   6.493  0.0578  0.5677 -0.4307
14166TIP3   OH242442   2.978   1.930   1.751  0.0743 -0.1356  0.1088
14166TIP3    H142443   2.965   2.025   1.761  0.0326  0.0970 -1.9704
14166TIP3    H242444   2.902   1.891   1.793  0.1485  0.7427  1.0899
14167TIP3   OH242445   3.275   2.671   0.261 -0.6632 -0.0041 -0.1749
14167TIP3    H142446   3.191   2.627   0.248 -1.3015  1.3455 -0.7186
14167TIP3    H242447   3.325   2.650   0.182 -1.7039  1.8391 -1.3765
14168TIP3   OH242448   4.471   6.378   5.131  0.1415  0.6311 -0.0934
14168TIP3    H142449   4.427   6.348   5.052 -1.2792 -2.1508  1.6899
14168TIP3    H242450   4.402   6.414   5.185  1.1069  2.5083 -0.0595
14169TIP3   OH242451   1.921   1.492   1.657  0.2601 -0.4267  0.5826
14169TIP3    H142452   2.012   1.520   1.668  0.4357 -0.6684 -0.1926
14169TIP3    H242453   1.916   1.465   1.566 -0.7789  0.2376  0.4439
14170TIP3   OH242454   5.240   6.038   6.871 -0.4668  0.3073 -0.5699
14170TIP3    H142455   5.247   6.031   6.776  1.5427 -2.2706 -0.2994
14170TIP3    H242456   5.206   5.953   6.898 -2.0866  1.4161  0.9515
14171TIP3   OH242457   1.591   0.602   1.170 -0.5325  0.2028 -0.1419
14171TIP3    H142458   1.522   0.639   1.225 -2.2214 -1.3086 -1.1533
14171TIP3    H242459   1.545   0.538   1.115  1.8954 -1.7869  0.0377
14172TIP3   OH242460   2.282   1.189   0.824 -0.2545 -0.0331 -0.4635
14172TIP3    H142461   2.363   1.167   0.871 -0.0228  0.0824 -0.8030
14172TIP3    H242462   2.227   1.232   0.889 -0.2580 -0.6085 -0.0898
14173TIP3   OH242463   4.133   0.694   0.994  0.1490  0.5915 -0.2391
14173TIP3    H142464   4.108   0.642   0.918  0.0471  1.0227 -0.4985
14173TIP3    H242465   4.050   0.720   1.034  0.2017  0.4499 -0.0360
14174TIP3   OH242466   1.374   0.518   1.051 -0.4579  0.3224  0.3307
14174TIP3    H142467   1.286   0.553   1.067 -0.2899  1.3551 -0.8901
14174TIP3    H242468   1.366   0.424   1.067 -1.9652  0.3101 -0.4387
14175TIP3   OH242469   6.889   7.152   2.818 -0.2512 -0.6560 -0.5239
14175TIP3    H142470   6.980   7.159   2.847 -0.3183  0.0795 -0.4792
14175TIP3    H242471   6.840   7.202   2.883 -0.5745 -0.2252 -1.0951
14176TIP3   OH242472   3.112   2.105   0.680  0.0501 -0.1472  0.4063
14176TIP3    H142473   3.086   2.089   0.589 -1.6977  1.2590  0.6310
14176TIP3    H242474   3.040   2.068   0.732  0.2869  0.4620  1.1693
14177TIP3   OH242475   2.883   0.855   0.566  0.3468  0.0376  0.0088
14177TIP3    H142476   2.952   0.848   0.632  2.0978 -0.8773 -1.8598
14177TIP3    H242477   2.857   0.947   0.568  1.2401  0.2816  1.1201
14178TIP3   OH242478   6.767   7.446   0.218  0.2502  0.4725 -0.0279
14178TIP3    H142479   6.675   7.423   0.202  0.2372  1.2175 -1.0878
14178TIP3    H242480   6.805   7.457   0.131  0.9639  1.6440  0.4095
14179TIP3   OH242481   4.089   4.044   6.149  0.2101 -0.1164  0.0666
14179TIP3    H142482   4.038   4.039   6.069  0.3147 -0.0203 -0.0054
14179TIP3    H242483   4.050   4.117   6.198  1.3260  1.0303 -0.7254
14180TIP3   OH242484   1.046   0.411   0.357 -0.9716 -0.1193 -0.1031
14180TIP3    H142485   1.027   0.319   0.374  2.1444 -1.0477 -1.2855
14180TIP3    H242486   1.082   0.444   0.440 -2.3736  0.1271  0.4117
14181TIP3   OH242487   2.927   1.670   0.640 -0.1536  0.0688 -0.0010
14181TIP3    H142488   2.836   1.651   0.618 -0.0428  0.2259 -0.6076
14181TIP3    H242489   2.968   1.693   0.556  1.1185 -2.7517 -0.2248
14182TIP3   OH242490   2.300   2.896   1.731 -0.4761  0.1432 -0.0217
14182TIP3    H142491   2.216   2.888   1.685 -0.1015 -0.3638 -0.6335
14182TIP3    H242492   2.297   2.828   1.798 -0.4634 -0.0120 -0.1799
14183TIP3   OH242493   3.685   2.609   0.228 -0.2194 -0.3366  0.0467
14183TIP3    H142494   3.625   2.654   0.169  0.3794 -0.1685 -0.4411
14183TIP3    H242495   3.688   2.519   0.196  1.5946  0.1948 -1.3962
14184TIP3   OH242496   2.991   1.164   0.001  0.9945  0.4220  0.0403
14184TIP3    H142497   2.984   1.168   0.096  0.1381  0.5729 -0.0254
14184TIP3    H242498   2.934   1.234  -0.031  0.8113 -0.0065 -0.5961
14185TIP3   OH242499   7.371   5.205   6.703  0.2428 -0.7180  0.3283
14185TIP3    H142500   7.459   5.191   6.666  1.0509  1.4185  1.3788
14185TIP3    H242501   7.369   5.150   6.781  1.0301  0.0446  0.8867
14186TIP3   OH242502   3.804   1.117   2.775  0.2803  0.4162  0.2913
14186TIP3    H142503   3.869   1.056   2.809  0.0034  1.0775  2.0809
14186TIP3    H242504   3.721   1.085   2.809 -0.1808  0.3216 -0.9055
14187TIP3   OH242505   5.018   6.042   5.825 -0.0362 -0.2625 -0.0453
14187TIP3    H142506   4.939   6.095   5.812  0.7493  0.9675  0.1199
14187TIP3    H242507   5.070   6.092   5.888  0.0889 -1.9262  1.2279
14188TIP3   OH242508   4.560   5.781   6.793 -0.3177 -0.1656  0.5156
14188TIP3    H142509   4.654   5.796   6.803 -0.4243  0.4949  0.5884
14188TIP3    H242510   4.532   5.746   6.878 -0.1581 -0.2425  0.5363
14189TIP3   OH242511   6.301   3.949   6.205  0.3913 -0.0231  0.4838
14189TIP3    H142512   6.302   4.024   6.145 -1.1409  0.3292  0.8567
14189TIP3    H242513   6.211   3.917   6.200  1.0218 -1.8089  0.3851
14190TIP3   OH242514   5.109   0.648   0.155  0.3715 -0.9099 -0.5275
14190TIP3    H142515   5.143   0.734   0.181 -1.0576 -0.3988 -0.3206
14190TIP3    H242516   5.133   0.590   0.227 -1.5834  0.0246  0.9374
14191TIP3   OH242517   6.988   5.638   4.409  0.0239 -0.2586 -0.1688
14191TIP3    H142518   7.070   5.664   4.450  0.1128 -3.7217  2.1127
14191TIP3    H242519   7.009   5.557   4.362 -1.7573 -0.4326 -0.7166
14192TIP3   OH242520   7.730   4.427   6.610  0.3411  0.5723  0.4644
14192TIP3    H142521   7.771   4.411   6.695  0.2602  1.9520  0.7661
14192TIP3    H242522   7.654   4.482   6.629  0.4704  1.1156 -0.5301
14193TIP3   OH242523   2.513   7.589   1.192 -0.1901  0.5493  0.0935
14193TIP3    H142524   2.506   7.539   1.274  1.6842 -0.9684 -0.6511
14193TIP3    H242525   2.559   7.669   1.217 -0.0767  0.3192  0.6308
14194TIP3   OH242526   4.002   0.826   0.414  0.5979  0.0804 -0.4256
14194TIP3    H142527   3.909   0.837   0.431  0.5159 -2.0348  0.6758
14194TIP3    H242528   4.043   0.829   0.501  1.1747 -2.0177 -0.5821
14195TIP3   OH242529   0.137   6.033   5.146  0.2599  0.6891 -0.0297
14195TIP3    H142530   0.042   6.045   5.138  0.0247 -1.0176  0.0612
14195TIP3    H242531   0.147   5.970   5.218  1.5045  1.4539  0.4890
14196TIP3   OH242532   5.139   2.744   6.940 -0.0338  0.1789  0.2867
14196TIP3    H142533   5.118   2.696   6.860 -0.9227 -0.4552  0.8839
14196TIP3    H242534   5.128   2.836   6.917  1.1842  0.0764 -0.7331
14197TIP3   OH242535   2.964   0.859   0.187 -0.1905 -0.5741  0.1267
14197TIP3    H142536   2.875   0.850   0.152  0.9154 -0.9217 -2.7095
14197TIP3    H242537   3.019   0.808   0.127  1.9253 -0.3824  1.8529
14198TIP3   OH242538   4.775   3.104   0.883 -0.2109  0.3441  0.4033
14198TIP3    H142539   4.806   3.054   0.958  1.1381  1.6379  0.7430
14198TIP3    H242540   4.713   3.046   0.838  1.7427 -1.8190  0.4464
14199TIP3   OH242541   6.752   3.532   6.866 -0.1456 -0.1276 -0.0389
14199TIP3    H142542   6.820   3.533   6.933  1.5690  0.9334 -1.7454
14199TIP3    H242543   6.783   3.468   6.801 -1.5046 -0.7308 -0.1103
14200TIP3   OH242544   2.131   6.437   1.880  0.1365 -0.3810  0.3164
14200TIP3    H142545   2.219   6.440   1.844  0.2694 -0.4505  0.6364
14200TIP3    H242546   2.135   6.489   1.960  0.0715 -0.9960  0.7249
14201TIP3   OH242547   2.897   2.246   0.891  0.2062  0.1774 -0.3508
14201TIP3    H142548   2.901   2.150   0.895  0.1758  0.1694 -0.5242
14201TIP3    H242549   2.982   2.274   0.926 -0.2737  0.1186  0.9036
14202TIP3   OH242550   2.867   7.901   0.432 -1.0152  0.0435  0.3704
14202TIP3    H142551   2.962   7.904   0.436 -0.8565 -3.3939  0.9342
14202TIP3    H242552   2.840   7.989   0.407  2.2024  1.6432  2.2942
14203TIP3   OH242553   5.242   6.194   5.655 -0.0216 -0.2280  0.1334
14203TIP3    H142554   5.197   6.113   5.632 -0.2595 -0.5818  1.7986
14203TIP3    H242555   5.181   6.263   5.630 -0.1901 -0.5846 -0.4647
14204TIP3   OH242556   7.197   7.789   0.231  0.3240  0.0303  0.0445
14204TIP3    H142557   7.278   7.804   0.183 -0.0722  0.5688 -0.4525
14204TIP3    H242558   7.183   7.694   0.227 -1.7303  0.4046 -4.2050
14205TIP3   OH242559   2.191   2.120   0.485 -0.2603 -0.0836 -0.1389
14205TIP3    H142560   2.129   2.057   0.448  0.9975 -0.5358 -1.5164
14205TIP3    H242561   2.275   2.075   0.485  0.2919  0.9161  0.6826
14206TIP3   OH242562   4.949   3.268   6.822  0.3847 -0.0984 -0.5536
14206TIP3    H142563   5.031   3.282   6.870 -0.7326 -1.3757  1.8234
14206TIP3    H242564   4.901   3.204   6.875 -2.6943  1.5327 -1.2616
14207TIP3   OH242565   6.932   4.954   5.578  0.9494 -0.5991  0.2185
14207TIP3    H142566   6.974   4.974   5.661  4.2638 -1.6329 -1.1101
14207TIP3    H242567   6.971   4.871   5.551 -2.1186 -1.6931 -1.0780
14208TIP3   OH242568   7.121   7.169   0.498 -0.2271  0.0748 -0.0016
14208TIP3    H142569   7.059   7.194   0.429 -0.7945 -1.0785  0.0683
14208TIP3    H242570   7.177   7.104   0.456  0.9801  1.1575 -0.0768
14209TIP3   OH242571   6.788   5.750   6.125  0.0405 -0.2419  0.2206
14209TIP3    H142572   6.769   5.802   6.047 -2.3558  1.2756  1.7466
14209TIP3    H242573   6.707   5.702   6.143  0.9587 -1.5230  1.0960
14210TIP3   OH242574   4.761   0.482   1.391 -0.6591 -0.2020 -0.4873
14210TIP3    H142575   4.803   0.533   1.460 -1.2089  2.0326 -1.7506
14210TIP3    H242576   4.677   0.455   1.429 -1.7244  2.5091 -0.8548
14211TIP3   OH242577   4.606   1.057   0.438  0.4306  0.1925  0.2650
14211TIP3    H142578   4.655   0.991   0.487 -0.1915 -1.0409 -0.7323
14211TIP3    H242579   4.607   1.025   0.348 -1.0115  0.8696 -0.0047
14212TIP3   OH242580   4.454   0.764   0.628 -0.4592 -0.8594  0.2130
14212TIP3    H142581   4.474   0.673   0.652  0.9958 -0.5825  0.0958
14212TIP3    H242582   4.400   0.796   0.699 -0.4622 -1.6298  0.5685
14213TIP3   OH242583   0.459   2.864   6.472 -0.1473  0.1853  0.8105
14213TIP3    H142584   0.500   2.932   6.418 -1.8954  2.3035  2.0335
14213TIP3    H242585   0.530   2.805   6.495  1.9484  2.9365  1.6823
14214TIP3   OH242586   7.449   6.126   5.697  0.4170  0.2931 -0.2169
14214TIP3    H142587   7.506   6.203   5.692 -0.5044  0.9785 -0.4967
14214TIP3    H242588   7.494   6.058   5.648  1.4879  0.5020  0.4737
14215TIP3   OH242589   5.059   6.807   4.146 -0.5101  0.0535  0.1631
14215TIP3    H142590   5.076   6.852   4.064  0.4407 -0.5903 -0.0081
14215TIP3    H242591   5.124   6.736   4.148 -0.0693  0.4803  1.7782
14216TIP3   OH242592   6.681   4.247   5.529  0.4755  0.1099  0.0453
14216TIP3    H142593   6.650   4.335   5.549  1.0559  0.8102 -1.9568
14216TIP3    H242594   6.709   4.211   5.613 -1.0891  1.3042  1.0984
14217TIP3   OH242595   4.477   3.254   1.108 -0.1852  0.5265 -0.8770
14217TIP3    H142596   4.394   3.261   1.061 -0.9898  0.1766  0.4817
14217TIP3    H242597   4.537   3.311   1.059 -1.3386  1.1332 -1.6024
14218TIP3   OH242598   2.578   1.902   0.954  0.4276 -0.4126 -0.0141
14218TIP3    H142599   2.595   1.991   0.986  1.5604 -0.2699 -0.9731
14218TIP3    H242600   2.529   1.916   0.873  1.4819 -0.6096 -0.7027
14219TIP3   OH242601   1.742   3.365   2.231  0.1854  0.0113 -0.7611
14219TIP3    H142602   1.823   3.408   2.257  0.9289 -0.2453 -2.5249
14219TIP3    H242603   1.692   3.432   2.184  0.9900 -0.7675 -2.8036
14220TIP3   OH242604   5.131   4.308   2.028  0.1337 -0.5252 -0.1740
14220TIP3    H142605   5.130   4.357   2.110  0.7080 -0.7179 -0.0493
14220TIP3    H242606   5.221   4.274   2.021  0.1616 -0.2972 -1.0027
14221TIP3   OH242607   5.981   6.497   4.813 -0.5678  0.3783  0.0972
14221TIP3    H142608   5.961   6.576   4.863 -2.5232  0.3653 -0.6148
14221TIP3    H242609   5.916   6.497   4.742  1.1090 -0.4552 -1.4758
14222TIP3   OH242610   1.932   1.120   2.089 -0.2944 -0.0701  0.3777
14222TIP3    H142611   1.894   1.102   2.003 -0.5645 -1.7493  0.8378
14222TIP3    H242612   2.025   1.098   2.079  0.0540  1.5590 -0.0171
14223TIP3   OH242613   1.100   5.592   6.150 -0.2601 -0.1882  0.1518
14223TIP3    H142614   1.014   5.631   6.134 -0.8963 -1.4672  0.3588
14223TIP3    H242615   1.141   5.589   6.063 -0.4570  0.3541  0.0372
14224TIP3   OH242616   1.588   7.933   0.735  0.4234 -0.1321 -0.9122
14224TIP3    H142617   1.561   7.883   0.658 -1.0287 -1.6032  0.5051
14224TIP3    H242618   1.523   8.003   0.743 -1.8287 -2.3938  1.2628
14225TIP3   OH242619   6.855   1.924   5.862 -0.6250 -0.7369 -0.4504
14225TIP3    H142620   6.799   1.888   5.930 -0.3699  2.2231  1.4263
14225TIP3    H242621   6.894   2.002   5.902  0.9367  0.0610 -3.3905
14226TIP3   OH242622   7.456   4.431   6.378  1.0905 -0.1101  0.2007
14226TIP3    H142623   7.411   4.347   6.378 -0.9982  0.9758 -1.0636
14226TIP3    H242624   7.524   4.422   6.311 -1.1950  0.2175 -2.2746
14227TIP3   OH242625   6.077   6.223   6.692 -0.7065 -0.2391  0.2972
14227TIP3    H142626   6.012   6.161   6.659 -0.8373  0.9055 -1.6468
14227TIP3    H242627   6.128   6.172   6.755  0.5332 -3.0219 -2.7570
14228TIP3   OH242628   7.091   3.299   6.567 -0.2468  0.2556 -0.1321
14228TIP3    H142629   7.112   3.338   6.482 -0.2005  0.8108  0.1324
14228TIP3    H242630   7.054   3.370   6.618  3.3056  0.9766  1.6566
14229TIP3   OH242631   6.456   4.318   6.400  0.0801 -0.1681 -0.4822
14229TIP3    H142632   6.471   4.231   6.363  1.8420  0.3092 -0.9439
14229TIP3    H242633   6.389   4.305   6.466 -1.0776 -1.5399 -1.8989
14230TIP3   OH242634   3.071   0.524   0.131  0.0183 -0.0407 -0.1249
14230TIP3    H142635   3.052   0.437   0.096 -2.3509  0.1956  0.4942
14230TIP3    H242636   3.070   0.581   0.055 -1.3218 -0.1218 -0.1804
14231TIP3   OH242637   6.298   0.997   6.442  0.3344 -0.5134 -0.0648
14231TIP3    H142638   6.363   1.063   6.465  0.1006 -0.2306 -0.1972
14231TIP3    H242639   6.246   1.039   6.373 -1.2950  0.0503  1.4762
14232TIP3   OH242640   2.219   0.655   2.813  0.4720  0.0034  0.5272
14232TIP3    H142641   2.289   0.719   2.828 -0.6384  0.7296  2.8525
14232TIP3    H242642   2.263   0.581   2.771  1.5635  2.7550 -3.4639
14233TIP3   OH242643   6.255   3.408   6.599  0.4989  0.0373  0.0931
14233TIP3    H142644   6.257   3.409   6.504 -2.4622  1.3621 -0.0190
14233TIP3    H242645   6.186   3.344   6.621  1.9309 -1.1059  1.3911
14234TIP3   OH242646   2.570   1.882   1.351 -0.2620 -0.5380 -0.5962
14234TIP3    H142647   2.565   1.963   1.402  1.0809 -1.5619  1.2429
14234TIP3    H242648   2.481   1.868   1.319 -1.1940  0.0820  1.6036
14235TIP3   OH242649   4.711   5.493   4.863  0.1854 -0.1604 -0.3798
14235TIP3    H142650   4.711   5.579   4.905 -0.8048  0.3889 -1.4685
14235TIP3    H242651   4.644   5.443   4.910  0.4142 -0.1627 -0.0633
14236TIP3   OH242652   5.831   5.457   5.142 -0.3399 -0.5238  0.0695
14236TIP3    H142653   5.829   5.364   5.116 -0.5296 -0.5298  0.1076
14236TIP3    H242654   5.745   5.473   5.179 -0.7036 -0.0413 -0.9562
14237TIP3   OH242655   6.635   1.578   0.315  0.3591  0.1072  0.6572
14237TIP3    H142656   6.681   1.625   0.384 -0.3868  1.1266  0.4695
14237TIP3    H242657   6.689   1.589   0.237  1.9004 -2.1894  1.3699
14238TIP3   OH242658   6.750   4.342   5.252 -0.5140  0.2885 -0.6390
14238TIP3    H142659   6.680   4.396   5.288 -1.6616 -0.7418 -1.2722
14238TIP3    H242660   6.709   4.256   5.238  0.6748 -0.1165 -1.7163
14239TIP3   OH242661   3.698   1.299   0.503  0.3023  0.1025  0.3094
14239TIP3    H142662   3.683   1.345   0.420 -1.5528 -1.8714 -0.4917
14239TIP3    H242663   3.773   1.242   0.487 -0.3149 -0.5843 -0.1465
14240TIP3   OH242664   8.313   5.358   6.721  0.2852 -0.5868 -0.0515
14240TIP3    H142665   8.220   5.353   6.700  0.7346  0.2972 -2.3459
14240TIP3    H242666   8.321   5.315   6.806 -2.0185 -1.8131 -0.4360
14241TIP3   OH242667   0.066   6.716   2.678 -0.1371  0.1831 -0.5000
14241TIP3    H142668   0.126   6.755   2.741 -0.7940  0.7450 -0.2228
14241TIP3    H242669   0.041   6.788   2.620 -1.4110  0.1983  0.0534
14242TIP3   OH242670   7.632   5.053   5.261  0.1071 -0.5026 -0.1195
14242TIP3    H142671   7.573   5.044   5.336 -1.2413  0.6471 -1.0118
14242TIP3    H242672   7.576   5.086   5.191  1.0119 -3.0154 -2.0948
14243TIP3   OH242673   6.142   2.777   6.924 -0.5455 -0.3848 -0.6189
14243TIP3    H142674   6.095   2.826   6.992 -0.7360 -1.1311 -0.2083
14243TIP3    H242675   6.080   2.709   6.896  0.1212 -1.0931 -0.3903
14244TIP3   OH242676   3.545   2.184   1.369 -0.0444 -0.7313 -0.0092
14244TIP3    H142677   3.608   2.133   1.317  0.5210  0.0645 -0.1084
14244TIP3    H242678   3.514   2.122   1.435  0.8194 -1.1464  0.0242
14245TIP3   OH242679   5.001   1.417   0.206 -0.2559 -0.4828 -0.4830
14245TIP3    H142680   5.080   1.459   0.239 -0.8706  0.6078 -0.3850
14245TIP3    H242681   4.996   1.334   0.254  0.8535 -0.5881 -0.5392
14246TIP3   OH242682   4.383   6.005   4.861  0.0490  0.0392 -0.2639
14246TIP3    H142683   4.301   5.960   4.844 -0.1016  0.6518 -1.2405
14246TIP3    H242684   4.365   6.097   4.840  0.7074  0.3468  0.4595
14247TIP3   OH242685   7.857   5.380   6.872  0.4914 -0.6255 -0.3237
14247TIP3    H142686   7.814   5.413   6.951 -0.1080  0.2128 -0.9945
14247TIP3    H242687   7.894   5.296   6.899  1.3680  0.2204  1.1872
14248TIP3   OH242688   0.800   7.875   0.813  0.0126 -0.4232 -0.0155
14248TIP3    H142689   0.893   7.878   0.836 -0.5590  2.3751  2.2086
14248TIP3    H242690   0.767   7.797   0.859  0.3811  1.1021  2.9232
14249TIP3   OH242691   3.215   1.914   2.254 -0.2217 -0.8527  0.2228
14249TIP3    H142692   3.211   2.005   2.281  2.0268 -0.5857 -0.2523
14249TIP3    H242693   3.195   1.916   2.160 -1.7578 -1.0535  0.5315
14250TIP3   OH242694   5.977   2.326   0.477  0.3791  0.7326 -0.3534
14250TIP3    H142695   5.991   2.380   0.399  0.6306 -1.3121 -1.7784
14250TIP3    H242696   6.064   2.296   0.501  0.3511  1.6998  0.9940
14251TIP3   OH242697   2.356   2.661   0.679 -0.0800  0.0165  0.4218
14251TIP3    H142698   2.384   2.638   0.767  1.5409  0.2463 -0.0188
14251TIP3    H242699   2.261   2.660   0.683 -0.0716 -3.5579  1.2425
14252TIP3   OH242700   6.263   3.268   5.428 -0.5825 -0.5895  0.2191
14252TIP3    H142701   6.277   3.361   5.415 -0.4173 -0.8382 -1.5832
14252TIP3    H242702   6.171   3.260   5.451 -0.4927  0.0555  0.8080
14253TIP3   OH242703   1.426   4.351   2.174 -0.1836  0.0977  0.4812
14253TIP3    H142704   1.381   4.433   2.194 -0.3272  0.4874 -1.2909
14253TIP3    H242705   1.389   4.287   2.235 -0.6731  1.1618  1.3126
14254TIP3   OH242706   7.065   5.218   5.126  0.4178  0.5321 -0.0122
14254TIP3    H142707   7.035   5.226   5.035 -2.3232 -1.2863  0.6528
14254TIP3    H242708   7.132   5.150   5.124 -2.1558 -2.0802 -0.1981
14255TIP3   OH242709   4.442   3.853   0.341  0.1718  0.5010 -0.5154
14255TIP3    H142710   4.525   3.898   0.331  0.7101 -0.6183 -1.1467
14255TIP3    H242711   4.422   3.818   0.253 -1.0148  0.8677 -0.4034
14256TIP3   OH242712   0.200   7.468   2.794  0.4327  0.2976 -0.1134
14256TIP3    H142713   0.105   7.476   2.803  0.3774 -1.3897  1.0510
14256TIP3    H242714   0.236   7.543   2.841 -0.2733 -0.3823  1.5482
14257TIP3   OH242715   6.949   4.478   6.124 -0.4578  0.3372 -0.7670
14257TIP3    H142716   7.020   4.496   6.062 -1.0658  0.9074 -1.3067
14257TIP3    H242717   6.937   4.561   6.170 -0.8581  0.2708 -0.7560
14258TIP3   OH242718   3.545   4.004   1.441  0.3769 -0.1316 -0.4719
14258TIP3    H142719   3.569   3.911   1.448  0.4361 -0.0071  1.2464
14258TIP3    H242720   3.626   4.051   1.458  0.6429  0.2433 -2.6967
14259TIP3   OH242721   1.214   0.160   0.322  0.7532  0.3694 -0.2348
14259TIP3    H142722   1.253   0.076   0.295 -0.5029  0.4300 -2.3506
14259TIP3    H242723   1.204   0.209   0.240 -0.0516  1.9375  0.7919
14260TIP3   OH242724   6.236   6.198   5.723 -0.2059  0.8725  0.0563
14260TIP3    H142725   6.321   6.234   5.748  0.0790 -1.1361  2.1409
14260TIP3    H242726   6.257   6.123   5.667 -0.6429  0.9205 -0.1738
14261TIP3   OH242727   5.843   6.160   5.001  0.0374  0.0618 -0.4813
14261TIP3    H142728   5.930   6.198   4.993  0.1415 -0.3887 -1.6300
14261TIP3    H242729   5.847   6.106   5.079 -0.0355  2.1631  1.0227
14262TIP3   OH242730   4.732   0.841   0.591 -0.3525  0.2732  0.4591
14262TIP3    H142731   4.793   0.768   0.606 -0.7940 -0.2251 -0.1519
14262TIP3    H242732   4.645   0.800   0.591 -0.5884  0.7622 -0.1221
14263TIP3   OH242733   4.917   5.453   6.857 -0.2827  0.6126 -0.1517
14263TIP3    H142734   4.930   5.359   6.843  1.7005  0.6717  1.1277
14263TIP3    H242735   4.854   5.479   6.790 -0.8925 -1.6344 -0.4908
14264TIP3   OH242736   6.687   5.569   5.680  0.4307  0.4778 -0.2884
14264TIP3    H142737   6.762   5.590   5.624  1.6612 -0.9736  0.8041
14264TIP3    H242738   6.719   5.501   5.739 -2.1560 -1.2122 -0.7621
14265TIP3   OH242739   6.488   6.717   5.583 -0.3060  0.2536  0.3032
14265TIP3    H142740   6.576   6.752   5.572 -0.9187  2.1493  1.1832
14265TIP3    H242741   6.483   6.694   5.676 -0.0932 -1.7362 -0.1467
14266TIP3   OH242742   5.134   6.195   6.009 -0.0040  0.2427  0.0918
14266TIP3    H142743   5.112   6.142   6.086 -0.5572  0.7921  0.3120
14266TIP3    H242744   5.130   6.285   6.040  1.7296  0.4041 -0.0723
14267TIP3   OH242745   5.686   3.521   6.871  0.3955 -0.2884  0.3946
14267TIP3    H142746   5.649   3.434   6.885 -0.2145 -0.1207 -0.1674
14267TIP3    H242747   5.630   3.561   6.804  2.0290 -0.3276 -1.0400
14268TIP3   OH242748   6.903   4.083   4.080 -0.0747  0.3526  0.1613
14268TIP3    H142749   6.858   4.074   3.996  2.2233  0.2596 -1.0753
14268TIP3    H242750   6.935   3.995   4.099 -0.8978  0.2955  1.3443
14269TIP3   OH242751   3.330   1.976   0.145 -0.4330 -1.0304 -0.5520
14269TIP3    H142752   3.262   2.026   0.191  1.4756  1.4064 -0.3269
14269TIP3    H242753   3.378   2.040   0.093  1.5835 -2.7397 -0.8970
14270TIP3   OH242754   5.924   4.322   6.865  0.6326 -0.1187  0.3979
14270TIP3    H142755   5.916   4.252   6.801  0.7411 -1.6550  2.0449
14270TIP3    H242756   6.016   4.349   6.861  0.3293  0.7493 -1.0568
14271TIP3   OH242757   4.592   1.634   1.849  0.3597  0.5001 -0.0120
14271TIP3    H142758   4.613   1.665   1.937 -0.4749 -1.3154  0.8496
14271TIP3    H242759   4.510   1.677   1.827  0.7190  1.1791 -0.0321
14272TIP3   OH242760   1.878   0.989   0.573  0.0228 -0.1698 -0.0294
14272TIP3    H142761   1.839   0.903   0.591 -0.2333  0.1984  1.2260
14272TIP3    H242762   1.913   0.981   0.484 -1.4736 -1.0397 -0.5637
14273TIP3   OH242763   7.622   4.621   5.603  0.4968  0.1048  0.1558
14273TIP3    H142764   7.585   4.677   5.672 -0.5207  1.7511 -1.6938
14273TIP3    H242765   7.666   4.681   5.544  1.9514 -1.3775 -0.2928
14274TIP3   OH242766   6.890   6.850   5.127  0.1888  0.9785 -0.0114
14274TIP3    H142767   6.849   6.839   5.213  1.2326  0.1995  0.3991
14274TIP3    H242768   6.846   6.926   5.089 -2.0211 -0.1746  0.1702
14275TIP3   OH242769   7.116   4.119   5.530 -0.1113  0.5115 -0.2990
14275TIP3    H142770   7.209   4.123   5.508 -0.2840  0.8628 -0.9673
14275TIP3    H242771   7.114   4.123   5.626  0.6956 -2.5205 -0.1247
14276TIP3   OH242772   6.296   6.138   6.877 -0.4608  0.1132  0.6622
14276TIP3    H142773   6.372   6.146   6.935 -0.2785 -0.4849  0.5094
14276TIP3    H242774   6.334   6.133   6.789 -0.6533 -0.6472  0.6198
14277TIP3   OH242775   4.382   0.682   0.362 -0.2226 -0.1159 -0.0977
14277TIP3    H142776   4.465   0.663   0.318 -0.0483  2.0508 -0.7345
14277TIP3    H242777   4.408   0.719   0.446 -0.5625 -1.4808  0.6232
14278TIP3   OH242778   3.462   0.709   2.321 -0.0218 -0.4941  0.6282
14278TIP3    H142779   3.417   0.726   2.239 -1.0457 -1.1220  1.0393
14278TIP3    H242780   3.444   0.617   2.340  1.1107 -0.6488  1.0086
14279TIP3   OH242781   5.939   5.104   5.592 -0.5915 -0.4188  0.3436
14279TIP3    H142782   5.877   5.098   5.665  0.2288 -0.2905  1.0615
14279TIP3    H242783   6.019   5.137   5.632  0.5068 -2.3367 -0.2353
14280TIP3   OH242784   7.828   4.282   5.234  0.4708 -0.6938 -0.0290
14280TIP3    H142785   7.757   4.227   5.268  0.1581 -0.6685 -0.6366
14280TIP3    H242786   7.855   4.239   5.153  1.8172 -1.2467  0.7046
14281TIP3   OH242787   2.357   0.840   1.410 -0.2420 -0.5238 -0.3999
14281TIP3    H142788   2.281   0.880   1.367  0.0469 -0.2773 -0.6887
14281TIP3    H242789   2.395   0.784   1.342  0.6695  0.4659 -0.7182
14282TIP3   OH242790   6.077   1.692   0.046 -0.1063  0.7401  0.0557
14282TIP3    H142791   6.078   1.780   0.083 -0.4011  0.2208  1.3505
14282TIP3    H242792   6.125   1.639   0.110  0.9725  0.1497 -1.2084
14283TIP3   OH242793   2.789   8.000   0.692 -0.9320 -0.5749  0.0384
14283TIP3    H142794   2.818   7.961   0.609  1.9891  1.8590 -0.1379
14283TIP3    H242795   2.796   7.928   0.755  1.3994 -1.2294 -0.8971
14284TIP3   OH242796   6.172   2.680   0.633 -0.4728  0.5493 -0.3586
14284TIP3    H142797   6.083   2.682   0.597 -1.1564  2.3839  1.3158
14284TIP3    H242798   6.186   2.769   0.667  1.3785 -0.1874  0.9041
14285TIP3   OH242799   6.816   3.495   5.640 -0.2574 -0.3820 -0.6213
14285TIP3    H142800   6.902   3.457   5.625  0.4226  0.8798  0.0678
14285TIP3    H242801   6.818   3.580   5.597 -1.5964 -0.8521 -1.6821
14286TIP3   OH242802   6.532   3.713   6.357  0.1083  0.0390 -0.0884
14286TIP3    H142803   6.509   3.735   6.448 -0.9573  1.1288 -0.6092
14286TIP3    H242804   6.593   3.640   6.365 -0.2256 -0.0857  1.5021
14287TIP3   OH242805   5.855   4.291   5.564  0.0113 -0.0110  0.2099
14287TIP3    H142806   5.787   4.300   5.498  1.0856 -2.6722 -1.3438
14287TIP3    H242807   5.811   4.248   5.638 -0.2109 -0.9629 -0.4677
14288TIP3   OH242808   3.620   1.518   0.690 -0.0643  0.2415 -0.3335
14288TIP3    H142809   3.560   1.512   0.615 -0.7049  0.5184  0.1610
14288TIP3    H242810   3.681   1.445   0.676  0.2459  0.7013 -1.4968
14289TIP3   OH242811   7.104   2.965   6.507 -0.1552  0.6013 -0.0814
14289TIP3    H142812   7.181   2.925   6.466 -1.2263 -0.8393 -0.7566
14289TIP3    H242813   7.140   3.021   6.575  1.4270 -2.1938  1.4968
14290TIP3   OH242814   7.316   5.039   6.914  0.1086 -0.4872  0.3312
14290TIP3    H142815   7.335   4.988   6.993  0.7437 -0.6005  0.1097
14290TIP3    H242816   7.222   5.027   6.899  0.1091 -0.9591  0.7219
14291TIP3   OH242817   6.603   4.230   3.901  0.5835  0.1381 -0.2385
14291TIP3    H142818   6.632   4.158   3.845  1.2866  1.9083 -2.2358
14291TIP3    H242819   6.610   4.307   3.845  0.0935  1.7960  1.9387
14292TIP3   OH242820   7.654   5.390   5.602  0.0915  0.2485  0.1880
14292TIP3    H142821   7.587   5.370   5.537  0.1067  0.4660  0.1031
14292TIP3    H242822   7.621   5.467   5.648  0.7691  1.0011 -0.5734
14293TIP3   OH242823   6.935   4.530   3.566  0.2316  0.1855 -0.1649
14293TIP3    H142824   6.973   4.455   3.519  0.6600  0.6858 -0.6180
14293TIP3    H242825   6.865   4.561   3.509 -0.7430 -0.6076  0.5754
14294TIP3   OH242826   0.483   3.483   5.762 -0.4545 -0.0738 -0.5113
14294TIP3    H142827   0.519   3.403   5.801 -0.0651  0.4104  0.1485
14294TIP3    H242828   0.483   3.546   5.834 -1.7249  0.2228 -0.7661
14295TIP3   OH242829   2.251   2.331   2.757 -0.1015 -0.9529  0.1013
14295TIP3    H142830   2.203   2.396   2.809 -0.1242 -0.7388 -0.1910
14295TIP3    H242831   2.275   2.377   2.677  3.6646  0.0823  1.6768
14296TIP3   OH242832   1.920   0.385   0.363  0.1502 -0.0231 -0.1520
14296TIP3    H142833   1.917   0.417   0.454 -1.1888 -1.1219  0.2205
14296TIP3    H242834   2.000   0.422   0.327  1.0894 -0.1614  1.7145
14297TIP3   OH242835   0.110   4.850   6.875  0.0617  0.8302  0.2958
14297TIP3    H142836   0.198   4.885   6.868  0.8687 -1.3330 -0.8049
14297TIP3    H242837   0.054   4.918   6.838  1.3481  1.8488  0.1923
14298TIP3   OH242838   4.786   0.560   2.099 -0.3545  0.0357 -0.0700
14298TIP3    H142839   4.807   0.645   2.062  1.2125 -0.5364 -0.5178
14298TIP3    H242840   4.870   0.525   2.128 -1.2281 -0.5387  1.8749
14299TIP3   OH242841   4.992   5.157   6.138 -0.3196 -0.1328  0.1809
14299TIP3    H142842   4.933   5.170   6.213 -1.1050  0.3634 -0.5164
14299TIP3    H242843   4.964   5.221   6.074  0.1894 -0.7282 -0.6496
14300TIP3   OH242844   7.001   5.785   6.282  0.3923  0.0705 -0.5384
14300TIP3    H142845   6.916   5.762   6.245 -1.7241  0.7253  3.5313
14300TIP3    H242846   7.019   5.872   6.247 -0.7878  0.0448 -1.2518
14301TIP3   OH242847   3.930   4.896   6.697  0.7189  0.2155  0.6264
14301TIP3    H142848   3.924   4.808   6.736  1.1649 -0.7019 -1.2928
14301TIP3    H242849   3.993   4.942   6.753  1.0818 -0.9433  1.2133
14302TIP3   OH242850   7.813   5.809   5.017 -0.3862  0.1457 -0.0644
14302TIP3    H142851   7.815   5.799   5.112 -3.4129  0.9226  0.1111
14302TIP3    H242852   7.852   5.728   4.984  1.5800  0.2790  1.8238
14303TIP3   OH242853   1.979   0.703   0.893 -0.2434  0.1935  1.3613
14303TIP3    H142854   2.013   0.769   0.954  1.7491  0.2677  0.2093
14303TIP3    H242855   1.936   0.754   0.825 -0.1836  0.2384  1.3564
14304TIP3   OH242856   4.843   0.071   0.743  0.0823 -0.6133 -0.0282
14304TIP3    H142857   4.820  -0.011   0.784 -0.4742  0.9603  2.9112
14304TIP3    H242858   4.938   0.079   0.754  0.0677 -0.6362  0.1106
14305TIP3   OH242859   6.992   5.433   6.586 -0.3879 -0.1670 -0.5305
14305TIP3    H142860   6.897   5.419   6.593 -0.5447  0.8881 -0.5078
14305TIP3    H242861   7.002   5.528   6.590  0.6283 -0.2549 -1.0811
14306TIP3   OH242862   2.593   2.736   0.824 -0.0144 -0.1589 -0.0717
14306TIP3    H142863   2.651   2.741   0.748 -1.1491 -0.2753 -0.9705
14306TIP3    H242864   2.573   2.643   0.833  1.5454 -0.3661  1.4973
14307TIP3   OH242865   2.872   1.572   1.623  0.6227  0.0063 -0.2094
14307TIP3    H142866   2.875   1.587   1.718  0.0272  0.1866 -0.2125
14307TIP3    H242867   2.792   1.617   1.595  0.6665 -0.2568 -0.7567
14308TIP3   OH242868   1.805   7.566   1.244  0.2428 -0.2280 -0.5374
14308TIP3    H142869   1.785   7.534   1.331 -0.1017 -1.1181 -0.9415
14308TIP3    H242870   1.781   7.495   1.185  2.3775 -0.4568 -1.2100
14309TIP3   OH242871   0.895   7.732   0.450  0.3527  0.2359 -0.7705
14309TIP3    H142872   0.972   7.701   0.497 -0.1543 -1.0448 -0.7644
14309TIP3    H242873   0.926   7.745   0.360  1.4122  3.0494 -0.0437
14310TIP3   OH242874   5.232   0.864   2.196  0.0928 -0.5592 -0.1462
14310TIP3    H142875   5.147   0.904   2.179  0.2392 -0.8377 -1.6730
14310TIP3    H242876   5.287   0.937   2.224 -0.4720 -0.2583  0.1876
14311TIP3   OH242877   1.531   0.559   0.601 -0.2248  0.6578 -0.0931
14311TIP3    H142878   1.485   0.522   0.677  1.1522  0.5814  0.7253
14311TIP3    H242879   1.518   0.494   0.532 -1.3685  0.6535  0.1158
14312TIP3   OH242880   5.290   3.731   5.526 -0.5199 -0.5876  0.2780
14312TIP3    H142881   5.220   3.751   5.588 -1.1751  2.0573 -1.2284
14312TIP3    H242882   5.353   3.803   5.537 -0.6143 -0.1214 -2.0037
14313TIP3   OH242883   1.196   5.834   0.391 -0.0369 -0.2685 -0.8190
14313TIP3    H142884   1.211   5.835   0.485  0.2159 -0.6128 -0.8538
14313TIP3    H242885   1.106   5.863   0.380  0.3020  0.9121 -0.5487
14314TIP3   OH242886   3.127   6.610   0.406 -0.3366  0.8166  0.2041
14314TIP3    H142887   3.145   6.678   0.341  1.8319  0.1933  0.1106
14314TIP3    H242888   3.083   6.540   0.358  2.9919 -0.4806 -1.0580
14315TIP3   OH242889   6.621   5.543   6.803 -0.0721 -0.7758  0.3068
14315TIP3    H142890   6.665   5.627   6.793 -0.1860 -0.6309  0.9579
14315TIP3    H242891   6.544   5.563   6.857  0.0221 -1.3366  0.6481
14316TIP3   OH242892   4.547   5.211   5.918 -0.0225 -0.0563  0.6703
14316TIP3    H142893   4.569   5.152   5.990 -1.7671  1.0081  2.1419
14316TIP3    H242894   4.462   5.180   5.886 -0.6120  1.1776  0.9781
14317TIP3   OH242895   7.721   7.636   0.068 -0.2613  0.2074  0.0379
14317TIP3    H142896   7.628   7.643   0.089  0.0922 -0.3055  1.9105
14317TIP3    H242897   7.757   7.583   0.139  1.0831 -1.4432 -1.8215
14318TIP3   OH242898   2.245   0.787   0.435  0.2325  0.4562  0.2234
14318TIP3    H142899   2.254   0.730   0.359 -1.4043  0.3232  0.1132
14318TIP3    H242900   2.217   0.728   0.506  1.3493  0.6468  0.8454
14319TIP3   OH242901   7.248   5.774   6.074  0.4028  0.1764 -0.2707
14319TIP3    H142902   7.281   5.837   6.138 -0.8340  0.3200  0.2454
14319TIP3    H242903   7.187   5.719   6.123  0.6530 -0.7434 -0.9658
14320TIP3   OH242904   7.285   5.357   5.639 -0.0272 -0.6399  0.3667
14320TIP3    H142905   7.345   5.366   5.566 -1.1208  1.3933 -0.3256
14320TIP3    H242906   7.209   5.313   5.603 -0.5552  0.3380  0.2603
14321TIP3   OH242907   5.328   4.886   6.626  0.7403  0.0156  0.6315
14321TIP3    H142908   5.385   4.953   6.664  1.0876 -0.7002  1.3992
14321TIP3    H242909   5.259   4.873   6.692  0.0212  0.4444 -0.0254
14322TIP3   OH242910   0.537   7.492   0.435  0.2611  0.2391 -0.2551
14322TIP3    H142911   0.517   7.560   0.370  0.7751  1.3810  0.7776
14322TIP3    H242912   0.603   7.531   0.491 -1.1874 -0.2126  1.8192
14323TIP3   OH242913   2.959   2.159   1.942 -0.3474  0.4087  0.2258
14323TIP3    H142914   2.985   2.237   1.990  0.2039  0.0531  0.5113
14323TIP3    H242915   2.905   2.110   2.003  0.7617 -0.2838  0.6709
14324TIP3   OH242916   8.284   3.923   6.583 -0.2132 -0.3228 -0.0143
14324TIP3    H142917   8.245   3.873   6.511 -0.8899 -0.7354  0.6226
14324TIP3    H242918   8.327   3.997   6.541 -0.2012 -0.8176 -0.8790
14325TIP3   OH242919   3.731   2.881   0.997 -0.5249  0.2494 -0.0482
14325TIP3    H142920   3.795   2.832   0.945 -0.1378  0.4931  0.1917
14325TIP3    H242921   3.661   2.818   1.016  0.5572 -0.5742  1.3283
14326TIP3   OH242922   1.057   6.940   4.822  0.3079 -0.1220  0.3633
14326TIP3    H142923   1.115   6.968   4.893  1.6724  1.7270 -1.4304
14326TIP3    H242924   0.974   6.921   4.866  0.8638  1.8280  2.3536
14327TIP3   OH242925   6.969   6.119   5.330  0.5502  0.2068  0.4439
14327TIP3    H142926   6.888   6.120   5.381  0.3897  1.6625  0.1881
14327TIP3    H242927   6.962   6.195   5.272  1.2865 -0.6988 -0.8747
14328TIP3   OH242928   0.036   4.358   6.733 -0.1566 -0.1715  0.2249
14328TIP3    H142929   0.062   4.412   6.658  0.1866  0.6806  0.9428
14328TIP3    H242930   0.027   4.421   6.805  0.8539 -1.1586  1.2183
14329TIP3   OH242931   7.651   5.986   5.481 -0.1491  0.3542 -0.1496
14329TIP3    H142932   7.560   5.962   5.467 -0.3488  1.5959 -1.1014
14329TIP3    H242933   7.685   5.919   5.539 -1.6314 -0.2072  0.0931
14330TIP3   OH242934   7.545   4.126   6.809  0.2751  0.0079  1.0510
14330TIP3    H142935   7.588   4.152   6.727 -0.9027 -1.0372  0.0788
14330TIP3    H242936   7.610   4.145   6.877  1.3233  0.7759 -0.1316
14331TIP3   OH242937   2.653   0.380   2.685  0.1230  0.1852 -0.1727
14331TIP3    H142938   2.683   0.292   2.706  0.7253  0.1920 -0.9946
14331TIP3    H242939   2.719   0.415   2.625 -0.7634  0.7342 -0.8554
14332TIP3   OH242940   0.248   3.721   6.334 -0.3153  0.3609  0.4667
14332TIP3    H142941   0.187   3.674   6.390 -0.8978 -0.0477 -0.5089
14332TIP3    H242942   0.251   3.809   6.370  0.0028 -0.1387  1.6841
14333TIP3   OH242943   5.733   4.208   5.117  0.0724  0.5154 -0.7004
14333TIP3    H142944   5.703   4.290   5.078  1.6031  1.2533 -0.4043
14333TIP3    H242945   5.763   4.233   5.204  0.3562 -0.3934 -0.5309
14334TIP3   OH242946   7.562   4.890   5.705 -0.0127  0.4872 -0.4140
14334TIP3    H142947   7.627   4.920   5.768 -1.1556 -0.9033  1.4881
14334TIP3    H242948   7.486   4.946   5.719  0.3874  1.4208 -1.8979
14335TIP3   OH242949   6.747   5.367   6.631 -0.3094 -0.5752  0.4739
14335TIP3    H142950   6.709   5.280   6.643 -0.9660 -0.3019  0.3924
14335TIP3    H242951   6.695   5.424   6.688 -0.4560 -0.0884 -0.1369
14336TIP3   OH242952   4.706   6.656   4.936 -0.5206  0.0571 -0.4780
14336TIP3    H142953   4.778   6.702   4.892 -1.0565  0.9023 -0.4751
14336TIP3    H242954   4.627   6.692   4.897 -0.9639 -0.3769  0.0183
14337TIP3   OH242955   2.107   6.018   6.222 -0.0909 -0.1334 -0.3715
14337TIP3    H142956   2.056   6.095   6.249 -0.6166 -0.3305 -0.7887
14337TIP3    H242957   2.123   5.970   6.303 -0.2389  0.1276 -0.1873
14338TIP3   OH242958   6.428   5.246   6.442  0.2971 -0.0746 -0.0626
14338TIP3    H142959   6.382   5.231   6.525  0.3680 -1.0735 -0.1898
14338TIP3    H242960   6.358   5.263   6.379  0.2156  0.2507  0.1121
14339TIP3   OH242961   6.847   4.702   5.882  0.2311 -0.0125  0.2140
14339TIP3    H142962   6.909   4.748   5.939  0.2051 -0.7540  0.8361
14339TIP3    H242963   6.835   4.617   5.922 -0.9916  0.0258 -0.0499
14340TIP3   OH242964   1.125   6.051   5.503 -0.3543  0.1208 -0.0386
14340TIP3    H142965   1.106   6.029   5.595  2.0553  0.4691  0.5849
14340TIP3    H242966   1.108   6.145   5.497 -0.7925  0.0429 -0.0190
14341TIP3   OH242967   0.257   4.888   5.963  0.1108  0.1417  0.4856
14341TIP3    H142968   0.211   4.846   5.890  1.1943 -0.7577  0.3131
14341TIP3    H242969   0.241   4.832   6.038 -1.2601  1.2302  1.0365
14342TIP3   OH242970   4.897   0.461   0.144  0.1284 -0.2176 -0.0281
14342TIP3    H142971   4.971   0.516   0.170 -1.2346  0.2305  3.1524
14342TIP3    H242972   4.833   0.523   0.109  0.6093 -0.4264 -1.3113
14343TIP3   OH242973   4.929   5.860   4.096 -0.3308 -0.0530  0.7052
14343TIP3    H142974   4.866   5.891   4.161  0.1439 -0.9479  1.6042
14343TIP3    H242975   5.004   5.830   4.148 -0.2706 -1.5018 -0.2006
14344TIP3   OH242976   5.676   4.130   6.569  0.1915 -0.3232 -0.3784
14344TIP3    H142977   5.712   4.173   6.492 -1.0906  1.7099  0.1272
14344TIP3    H242978   5.747   4.136   6.634  1.3466 -2.2158 -1.4062
14345TIP3   OH242979   4.456   0.362   1.803 -0.2766  0.2160 -0.0296
14345TIP3    H142980   4.432   0.425   1.871  0.0475 -1.4969  1.7288
14345TIP3    H242981   4.372   0.332   1.768 -0.4863  0.2539  0.4356
14346TIP3   OH242982   1.405   3.991   6.124 -0.7007 -0.0831 -0.1029
14346TIP3    H142983   1.438   3.976   6.212 -1.0024 -0.6360 -0.0804
14346TIP3    H242984   1.323   4.039   6.136 -1.3525 -1.1956 -0.0179
14347TIP3   OH242985   5.468   1.817   0.915 -0.1516 -0.2890 -0.1562
14347TIP3    H142986   5.425   1.850   0.837  0.3106 -2.1931 -1.2555
14347TIP3    H242987   5.405   1.756   0.953  0.0891 -0.2501  0.3150
14348TIP3   OH242988   5.284   0.989   0.521  0.2990 -0.3823  0.5281
14348TIP3    H142989   5.366   1.000   0.568  0.2514  2.8402 -0.0243
14348TIP3    H242990   5.220   1.041   0.570 -1.1177 -1.8166  0.2420
14349TIP3   OH242991   6.935   2.635   4.920 -0.6505 -0.4032 -0.4378
14349TIP3    H142992   6.901   2.716   4.957 -0.7769 -0.6477 -0.0050
14349TIP3    H242993   7.026   2.631   4.950 -0.8026 -0.6850 -0.0081
14350TIP3   OH242994   8.185   1.458   0.799 -0.2335 -0.4329 -0.3026
14350TIP3    H142995   8.157   1.367   0.800  0.0237 -0.5131 -0.4404
14350TIP3    H242996   8.252   1.462   0.731  0.6163 -0.3909  0.5311
14351TIP3   OH242997   7.696   2.999   1.608 -0.2411 -0.4574  0.1062
14351TIP3    H142998   7.721   2.967   1.521  1.3652  2.4160 -0.5379
14351TIP3    H242999   7.606   3.031   1.597  0.1728  0.4605 -0.6682
14352TIP3   OH243000   7.217   2.107   2.863 -0.0493  0.4151 -0.1122
14352TIP3    H143001   7.254   2.188   2.829 -2.3138  1.5242  0.0312
14352TIP3    H243002   7.185   2.060   2.786 -1.3518  0.9814  0.0866
14353TIP3   OH243003   3.709   1.185   6.661 -0.1667 -0.1156  0.0655
14353TIP3    H143004   3.789   1.231   6.684  0.6634 -1.9317  0.9153
14353TIP3    H243005   3.676   1.231   6.584  0.4213  2.0968  1.1024
14354TIP3   OH243006   0.764   2.701   2.518  0.2986 -0.5229  0.1913
14354TIP3    H143007   0.801   2.664   2.438  1.3606 -0.2659  0.5538
14354TIP3    H243008   0.735   2.788   2.494  0.5412 -0.4774  0.0591
14355TIP3   OH243009   3.833   7.825   1.126 -0.0290  0.7209 -0.0128
14355TIP3    H143010   3.817   7.821   1.220  1.5368 -3.7064  0.1791
14355TIP3    H243011   3.748   7.806   1.087  0.0947 -1.1800  0.6048
14356TIP3   OH243012   8.136   2.832   0.386  0.9404 -0.3533  0.5844
14356TIP3    H143013   8.065   2.778   0.422 -0.2126  1.5169  1.1841
14356TIP3    H243014   8.198   2.841   0.458  1.0544 -0.7263  0.5361
14357TIP3   OH243015   8.069   4.479   1.466  0.5647  0.1870 -0.4725
14357TIP3    H143016   8.009   4.548   1.436 -0.8340 -1.3424 -1.2724
14357TIP3    H243017   8.090   4.504   1.556 -1.1551  0.8659 -0.2211
14358TIP3   OH243018   0.284   5.153   1.926  0.3798 -0.7668  0.0269
14358TIP3    H143019   0.199   5.151   1.969  0.1992  0.3524 -0.2660
14358TIP3    H243020   0.267   5.193   1.840  1.0671 -1.2346 -0.3402
14359TIP3   OH243021   0.066   2.098   0.504  0.0660  0.0598 -0.7966
14359TIP3    H143022   0.083   2.148   0.424  0.2278  2.8137  0.9042
14359TIP3    H243023  -0.011   2.139   0.542  2.2034  1.2682  2.4018
14360TIP3   OH243024   5.722   0.211   0.304  0.1646  0.4119 -0.2028
14360TIP3    H143025   5.649   0.249   0.353  0.1274  0.8429 -0.5948
14360TIP3    H243026   5.684   0.136   0.258  0.0884  0.3128  0.0210
14361TIP3   OH243027   7.637   4.389   2.058 -0.1340  0.5485 -0.5089
14361TIP3    H143028   7.624   4.383   1.964 -1.1814  0.8927 -0.3940
14361TIP3    H243029   7.591   4.313   2.093  1.8602 -0.6395 -0.4063
14362TIP3   OH243030   0.790   1.395   1.957  0.3099 -0.5921 -0.0203
14362TIP3    H143031   0.878   1.379   1.925  0.5716  0.5157  0.1511
14362TIP3    H243032   0.735   1.335   1.906  1.1836 -1.4894  0.0743
14363TIP3   OH243033   7.352   0.219   1.786  0.2024 -0.1726  0.8634
14363TIP3    H143034   7.300   0.252   1.713  0.7022  0.1684  0.6661
14363TIP3    H243035   7.288   0.210   1.857 -0.5886 -1.9230 -0.0302
14364TIP3   OH243036   6.564   3.369   1.292 -0.2222 -0.1661  0.9067
14364TIP3    H143037   6.659   3.354   1.297 -0.3797 -1.1634  0.8742
14364TIP3    H243038   6.556   3.446   1.235  0.5774  0.0572  1.0789
14365TIP3   OH243039   2.176   6.176   6.780  0.1117 -0.4880 -0.1733
14365TIP3    H143040   2.085   6.156   6.800  0.7351 -0.7679  2.6611
14365TIP3    H243041   2.224   6.095   6.801  1.3509  0.5968  1.4047
14366TIP3   OH243042   2.190   7.259   6.120  0.0628 -0.6008 -0.2095
14366TIP3    H143043   2.121   7.281   6.183 -0.0341  1.0715 -0.8698
14366TIP3    H243044   2.152   7.188   6.068 -1.2092  0.3583 -0.6194
14367TIP3   OH243045   6.359   2.035   2.660 -0.3725  0.0783  0.0932
14367TIP3    H143046   6.384   2.018   2.751 -0.2146  1.7124  0.3629
14367TIP3    H243047   6.273   1.993   2.651 -0.6672  0.4162  1.1751
14368TIP3   OH243048   0.054   2.119   0.950 -0.0126 -0.2965 -0.6348
14368TIP3    H143049   0.106   2.195   0.976  0.4690 -0.6507 -0.5329
14368TIP3    H243050  -0.037   2.146   0.960  0.1607  0.0784 -0.0550
14369TIP3   OH243051   7.093   1.523   0.970 -0.0444  0.1788  0.3165
14369TIP3    H143052   7.187   1.503   0.972 -0.5835 -2.5656  0.8327
14369TIP3    H243053   7.064   1.491   0.884 -0.5595  0.8332  0.2432
14370TIP3   OH243054   6.718   2.853   0.580 -0.2913  0.1494 -0.3938
14370TIP3    H143055   6.652   2.797   0.622  0.7561 -0.7445  0.0678
14370TIP3    H243056   6.757   2.797   0.513  0.2699  0.5652 -0.4131
14371TIP3   OH243057   8.204   4.258   1.366  0.8178 -0.5512  0.2384
14371TIP3    H143058   8.254   4.310   1.304 -2.0827 -0.2839 -1.9318
14371TIP3    H243059   8.165   4.322   1.426 -0.6077 -0.4058 -0.8350
14372TIP3   OH243060   6.783   2.433   0.971  0.5248  0.2067  0.2316
14372TIP3    H143061   6.757   2.508   0.917  0.0171  0.2782  0.5785
14372TIP3    H243062   6.747   2.357   0.926 -0.3328  0.3103  0.7420
14373TIP3   OH243063   2.906   7.520   1.752  0.6606  0.0502  0.2677
14373TIP3    H143064   2.998   7.527   1.774  0.4687  1.3607  0.7188
14373TIP3    H243065   2.860   7.553   1.829 -0.1723 -0.1681 -0.1278
14374TIP3   OH243066   7.333   2.429   1.709  0.6650 -0.4302 -0.1356
14374TIP3    H143067   7.394   2.414   1.636  0.4509  0.8446 -0.5927
14374TIP3    H243068   7.386   2.476   1.774  0.1127  0.9257 -0.6484
14375TIP3   OH243069   5.872   2.329   1.545  0.2408  0.3653 -0.2367
14375TIP3    H143070   5.808   2.287   1.602  1.4582 -2.1419 -0.6302
14375TIP3    H243071   5.821   2.364   1.472 -0.8537 -0.0193  0.3326
14376TIP3   OH243072   0.061   1.338   1.657  0.1225  0.3131  0.2623
14376TIP3    H143073  -0.002   1.275   1.693 -1.6300  1.1968 -1.1684
14376TIP3    H243074   0.141   1.287   1.645 -0.2561 -0.8120  2.2301
14377TIP3   OH243075   6.724   4.921   0.143 -0.1373 -0.5052 -0.2370
14377TIP3    H143076   6.671   5.000   0.153 -1.3344 -1.4136  0.7550
14377TIP3    H243077   6.701   4.888   0.056 -0.8351 -0.6130 -0.0172
14378TIP3   OH243078   1.860   1.881   1.221 -0.4559  0.6008 -0.2669
14378TIP3    H143079   1.792   1.922   1.166  0.3938  1.4488 -0.7059
14378TIP3    H243080   1.829   1.792   1.234 -2.3240  1.3484  0.6489
14379TIP3   OH243081   7.343   1.823   2.482  0.1567 -0.3264 -0.6223
14379TIP3    H143082   7.391   1.904   2.497 -1.1864  0.5261 -0.8959
14379TIP3    H243083   7.302   1.802   2.566  0.8228 -0.9534 -0.4409
14380TIP3   OH243084   8.300   2.312   1.477 -0.1094  0.2576 -0.4628
14380TIP3    H143085   8.371   2.299   1.540 -0.5530 -0.7151 -0.1490
14380TIP3    H243086   8.239   2.371   1.522  0.5367  1.1905 -0.7790
14381TIP3   OH243087   7.200   2.122   2.446 -0.3746  0.8695  0.1288
14381TIP3    H143088   7.152   2.077   2.516 -0.4282  1.2697  0.3477
14381TIP3    H243089   7.292   2.096   2.459 -0.5461 -0.0234 -0.3879
14382TIP3   OH243090   1.682   3.912   1.422 -0.0007  0.4817  0.0562
14382TIP3    H143091   1.619   3.950   1.361 -1.2724  1.3554  1.8467
14382TIP3    H243092   1.739   3.984   1.447  0.5006  0.1382 -0.0967
14383TIP3   OH243093   7.982   2.794   1.517  0.2050 -0.3144  0.9018
14383TIP3    H143094   7.961   2.793   1.611 -1.2668  2.0893  0.6552
14383TIP3    H243095   7.897   2.793   1.473  0.7216  2.5454 -0.2918
14384TIP3   OH243096   8.003   2.457   1.402  0.3498 -0.8991  0.3032
14384TIP3    H143097   7.976   2.543   1.370  0.6476 -0.6825  0.6313
14384TIP3    H243098   8.006   2.403   1.323 -1.6051 -1.0883  0.3421
14385TIP3   OH243099   0.312   2.051   0.629  0.0815 -0.4624  0.5315
14385TIP3    H143100   0.229   2.045   0.581  0.1892  0.5414  0.1900
14385TIP3    H243101   0.322   2.145   0.646  0.9393 -0.6281  0.9448
14386TIP3   OH243102   7.661   0.184   2.201 -0.6411  0.3782  0.0574
14386TIP3    H143103   7.642   0.176   2.108  1.4140 -1.2991 -0.2527
14386TIP3    H243104   7.582   0.151   2.245 -0.4627 -1.7271 -1.1323
14387TIP3   OH243105   7.948   1.101   4.060 -0.3390 -0.1436 -0.0069
14387TIP3    H143106   7.989   1.184   4.084  2.9943 -1.4815 -0.8680
14387TIP3    H243107   7.893   1.079   4.135  0.8267  1.5418  1.3725
14388TIP3   OH243108   1.098   3.121   5.438 -0.5764  0.3863  0.2516
14388TIP3    H143109   1.087   3.026   5.433 -1.2274  0.5959 -3.7917
14388TIP3    H243110   1.014   3.153   5.471 -0.7486 -0.3674  0.5512
14389TIP3   OH243111   0.869   3.861   6.589 -0.0024  0.0470 -0.2399
14389TIP3    H143112   0.871   3.938   6.645  0.7319 -0.1856  0.0547
14389TIP3    H243113   0.785   3.819   6.609  0.4025 -0.2145  0.9157
14390TIP3   OH243114   7.914   2.535   1.698  0.0353  0.0341 -0.0347
14390TIP3    H143115   7.952   2.466   1.644 -0.7249 -0.1980 -0.2752
14390TIP3    H243116   7.830   2.500   1.727  1.1859 -0.5427  2.7278
14391TIP3   OH243117   1.900   2.786   0.655  0.1778 -0.1040  0.7023
14391TIP3    H143118   1.879   2.830   0.572 -2.5079 -0.9311  0.8829
14391TIP3    H243119   1.896   2.856   0.720 -0.5185  0.0475  0.5034
14392TIP3   OH243120   6.356   3.405   1.797  0.4218  0.7301  0.7540
14392TIP3    H143121   6.421   3.468   1.826  2.2583 -1.0953  0.7190
14392TIP3    H243122   6.332   3.356   1.876  0.0236  0.5745  0.5399
14393TIP3   OH243123   8.210   1.989   3.363 -0.4672  0.6662  0.7991
14393TIP3    H143124   8.303   1.963   3.360 -0.5353  0.0372  2.9985
14393TIP3    H243125   8.168   1.922   3.416 -2.1408  1.1364  0.1080
14394TIP3   OH243126   0.872   4.650   2.740 -0.2639 -0.2940  0.1339
14394TIP3    H143127   0.905   4.594   2.669 -0.7210 -2.7291  1.7497
14394TIP3    H243128   0.887   4.598   2.819  0.9410  2.6656  1.9255
14395TIP3   OH243129   0.629   3.065   1.876 -0.1789  0.0213 -0.5891
14395TIP3    H143130   0.547   3.111   1.856 -0.5706  0.0398  1.0384
14395TIP3    H243131   0.694   3.134   1.887 -0.2270  0.0690 -0.6047
14396TIP3   OH243132   0.580   1.910   0.622  0.6503  0.2355 -0.4053
14396TIP3    H143133   0.614   1.888   0.708 -0.7639 -0.3264  0.0295
14396TIP3    H243134   0.655   1.902   0.563  1.8663  1.6558  0.9229
14397TIP3   OH243135   2.365   0.323   1.265 -0.2719 -0.1810 -0.1209
14397TIP3    H143136   2.271   0.341   1.258 -0.3106 -0.3407  0.0014
14397TIP3    H243137   2.381   0.310   1.358 -0.3170 -1.1573 -0.2372
14398TIP3   OH243138   7.959   3.347   1.571 -0.7266 -0.2585 -0.1643
14398TIP3    H143139   7.969   3.288   1.496 -0.4616 -0.3775 -0.0356
14398TIP3    H243140   7.983   3.294   1.647  0.9435  0.4332 -0.1891
14399TIP3   OH243141   1.915   2.903   0.409 -0.4599  0.7520  0.4014
14399TIP3    H143142   1.994   2.953   0.427  0.5847 -0.7157 -0.0798
14399TIP3    H243143   1.885   2.937   0.324  0.8263 -0.1293 -0.4288
14400TIP3   OH243144   7.225   1.963   1.792  0.1620 -0.3771 -0.2157
14400TIP3    H143145   7.200   1.896   1.856  0.3305  0.9494  1.2611
14400TIP3    H243146   7.317   1.943   1.772  0.2735 -0.4731  0.3657
14401TIP3   OH243147   2.791   1.778  -0.015  0.3606 -0.1752  0.2487
14401TIP3    H143148   2.716   1.836  -0.026  1.7183  2.5080  4.1942
14401TIP3    H243149   2.764   1.716   0.052  0.6347 -1.1248 -0.4984
14402TIP3   OH243150   6.960   0.875   2.174 -0.1520 -0.2200  0.4327
14402TIP3    H143151   6.950   0.903   2.265  1.7961  1.9928  0.0318
14402TIP3    H243152   7.046   0.831   2.172 -0.4673 -0.8114 -0.2051
14403TIP3   OH243153   1.188   4.473   1.361  0.7705 -0.0436 -0.0063
14403TIP3    H143154   1.113   4.441   1.310  0.7675 -3.5115  1.9797
14403TIP3    H243155   1.149   4.513   1.438  0.9085 -1.6316  0.9096
14404TIP3   OH243156   0.379   3.150   2.009  0.3213 -0.1127  0.4234
14404TIP3    H143157   0.413   3.180   2.094  1.0255 -1.4294  0.6133
14404TIP3    H243158   0.342   3.064   2.027 -1.0675  0.3261 -0.2732
14405TIP3   OH243159   3.988   6.789   6.319  0.6768 -0.0011  0.0589
14405TIP3    H143160   3.999   6.757   6.408 -0.1173 -0.6898 -0.0785
14405TIP3    H243161   3.894   6.783   6.303  0.5135  2.3640  0.0019
14406TIP3   OH243162   8.427   3.092   1.269  0.1885  0.0938 -0.0414
14406TIP3    H143163   8.448   3.037   1.345 -0.3638  0.5985  0.4755
14406TIP3    H243164   8.363   3.155   1.302  1.7076  1.8210 -0.3174
14407TIP3   OH243165   1.110   3.268   1.754  0.7830  0.0492 -0.6550
14407TIP3    H143166   1.187   3.235   1.801 -0.9707 -1.4854  1.2757
14407TIP3    H243167   1.061   3.317   1.820 -1.5027 -1.7516 -0.9654
14408TIP3   OH243168   1.976   4.137   0.748 -0.5818 -0.0025  0.3192
14408TIP3    H143169   2.048   4.182   0.792 -1.1655  0.1458  1.1550
14408TIP3    H243170   2.016   4.065   0.701  0.1836  0.4711  0.2424
14409TIP3   OH243171   1.232   1.980   2.352 -0.7930 -0.1801  0.2702
14409TIP3    H143172   1.222   2.035   2.274  0.8650  0.4581  0.5007
14409TIP3    H243173   1.273   2.037   2.416  2.7531 -2.1996 -0.1137
14410TIP3   OH243174   0.826   2.880   1.287  0.2414 -0.5912 -0.4619
14410TIP3    H143175   0.890   2.816   1.254  0.0591 -0.5021 -0.9984
14410TIP3    H243176   0.803   2.849   1.374  1.4991 -0.2823 -0.0111
14411TIP3   OH243177   0.065   4.441   1.240  0.1907 -0.3773  0.3983
14411TIP3    H143178  -0.006   4.501   1.217  0.4121 -0.6333 -0.9792
14411TIP3    H243179   0.142   4.498   1.252 -0.0574 -0.1840  1.0634
14412TIP3   OH243180   0.324   3.402   1.247  0.3071  0.6749 -0.1202
14412TIP3    H143181   0.323   3.354   1.331 -1.4645 -1.2878 -1.2213
14412TIP3    H243182   0.293   3.489   1.269 -0.6254  0.0316  1.2013
14413TIP3   OH243183   1.132   2.016   1.850 -0.7475 -0.1282 -0.2907
14413TIP3    H143184   1.160   1.925   1.861 -2.5945 -0.4267  2.2811
14413TIP3    H243185   1.151   2.035   1.758  0.3361 -2.8621 -0.6959
14414TIP3   OH243186   7.442   2.227   3.648  0.0903 -0.5673  0.0714
14414TIP3    H143187   7.500   2.297   3.678 -1.9005  1.5289 -0.7996
14414TIP3    H243188   7.460   2.153   3.706  1.6961  0.9185  1.4870
14415TIP3   OH243189   3.839   5.641   6.722  0.4996 -0.0641  0.0493
14415TIP3    H143190   3.919   5.648   6.671  1.2225  0.6817  1.2459
14415TIP3    H243191   3.869   5.641   6.813 -0.8836  0.7681  0.5235
14416TIP3   OH243192   7.984   2.293   1.179 -0.2414 -0.2372  0.5019
14416TIP3    H143193   7.977   2.323   1.088  1.3679  2.1831  1.0975
14416TIP3    H243194   8.078   2.296   1.197 -0.3787 -2.4627  1.7074
14417TIP3   OH243195   0.200   0.120   6.312 -0.4353  0.1284  0.5542
14417TIP3    H143196   0.247   0.196   6.279 -1.5647  0.1930 -0.9566
14417TIP3    H243197   0.176   0.070   6.233 -1.1950 -0.9024  1.4177
14418TIP3   OH243198   1.496   3.077   0.393  1.0450  0.8990  0.8012
14418TIP3    H143199   1.464   3.033   0.315  0.7695  2.5356 -0.0391
14418TIP3    H243200   1.449   3.036   0.466 -0.0071  0.5656 -0.0595
14419TIP3   OH243201   7.976   2.115   2.471 -0.6061  0.2456  0.1591
14419TIP3    H143202   7.937   2.028   2.460  0.1901 -0.2807  1.3274
14419TIP3    H243203   7.946   2.144   2.557 -2.4889  1.9985 -1.0659
14420TIP3   OH243204   7.118   3.311   0.026  0.0465  0.3402  0.1547
14420TIP3    H143205   7.056   3.326   0.098 -1.6341  0.9690 -1.3919
14420TIP3    H243206   7.082   3.360  -0.048  1.5769 -0.5566 -1.2248
14421TIP3   OH243207   6.102   2.330   1.378  0.3448 -0.3030 -0.2430
14421TIP3    H143208   6.166   2.266   1.409 -2.1200 -2.2086  1.0188
14421TIP3    H243209   6.040   2.340   1.451  0.1292  2.8098 -0.7750
14422TIP3   OH243210   8.277   2.582   1.645 -0.4700 -0.1854 -0.3843
14422TIP3    H143211   8.323   2.541   1.718 -1.2143 -0.2815  0.0359
14422TIP3    H243212   8.208   2.634   1.686 -2.8697 -2.6685 -1.1161
14423TIP3   OH243213   3.491   5.450   5.861  0.2744  0.5515  0.0156
14423TIP3    H143214   3.422   5.409   5.809  0.6798 -1.3478  0.9312
14423TIP3    H243215   3.492   5.541   5.832 -1.6625  0.2730 -1.0095
14424TIP3   OH243216   1.643   4.441   1.255 -0.2901 -0.1530 -0.1008
14424TIP3    H143217   1.549   4.426   1.255  0.2093 -3.7744  1.6792
14424TIP3    H243218   1.663   4.471   1.343  0.2074  1.0672 -0.6081
14425TIP3   OH243219   0.746   0.756   0.373 -0.3853  0.3531  0.2319
14425TIP3    H143220   0.830   0.801   0.366 -0.0910 -0.6209 -2.9542
14425TIP3    H243221   0.763   0.684   0.434  0.6700  1.0793  0.8165
14426TIP3   OH243222   0.436   2.314   2.338 -0.4113  0.3803 -0.0175
14426TIP3    H143223   0.418   2.224   2.313 -2.0499  0.8497 -0.6506
14426TIP3    H243224   0.531   2.319   2.347 -0.2356 -1.1747 -0.8669
14427TIP3   OH243225   1.001   6.962   6.586  0.0910 -0.2510  0.3581
14427TIP3    H143226   1.089   6.947   6.552  0.5908 -0.6936  1.8376
14427TIP3    H243227   0.950   6.888   6.554  0.4454 -0.4109  0.1589
14428TIP3   OH243228   8.298   2.234   0.151 -0.1506  0.3386 -0.0977
14428TIP3    H143229   8.288   2.141   0.172 -0.7280  0.1640 -1.1309
14428TIP3    H243230   8.382   2.239   0.106  0.2321  0.4412  0.6106
14429TIP3   OH243231   7.311   4.374   0.353 -0.1898 -0.3586 -0.0660
14429TIP3    H143232   7.316   4.317   0.430 -2.2333 -0.1850  0.2181
14429TIP3    H243233   7.362   4.452   0.378 -0.4377 -0.5034  0.9357
14430TIP3   OH243234   0.816   4.108   2.020  0.7301 -0.1320  0.0835
14430TIP3    H143235   0.826   4.035   1.959  0.8100 -0.3446  0.3493
14430TIP3    H243236   0.904   4.146   2.026  0.9633 -0.7952  0.9168
14431TIP3   OH243237   1.582   3.280   0.036  0.1107  0.0220  0.2122
14431TIP3    H143238   1.623   3.340   0.099  1.6887  0.4402 -1.1897
14431TIP3    H243239   1.488   3.291   0.051  0.4502  0.3123  2.3137
14432TIP3   OH243240   0.859   1.676   1.370 -0.3819 -0.0354 -0.4826
14432TIP3    H143241   0.912   1.639   1.299  1.9580 -1.8683  2.1235
14432TIP3    H243242   0.815   1.601   1.408  0.0908  0.6251  1.3914
14433TIP3   OH243243   3.214   5.958   6.211 -0.0317  0.2318 -0.1107
14433TIP3    H143244   3.144   5.910   6.167  0.5788 -1.4067  0.6921
14433TIP3    H243245   3.170   6.036   6.246 -1.1405 -0.0233 -0.9176
14434TIP3   OH243246   1.031   4.539   0.963  0.4911  0.0725 -0.5374
14434TIP3    H143247   1.124   4.522   0.976  0.6187  1.0269 -0.1513
14434TIP3    H243248   0.995   4.455   0.935  2.1437  0.4736 -4.3377
14435TIP3   OH243249   2.270   5.993   5.705  0.3088  0.1489 -0.0023
14435TIP3    H143250   2.314   5.917   5.744  0.6205  0.2484 -0.1540
14435TIP3    H243251   2.228   5.958   5.627  0.5782  0.1592 -0.1549
14436TIP3   OH243252   7.433   1.809   1.738 -0.3363  0.4740 -0.3388
14436TIP3    H143253   7.418   1.718   1.764 -0.5222  0.7630  0.5735
14436TIP3    H243254   7.527   1.823   1.754 -0.6034  0.8873  0.9571
14437TIP3   OH243255   1.750   4.702   1.726  0.2605  0.1104 -0.4639
14437TIP3    H143256   1.711   4.727   1.810 -1.2553  0.4570 -1.2575
14437TIP3    H243257   1.758   4.784   1.678  1.3924 -0.0507 -0.5672
14438TIP3   OH243258   0.157   3.285   2.216  0.4576 -0.2963  0.2063
14438TIP3    H143259   0.147   3.223   2.144 -0.0505 -0.0217  0.0402
14438TIP3    H243260   0.072   3.285   2.260  0.8741 -0.7233  1.0191
14439TIP3   OH243261   4.290   5.165   6.889 -0.4073  0.1103  0.1701
14439TIP3    H143262   4.347   5.150   6.964  1.1706 -1.9565 -1.3992
14439TIP3    H243263   4.333   5.234   6.839 -1.7130  1.8477  1.3463
14440TIP3   OH243264   4.453   7.806   6.326  0.1381 -0.0492  0.2097
14440TIP3    H143265   4.471   7.751   6.250 -3.4777  0.2205 -0.9263
14440TIP3    H243266   4.448   7.745   6.399 -0.1586 -0.7916 -0.4240
14441TIP3   OH243267   6.791   0.038   1.407  0.2959 -0.2522 -0.0216
14441TIP3    H143268   6.746  -0.046   1.400 -0.3986  0.2380 -1.7764
14441TIP3    H243269   6.726   0.102   1.379  0.9854  0.8184  0.8009
14442TIP3   OH243270   0.085   4.952   2.397 -0.3997  0.5472  0.0556
14442TIP3    H143271   0.084   4.991   2.310  0.0788  3.0137  1.1085
14442TIP3    H243272  -0.002   4.969   2.433 -0.1939  0.6490  0.5163
14443TIP3   OH243273   7.832   1.812   1.593 -0.1657 -0.0433 -0.1475
14443TIP3    H143274   7.779   1.756   1.536 -2.1614  0.5948  1.0695
14443TIP3    H243275   7.922   1.797   1.563 -0.8528 -2.3647 -1.1662
14444TIP3   OH243276   2.575   1.173   0.269 -0.4532  0.1301  0.0229
14444TIP3    H143277   2.587   1.096   0.213 -2.5181 -0.2982  0.1313
14444TIP3    H243278   2.638   1.161   0.340 -1.2005 -1.8126  0.3902
14445TIP3   OH243279   1.586   3.142   1.896 -0.1086 -0.8185 -0.1859
14445TIP3    H143280   1.646   3.129   1.970 -0.2975 -0.1287  0.0939
14445TIP3    H243281   1.642   3.178   1.827 -0.4605  1.2844  0.5706
14446TIP3   OH243282   2.891   5.411   5.566 -0.5256 -0.1943 -0.2194
14446TIP3    H143283   2.860   5.348   5.631  0.4791 -0.5125 -0.0472
14446TIP3    H243284   2.872   5.370   5.482  0.1823 -0.7540 -0.1084
14447TIP3   OH243285   8.284   2.339   0.729  0.8997 -0.0491  0.4037
14447TIP3    H143286   8.259   2.397   0.656 -2.9209 -0.5286  1.2310
14447TIP3    H243287   8.293   2.253   0.689  3.9295  0.5366 -0.3392
14448TIP3   OH243288   6.973   7.557   1.415  0.6457 -0.2122 -0.0341
14448TIP3    H143289   6.968   7.613   1.337 -0.6883 -1.3691 -0.7976
14448TIP3    H243290   7.046   7.498   1.397  0.5224 -0.2908 -0.2779
14449TIP3   OH243291   6.478   0.716   0.350  0.2006  0.2916 -0.3113
14449TIP3    H143292   6.446   0.663   0.277 -0.6228 -1.7047  1.4554
14449TIP3    H243293   6.574   0.713   0.342  0.1200 -0.0313 -1.2109
14450TIP3   OH243294   7.638   2.207   2.480  0.0615  0.2097  0.6658
14450TIP3    H143295   7.618   2.292   2.441  0.7919  0.4708  0.8613
14450TIP3    H243296   7.702   2.226   2.549 -0.4288 -0.3842  1.2954
14451TIP3   OH243297   2.452   1.637   0.379  0.1524  0.2867 -0.4310
14451TIP3    H143298   2.405   1.555   0.365  0.1384  0.5673 -2.1406
14451TIP3    H243299   2.387   1.695   0.419 -0.6621  0.3315 -1.7794
14452TIP3   OH243300   3.440   6.404   6.278 -0.1504 -0.9534  0.5460
14452TIP3    H143301   3.536   6.404   6.282 -0.0747 -2.2334 -0.9001
14452TIP3    H243302   3.419   6.439   6.191 -1.0443  0.9358  1.4994
14453TIP3   OH243303   0.650   3.016   2.150 -0.3951 -0.6689  0.7247
14453TIP3    H143304   0.632   3.032   2.058 -1.2705  0.3731  1.0641
14453TIP3    H243305   0.713   3.084   2.175 -0.9803 -0.2696  1.1493
14454TIP3   OH243306   1.349   3.395   0.115 -0.5924  0.6012 -0.3269
14454TIP3    H143307   1.374   3.380   0.206  2.4324  0.0036 -1.1865
14454TIP3    H243308   1.254   3.409   0.117 -0.7722 -0.7966  2.7159
14455TIP3   OH243309   2.342   2.243   0.120 -0.1008 -0.3944  0.2595
14455TIP3    H143310   2.315   2.286   0.039 -4.4170 -0.8975  1.3399
14455TIP3    H243311   2.350   2.151   0.097  2.2170 -0.0895 -0.3575
14456TIP3   OH243312   4.167   1.504   5.232  0.0252 -0.0344 -0.5645
14456TIP3    H143313   4.210   1.425   5.199  0.9086  0.5873 -0.9263
14456TIP3    H243314   4.230   1.574   5.216 -0.9178  0.8142 -0.6262
14457TIP3   OH243315   7.292   5.383   1.668  0.4434  1.0991 -0.0390
14457TIP3    H143316   7.383   5.355   1.654 -0.1576 -0.6138 -0.5777
14457TIP3    H243317   7.270   5.350   1.754  0.1575  1.0619 -0.1270
14458TIP3   OH243318   1.843   5.436   5.983 -0.2992 -0.8408 -0.1466
14458TIP3    H143319   1.893   5.493   5.924  0.0083 -0.0141  0.8977
14458TIP3    H243320   1.764   5.413   5.934  0.6973 -1.4453 -1.4749
14459TIP3   OH243321   4.653   5.132   5.207 -0.1872 -0.1131 -0.1354
14459TIP3    H143322   4.677   5.039   5.203  0.5244  0.0598  0.1379
14459TIP3    H243323   4.731   5.176   5.239 -1.1261  0.3627  1.5732
14460TIP3   OH243324   0.335   1.882   1.735  0.4547  0.8436  0.0126
14460TIP3    H143325   0.410   1.823   1.745  0.1028  0.1008 -1.5428
14460TIP3    H243326   0.307   1.901   1.824 -0.3749 -2.6254  0.5577
14461TIP3   OH243327   8.423   3.985   1.585 -0.4897  0.0427  0.2897
14461TIP3    H143328   8.462   4.050   1.527 -1.7966 -1.0415 -1.8805
14461TIP3    H243329   8.334   4.017   1.602 -0.2899  0.0913  1.2716
14462TIP3   OH243330   0.960   3.111   1.604 -0.0890  0.3311 -0.5438
14462TIP3    H143331   0.872   3.146   1.588 -0.7497 -0.2788  1.6845
14462TIP3    H243332   1.003   3.178   1.658  0.1061 -0.3284  0.1206
14463TIP3   OH243333   7.531   3.482   1.153  0.5361  0.7108  0.3332
14463TIP3    H143334   7.524   3.576   1.167  3.0782  0.9319  0.2989
14463TIP3    H243335   7.619   3.459   1.183 -0.1726 -1.7266  0.6985
14464TIP3   OH243336   2.735   7.849   6.715 -0.9356 -0.2187 -0.2773
14464TIP3    H143337   2.776   7.814   6.636 -0.7458 -1.5645  0.4005
14464TIP3    H243338   2.709   7.771   6.765  0.3907  0.6068  1.7516
14465TIP3   OH243339   6.891   3.217   0.252 -0.1257 -0.3717 -0.3968
14465TIP3    H143340   6.880   3.309   0.229  1.5239  0.2193  1.0644
14465TIP3    H243341   6.827   3.201   0.322  0.6643  0.0900  0.4344
14466TIP3   OH243342   0.691   2.542   1.923  0.1328  0.0048  0.3378
14466TIP3    H143343   0.670   2.465   1.976  1.8855  1.6979  3.6764
14466TIP3    H243344   0.784   2.558   1.941  0.7155  0.7852 -3.1672
14467TIP3   OH243345   0.831   4.018   1.176  0.2395 -0.2857  0.2651
14467TIP3    H143346   0.777   4.007   1.254 -0.1459 -1.2485 -0.1156
14467TIP3    H243347   0.811   3.941   1.122  1.0226  0.0041 -0.4657
14468TIP3   OH243348   0.743   4.978   0.379  0.4011 -0.5789  0.1397
14468TIP3    H143349   0.743   5.051   0.317  1.9186 -0.2373  0.5260
14468TIP3    H243350   0.720   5.016   0.463 -0.3654 -0.8262  0.0503
14469TIP3   OH243351   1.741   5.921   4.082  0.2846 -0.1637  0.0698
14469TIP3    H143352   1.754   5.996   4.140 -0.8176 -1.7852  2.5153
14469TIP3    H243353   1.656   5.886   4.109  1.0151 -2.5678 -0.6831
14470TIP3   OH243354   7.186   2.957   1.066  0.1930  0.4624 -0.1968
14470TIP3    H143355   7.145   2.996   0.989  1.4945 -0.3028 -1.2988
14470TIP3    H243356   7.181   2.863   1.051  2.8579  0.3429 -0.6889
14471TIP3   OH243357   8.287   2.341   1.215  0.5516  0.7998  0.5175
14471TIP3    H143358   8.299   2.332   1.310  1.7859  0.7258  0.3598
14471TIP3    H243359   8.322   2.428   1.195 -1.5430  1.6463  0.4253
14472TIP3   OH243360   1.068   7.019   6.224  0.1810  0.0311 -0.4116
14472TIP3    H143361   1.089   7.056   6.139  1.6897 -1.1581 -0.5908
14472TIP3    H243362   1.085   6.925   6.214 -0.6946 -0.2809  0.8711
14473TIP3   OH243363   0.504   4.023   2.557  0.0689  0.5158 -0.3531
14473TIP3    H143364   0.471   4.069   2.480  1.3608  0.2897 -1.0546
14473TIP3    H243365   0.500   3.930   2.533 -0.3014  0.3961  0.1643
14474TIP3   OH243366   4.536   5.521   6.374 -0.0411 -0.3162 -0.6949
14474TIP3    H143367   4.534   5.616   6.368  1.2382 -0.2150  0.4951
14474TIP3    H243368   4.462   5.492   6.319 -1.7958  1.4245  0.7077
14475TIP3   OH243369   7.324   4.419   2.202 -0.0375 -0.1415  0.0805
14475TIP3    H143370   7.299   4.487   2.139  2.7587 -0.3513 -1.3173
14475TIP3    H243371   7.362   4.350   2.149  1.8997 -0.5568  1.9471
14476TIP3   OH243372   4.312   6.390   5.820  0.5135  0.0940 -0.5202
14476TIP3    H143373   4.228   6.344   5.822  0.7455 -0.2872  1.6630
14476TIP3    H243374   4.349   6.368   5.735 -1.9207  0.8970 -1.8509
14477TIP3   OH243375   4.369   5.961   6.264  0.1017 -0.6464  0.4161
14477TIP3    H143376   4.340   5.922   6.181  0.7111 -1.3927  0.5483
14477TIP3    H243377   4.431   6.029   6.238  1.1617 -1.6443  0.3007
14478TIP3   OH243378   1.334   1.664   0.077  0.1603  0.4046  0.0207
14478TIP3    H143379   1.401   1.681   0.143 -0.6028 -1.1620  1.2243
14478TIP3    H243380   1.254   1.703   0.113 -0.4288 -1.1193  0.3961
14479TIP3   OH243381   1.470   6.512   6.880 -0.4994 -0.4363 -0.1208
14479TIP3    H143382   1.409   6.584   6.900 -0.1492 -0.4516  1.0378
14479TIP3    H243383   1.529   6.548   6.814 -0.5201  0.2391  0.2261
14480TIP3   OH243384   2.513   2.841   0.294  0.5443 -0.4592  0.3006
14480TIP3    H143385   2.565   2.770   0.333 -0.1750 -0.6451  0.9157
14480TIP3    H243386   2.473   2.886   0.368  1.6662  1.1290 -0.0375
14481TIP3   OH243387   3.353   2.502   0.899 -0.0704  0.2834  0.2466
14481TIP3    H143388   3.445   2.504   0.871  0.2085 -1.5397  0.9374
14481TIP3    H243389   3.314   2.579   0.858  1.6432  0.7986 -0.4880
14482TIP3   OH243390   0.044   2.511   1.176  0.2024  0.1532  0.8203
14482TIP3    H143391  -0.025   2.574   1.196 -1.1296 -1.2547  0.8043
14482TIP3    H243392   0.015   2.468   1.096  0.8157 -0.8286  1.1081
14483TIP3   OH243393   6.624   3.746   2.307  0.0295  0.7111  0.0630
14483TIP3    H143394   6.716   3.725   2.286 -0.7851 -2.4355 -0.5568
14483TIP3    H243395   6.605   3.823   2.253  1.1119 -1.0936 -3.0400
14484TIP3   OH243396   7.600   3.849   0.349  0.3247 -0.5989  0.0254
14484TIP3    H143397   7.631   3.850   0.439  1.2561  1.5268 -0.3085
14484TIP3    H243398   7.516   3.803   0.353 -0.5449  1.1151  2.2700
14485TIP3   OH243399   7.688   1.033   0.831 -0.3152  0.0779 -0.2847
14485TIP3    H143400   7.724   1.121   0.843 -0.1229 -0.2562  1.7021
14485TIP3    H243401   7.605   1.047   0.784 -1.5535  1.5747  2.2253
14486TIP3   OH243402   1.390   2.444   1.366  0.2233 -0.6448 -0.1462
14486TIP3    H143403   1.460   2.387   1.336  1.5027  0.3131  0.9418
14486TIP3    H243404   1.413   2.464   1.457  1.1557  3.5880 -1.2131
14487TIP3   OH243405   1.311   6.724   5.482  0.4321  0.1823  0.4456
14487TIP3    H143406   1.267   6.731   5.397 -0.3400  3.0233  1.0214
14487TIP3    H243407   1.400   6.698   5.461  0.0251  0.0407 -1.1773
14488TIP3   OH243408   1.074   4.183   2.110 -0.0133  0.0205 -0.5968
14488TIP3    H143409   1.113   4.110   2.061  1.8831  1.3999 -1.2156
14488TIP3    H243410   1.129   4.189   2.189 -1.0256 -0.0979  0.1194
14489TIP3   OH243411   1.578   3.865   0.407  0.3244  0.0153  0.4959
14489TIP3    H143412   1.548   3.774   0.410  1.6181 -0.4309  0.3840
14489TIP3    H243413   1.568   3.891   0.316  3.1294 -1.1537 -0.2104
14490TIP3   OH243414   2.941   6.617   6.638 -0.2905  0.0836 -0.2785
14490TIP3    H143415   2.956   6.529   6.673  0.7977 -0.2111 -1.4405
14490TIP3    H243416   2.912   6.603   6.548 -0.7667  0.9014 -0.2578
14491TIP3   OH243417   0.138   3.489   3.084 -0.0956  0.0858 -0.2160
14491TIP3    H143418   0.045   3.487   3.106 -0.1634  1.0946 -0.3777
14491TIP3    H243419   0.178   3.541   3.153  0.4212 -0.7456  0.1090
14492TIP3   OH243420   0.607   3.859   0.485  0.2686 -0.5016 -0.6194
14492TIP3    H143421   0.679   3.798   0.499 -0.4340 -1.1683  0.1233
14492TIP3    H243422   0.536   3.805   0.450 -0.9308 -0.4516  1.6555
14493TIP3   OH243423   1.265   1.763   1.769 -0.3147  0.1919 -0.2981
14493TIP3    H143424   1.284   1.683   1.819 -0.7721  0.0951 -0.2802
14493TIP3    H243425   1.251   1.733   1.679 -2.6385 -0.0234  0.0973
14494TIP3   OH243426   3.856   7.711   6.007 -0.7474  0.5394 -0.2254
14494TIP3    H143427   3.933   7.767   6.010 -0.1046 -0.4099  1.6524
14494TIP3    H243428   3.800   7.751   5.941  2.1026  0.2582 -2.9483
14495TIP3   OH243429   8.221   1.434   1.797 -0.3197  0.3134 -0.0438
14495TIP3    H143430   8.158   1.402   1.732  2.2609  2.3517 -3.7212
14495TIP3    H243431   8.214   1.529   1.793  1.0051  0.5028  1.5503
14496TIP3   OH243432   2.159   2.545   1.186  0.1447 -0.7153 -0.1170
14496TIP3    H143433   2.099   2.502   1.247 -0.7977  1.0330  0.2334
14496TIP3    H243434   2.242   2.499   1.198 -1.0729 -3.1571 -0.5637
14497TIP3   OH243435   0.455   2.636   0.816  0.4235 -0.2959 -0.1609
14497TIP3    H143436   0.483   2.579   0.888  0.8762 -0.4832 -0.4803
14497TIP3    H243437   0.380   2.684   0.851 -1.0078 -2.2739 -0.4281
14498TIP3   OH243438   1.770   3.871   3.413  0.3039  0.1828  0.0575
14498TIP3    H143439   1.785   3.804   3.346 -0.0219 -0.1090  0.2802
14498TIP3    H243440   1.743   3.823   3.491 -2.3607  0.7381 -0.4917
14499TIP3   OH243441   1.214   2.581   0.049 -0.2584  0.4089  0.9142
14499TIP3    H143442   1.230   2.520   0.121  0.3465  0.0737  0.5015
14499TIP3    H243443   1.119   2.593   0.048 -0.7374 -2.9236 -0.9308
14500TIP3   OH243444   4.464   7.212   6.249  0.0629  0.2235 -0.1509
14500TIP3    H143445   4.474   7.135   6.305  2.2489 -0.4246 -1.3787
14500TIP3    H243446   4.531   7.273   6.280 -0.6443  1.0350 -0.1892
14501TIP3   OH243447   8.334   5.066   2.327  0.1140 -0.0257 -0.0873
14501TIP3    H143448   8.299   5.036   2.243 -1.9670 -3.0382  1.7507
14501TIP3    H243449   8.264   5.118   2.365  0.5267  0.1884  0.3760
14502TIP3   OH243450   0.027   3.566   1.055 -1.0430  0.2451  0.3046
14502TIP3    H143451   0.038   3.485   1.105 -1.3587  0.6726  1.0913
14502TIP3    H243452   0.092   3.560   0.985 -1.6058 -1.0406 -0.1263
14503TIP3   OH243453   8.305   3.278   1.680 -0.3108 -0.7762  0.2390
14503TIP3    H143454   8.254   3.200   1.658 -0.9571  0.2119 -1.9468
14503TIP3    H243455   8.240   3.348   1.682  0.3966 -0.1429  1.3432
14504TIP3   OH243456   1.616   2.852   0.908 -0.7827 -0.1804  0.5811
14504TIP3    H143457   1.668   2.932   0.895  0.1517 -0.6439  1.4020
14504TIP3    H243458   1.673   2.782   0.878 -1.2252 -0.6223  0.7798
14505TIP3   OH243459   6.928   0.750   4.793 -0.2045  0.0315 -1.0405
14505TIP3    H143460   6.999   0.701   4.833 -1.1577  0.4524  1.2635
14505TIP3    H243461   6.908   0.702   4.712  1.0386 -1.4799 -0.4680
14506TIP3   OH243462   5.457   7.169   6.505 -0.3259 -0.5706  0.4798
14506TIP3    H143463   5.512   7.150   6.582 -0.0628 -0.4558  0.3211
14506TIP3    H243464   5.520   7.185   6.434 -0.5717 -0.9929  0.1660
14507TIP3   OH243465   0.492   4.756   2.075 -0.4362 -0.0503  0.0286
14507TIP3    H143466   0.492   4.786   2.166 -0.0887  0.1223 -0.0285
14507TIP3    H243467   0.408   4.712   2.064 -0.3714 -0.2827  0.5016
14508TIP3   OH243468   3.773   6.247   6.092  0.2762  0.3968  0.2011
14508TIP3    H143469   3.820   6.206   6.165  0.6364 -0.4039 -0.4717
14508TIP3    H243470   3.745   6.174   6.037 -2.1342  0.8309  0.8067
14509TIP3   OH243471   6.293   4.814   5.096 -0.6986  0.3875  0.1761
14509TIP3    H143472   6.216   4.810   5.040 -0.8880 -0.1676  0.4823
14509TIP3    H243473   6.274   4.885   5.157 -0.0792  1.6607 -1.0742
14510TIP3   OH243474   8.179   3.776   0.425  0.1878 -0.3841 -0.8089
14510TIP3    H143475   8.267   3.813   0.420 -0.3986  1.1148 -0.3469
14510TIP3    H243476   8.175   3.734   0.510 -0.4524  2.0244  0.4074
14511TIP3   OH243477   1.730   2.950   2.411 -0.1544  0.9674  0.0367
14511TIP3    H143478   1.640   2.935   2.384  0.2959  2.3179 -2.4423
14511TIP3    H243479   1.779   2.876   2.375  0.0787  1.5073 -0.7776
14512TIP3   OH243480   1.519   1.620   2.408 -0.0474 -0.1504 -0.0346
14512TIP3    H143481   1.557   1.581   2.329 -1.9942 -0.1941 -0.9888
14512TIP3    H243482   1.519   1.714   2.390 -1.5717 -0.2379 -0.6296
14513TIP3   OH243483   4.330   5.306   5.120 -0.0620  0.4723 -0.5354
14513TIP3    H143484   4.305   5.227   5.167 -0.4505 -0.0676 -1.6232
14513TIP3    H243485   4.248   5.353   5.105  0.0584  0.6529 -0.6429
14514TIP3   OH243486   1.426   4.509   5.872  0.0497  0.0260 -0.2202
14514TIP3    H143487   1.452   4.574   5.937  1.1467 -1.7297  1.1387
14514TIP3    H243488   1.461   4.541   5.790 -0.5000  1.7815  0.2216
14515TIP3   OH243489   2.205   2.566   3.897 -0.1643  0.4302  0.0562
14515TIP3    H143490   2.244   2.588   3.813  0.6227 -0.3926  0.1886
14515TIP3    H243491   2.151   2.489   3.879  2.4051 -1.6451  0.8433
14516TIP3   OH243492   1.880   3.951   0.449  0.4236 -0.8565 -0.0824
14516TIP3    H143493   1.900   3.899   0.371  0.5484 -0.1084 -0.5623
14516TIP3    H243494   1.785   3.951   0.454  0.4161 -0.9572 -0.2084
14517TIP3   OH243495   4.073   5.288   6.597  0.1197 -0.3200  0.0140
14517TIP3    H143496   4.003   5.353   6.596 -0.5614 -1.0477 -0.3932
14517TIP3    H243497   4.071   5.251   6.685 -0.6297 -0.9840 -0.2689
14518TIP3   OH243498   3.773   7.404   4.276  0.0343  0.9430  1.1224
14518TIP3    H143499   3.702   7.456   4.239 -0.5569  0.0504  0.9947
14518TIP3    H243500   3.850   7.428   4.225 -0.4507  0.9144  0.3775
14519TIP3   OH243501   8.147   3.472   1.799  0.3176 -0.3544 -0.3728
14519TIP3    H143502   8.217   3.517   1.846  0.4690 -0.4437 -0.5125
14519TIP3    H243503   8.069   3.525   1.815  0.9807  1.4179 -2.6505
14520TIP3   OH243504   2.796   3.384   0.092 -0.5485 -0.2096  0.0215
14520TIP3    H143505   2.766   3.339   0.172 -1.1800  0.2112  0.0288
14520TIP3    H243506   2.724   3.372   0.030 -0.3748  0.1008 -0.2402
14521TIP3   OH243507   4.577   4.374   4.653 -0.0385 -0.2599 -0.1109
14521TIP3    H143508   4.597   4.298   4.708  0.7191  0.6321  0.8478
14521TIP3    H243509   4.636   4.365   4.578 -0.5508 -1.0689 -0.4337
14522TIP3   OH243510   4.647   6.543   6.746  0.1342 -0.3923 -0.0715
14522TIP3    H143511   4.690   6.548   6.831 -0.0650  0.4348 -0.0178
14522TIP3    H243512   4.612   6.454   6.742  0.7581 -0.6563  0.4131
14523TIP3   OH243513   2.184   3.941   0.009 -0.2745  0.2499  0.6285
14523TIP3    H143514   2.157   4.014  -0.047 -1.2998 -1.0134 -0.5345
14523TIP3    H243515   2.102   3.906   0.044  0.2283 -0.2439  1.3264
14524TIP3   OH243516   0.831   4.272   0.706  0.0917  0.1394 -0.1759
14524TIP3    H143517   0.736   4.278   0.705  0.0223 -0.8206 -1.8753
14524TIP3    H243518   0.856   4.260   0.614  1.7294 -1.1133  0.3909
14525TIP3   OH243519   1.868   1.156   0.771  0.1273  0.3477 -0.3098
14525TIP3    H143520   1.869   1.096   0.696  1.6997  0.0900 -0.1002
14525TIP3    H243521   1.933   1.119   0.831  2.0969  2.9788 -0.7418
14526TIP3   OH243522   2.034   3.261   3.046 -0.5206 -0.0640  0.6232
14526TIP3    H143523   1.959   3.216   3.009  1.0950 -1.5988 -0.9155
14526TIP3    H243524   2.097   3.266   2.973  1.3953 -0.0603  2.2388
14527TIP3   OH243525   0.691   3.715   1.276  0.4197 -0.5361  0.4309
14527TIP3    H143526   0.696   3.626   1.241  0.9420 -0.0354 -0.8300
14527TIP3    H243527   0.743   3.767   1.214  0.9217  0.4775  1.6941
14528TIP3   OH243528   0.062   1.676   0.879  0.3358  0.5758  0.0529
14528TIP3    H143529   0.120   1.650   0.950  0.2722  1.2364  0.3518
14528TIP3    H243530   0.099   1.758   0.847  2.8298 -1.7851 -3.4911
14529TIP3   OH243531   1.537   5.606   6.698  0.6078 -0.0872 -0.0956
14529TIP3    H143532   1.559   5.698   6.686  0.5184  0.0119  0.5143
14529TIP3    H243533   1.517   5.575   6.610 -0.0707  0.6554 -0.2090
14530TIP3   OH243534   4.703   5.495   6.582 -0.6410 -0.0602 -0.0567
14530TIP3    H143535   4.774   5.459   6.529  1.2886  1.8388  1.1705
14530TIP3    H243536   4.632   5.509   6.520  0.0864 -1.8691 -1.3381
14531TIP3   OH243537   0.640   2.955   0.117  0.0977  0.0721 -0.0615
14531TIP3    H143538   0.633   2.859   0.118 -0.1956  0.0992  0.6087
14531TIP3    H243539   0.584   2.984   0.189 -0.6639  0.8074 -0.9200
14532TIP3   OH243540   4.357   5.894   6.619 -0.1585 -0.7284  0.0220
14532TIP3    H143541   4.272   5.876   6.658 -0.1967 -0.5287  0.0316
14532TIP3    H243542   4.420   5.856   6.681 -0.2645 -1.4509 -0.3059
14533TIP3   OH243543   0.142   0.731   0.185 -0.0599  0.4082 -0.5457
14533TIP3    H143544   0.162   0.758   0.095 -1.3346 -0.7884 -1.1893
14533TIP3    H243545   0.171   0.640   0.190 -0.6154  0.2648  0.0553
14534TIP3   OH243546   4.453   4.705   5.802  0.2864 -0.4127  0.6025
14534TIP3    H143547   4.507   4.774   5.763 -0.4181 -1.2151 -1.8769
14534TIP3    H243548   4.502   4.625   5.788  0.0295 -0.7200  1.4182
14535TIP3   OH243549   0.226   4.654   1.321 -0.0965 -0.4444  0.5548
14535TIP3    H143550   0.197   4.742   1.346 -0.7119 -0.4024 -0.2766
14535TIP3    H243551   0.310   4.667   1.277 -0.7562 -0.1439 -0.6294
14536TIP3   OH243552   8.439   7.085   0.691  0.4027  0.6014  0.3294
14536TIP3    H143553   8.405   7.018   0.632  0.4461  0.4957  0.4259
14536TIP3    H243554   8.366   7.145   0.703  0.7507  1.2653 -0.7806
14537TIP3   OH243555   2.139   7.876   6.305  0.4606  0.4530  0.3343
14537TIP3    H143556   2.206   7.864   6.238 -0.3585 -0.0517 -0.4038
14537TIP3    H243557   2.122   7.970   6.305 -0.7199  0.2432 -1.3312
14538TIP3   OH243558   4.620   4.473   2.471 -0.0462 -0.3691 -0.6096
14538TIP3    H143559   4.680   4.444   2.402 -0.7838  0.0940 -1.4618
14538TIP3    H243560   4.660   4.554   2.503  0.3397 -0.6256 -0.4391
14539TIP3   OH243561   0.625   3.925   0.751  0.7535 -0.0551 -0.0593
14539TIP3    H143562   0.639   3.960   0.663  0.5294  0.7287  0.2179
14539TIP3    H243563   0.713   3.903   0.782  0.7573 -1.2018 -0.8257
14540TIP3   OH243564   1.549   2.693   3.705 -0.1242 -0.5555  0.0639
14540TIP3    H143565   1.535   2.775   3.657  0.1114 -0.8803 -0.5531
14540TIP3    H243566   1.492   2.630   3.662  0.4561 -0.9697 -0.0982
14541TIP3   OH243567   1.947   5.812   0.977 -0.0116 -0.1307  0.6570
14541TIP3    H143568   1.976   5.768   1.056 -1.1221  0.1968  1.2575
14541TIP3    H243569   1.969   5.904   0.991  1.7150 -0.3610 -0.3231
14542TIP3   OH243570   2.285   4.009   0.313  0.3725  0.5511 -0.2996
14542TIP3    H143571   2.267   3.971   0.226 -0.3687 -2.4907  1.1282
14542TIP3    H243572   2.367   3.970   0.340  0.2775  1.0111  0.6622
14543TIP3   OH243573   2.579   4.950   6.478 -0.0635  0.5438  0.3417
14543TIP3    H143574   2.663   4.936   6.434  0.6050  2.7523  0.8239
14543TIP3    H243575   2.596   4.930   6.570 -0.2834  0.1612  0.2973
14544TIP3   OH243576   1.761   4.088   0.168  0.1862  0.4290 -0.1638
14544TIP3    H143577   1.695   4.028   0.132  0.4647 -0.4820  0.7984
14544TIP3    H243578   1.761   4.162   0.108  0.4930 -0.9520 -1.9242
14545TIP3   OH243579   7.593   1.585   4.465 -0.2780  0.0857  0.0590
14545TIP3    H143580   7.501   1.561   4.462 -0.2193 -0.2633  1.0995
14545TIP3    H243581   7.614   1.589   4.558  0.8187 -0.0566 -0.1812
14546TIP3   OH243582   3.334   3.502   3.180  0.6132 -0.1458 -0.3057
14546TIP3    H143583   3.364   3.589   3.155 -0.8167  0.4694  0.0220
14546TIP3    H243584   3.346   3.499   3.275 -0.0668 -0.0054 -0.2122
14547TIP3   OH243585   3.536   1.994   0.959  0.2564  0.2745 -0.0616
14547TIP3    H143586   3.446   1.994   0.929 -0.1722 -0.3392  1.1997
14547TIP3    H243587   3.571   1.909   0.932 -0.3945 -0.6457  1.9073
14548TIP3   OH243588   0.887   2.561   1.290  0.0545  0.7093  0.2012
14548TIP3    H143589   0.954   2.511   1.336  0.1350 -0.1608 -0.8337
14548TIP3    H243590   0.936   2.622   1.235 -0.0097  0.3325 -0.2736
14549TIP3   OH243591   2.324   4.844   6.410  0.2526 -0.5571  0.3134
14549TIP3    H143592   2.284   4.914   6.359 -1.5311 -1.7020  0.0859
14549TIP3    H243593   2.413   4.875   6.429  0.5708  0.3837 -2.4885
14550TIP3   OH243594   3.240   0.979   0.685 -0.3423  0.5212 -0.0863
14550TIP3    H143595   3.192   0.916   0.739 -0.7239  0.4290 -0.5320
14550TIP3    H243596   3.254   1.054   0.742 -0.1997  0.1723  0.3363
14551TIP3   OH243597   2.841   1.436   1.253 -0.3880  0.6273 -0.2581
14551TIP3    H143598   2.921   1.456   1.302  0.2728 -0.0771 -1.0248
14551TIP3    H243599   2.862   1.460   1.162 -0.8287 -0.1444 -0.5680
14552TIP3   OH243600   3.729   7.776   6.604  0.6947 -0.0247 -0.5913
14552TIP3    H143601   3.806   7.726   6.577  1.2611 -0.0817  1.1119
14552TIP3    H243602   3.762   7.864   6.622  0.3226  0.0202 -0.1191
14553TIP3   OH243603   2.702   3.203   3.038  0.1514  0.3025 -0.0403
14553TIP3    H143604   2.730   3.249   2.958  0.1584 -0.2885 -0.3784
14553TIP3    H243605   2.612   3.233   3.052 -0.5904 -1.2264 -1.4769
14554TIP3   OH243606   1.366   2.397   0.215 -0.1908 -0.0370  0.1815
14554TIP3    H143607   1.425   2.322   0.223  0.5188  0.5682  0.6670
14554TIP3    H243608   1.407   2.465   0.268 -0.3976  0.9672 -0.9343
14555TIP3   OH243609   1.100   4.966   0.631 -0.1316 -0.3577 -0.1946
14555TIP3    H143610   1.033   4.910   0.593  0.2134  0.4862 -2.1123
14555TIP3    H243611   1.180   4.943   0.583  0.5691 -0.1241  0.8513
14556TIP3   OH243612   5.101   7.053   6.810 -0.1268  0.2048  0.2692
14556TIP3    H143613   5.056   7.112   6.749 -0.9069 -1.3609 -0.7114
14556TIP3    H243614   5.112   7.105   6.889  0.0375  1.9793 -0.8735
14557TIP3   OH243615   0.782   2.444   2.563  0.2934  0.2386  0.0009
14557TIP3    H143616   0.766   2.538   2.559  0.2009  0.2026 -0.5182
14557TIP3    H243617   0.792   2.425   2.656  0.3828  0.7732  0.1017
14558TIP3   OH243618   0.697   4.714   0.442 -0.1006 -0.1625  0.5487
14558TIP3    H143619   0.648   4.685   0.364  1.3997 -1.8436  0.2078
14558TIP3    H243620   0.713   4.807   0.426 -2.3362  0.2004  0.2198
14559TIP3   OH243621   7.086   0.029   6.717  0.1925  0.0845  0.0026
14559TIP3    H143622   7.070  -0.065   6.723 -1.6944  0.3030 -1.0770
14559TIP3    H243623   7.181   0.037   6.705  0.1435 -1.8265 -2.1049
14560TIP3   OH243624   3.120   3.690   1.432  0.0057 -0.1932 -0.4153
14560TIP3    H143625   3.126   3.695   1.527 -0.6853 -0.1913 -0.3730
14560TIP3    H243626   3.150   3.776   1.402 -1.8965  0.5962 -0.1097
14561TIP3   OH243627   5.185   4.003   6.084 -0.4191  0.4027 -0.2083
14561TIP3    H143628   5.109   4.061   6.083  1.6410  3.2510 -1.9561
14561TIP3    H243629   5.173   3.948   6.161 -2.3879  3.3534  1.7085
14562TIP3   OH243630   7.790   2.192   5.687 -0.0176  0.2346 -0.2444
14562TIP3    H143631   7.735   2.235   5.752  0.7041  0.1757  0.4172
14562TIP3    H243632   7.769   2.099   5.695  0.5697  0.1529  0.3906
14563TIP3   OH243633   7.985   0.424   5.761 -0.0613  0.5990  0.4654
14563TIP3    H143634   8.054   0.382   5.811  0.8818  1.3846 -0.1631
14563TIP3    H243635   7.947   0.354   5.707  1.1949  0.4602 -0.2498
14564TIP3   OH243636   4.018   4.269   0.961 -0.3283 -0.0985  0.1783
14564TIP3    H143637   4.107   4.235   0.959  0.4504  1.9027 -0.6242
14564TIP3    H243638   3.976   4.233   0.884 -0.4034 -1.5239  0.8780
14565TIP3   OH243639   2.756   2.025   0.622 -0.0907 -0.1933 -0.0189
14565TIP3    H143640   2.833   2.062   0.579  0.7260 -0.4108  1.2506
14565TIP3    H243641   2.691   2.016   0.551  0.5815  1.2286 -0.8227
14566TIP3   OH243642   3.345   2.571   0.537 -0.2168  0.1273 -0.3344
14566TIP3    H143643   3.329   2.594   0.446  0.3733  0.0007 -0.4698
14566TIP3    H243644   3.334   2.476   0.540 -2.2816  0.3584  0.1489
14567TIP3   OH243645   1.850   1.283   0.108 -0.6324 -0.1977  0.6438
14567TIP3    H143646   1.888   1.371   0.112 -1.0246  0.0173 -0.1861
14567TIP3    H243647   1.926   1.224   0.108 -0.2913  0.2163 -0.7109
14568TIP3   OH243648   1.935   3.863   0.130  0.0740  0.0846  0.7852
14568TIP3    H143649   1.890   3.851   0.046  2.4716 -0.3716 -0.4762
14568TIP3    H243650   1.906   3.949   0.160 -0.9966  0.1537 -0.3835
14569TIP3   OH243651   2.313   4.369   0.616  0.0692  0.3024 -0.6521
14569TIP3    H143652   2.261   4.333   0.688 -0.5854 -1.3141 -1.8912
14569TIP3    H243653   2.314   4.463   0.631 -2.0132  0.2140  0.1880
14570TIP3   OH243654   3.207   2.963   1.804 -0.3660  0.2147 -0.0957
14570TIP3    H143655   3.293   2.920   1.798 -1.0310 -1.1409 -0.2037
14570TIP3    H243656   3.150   2.896   1.841 -0.5433  2.3337  3.7589
14571TIP3   OH243657   2.583   6.003   6.500 -0.0555 -0.8628 -0.3694
14571TIP3    H143658   2.629   6.072   6.452 -2.0412 -0.1759 -1.3170
14571TIP3    H243659   2.620   5.922   6.465  0.9443 -0.3214 -0.5920
14572TIP3   OH243660   4.223   3.332   1.014  0.2030  0.4876  0.0132
14572TIP3    H143661   4.257   3.420   1.031 -0.8977  1.0003 -0.3824
14572TIP3    H243662   4.167   3.342   0.937  0.2229 -0.6003 -0.1546
14573TIP3   OH243663   2.972   1.813   1.479 -0.3067  0.1855 -0.1084
14573TIP3    H143664   2.978   1.803   1.575 -2.4304 -2.4047 -0.1715
14573TIP3    H243665   3.056   1.781   1.447  0.3249  0.8196  0.8677
14574TIP3   OH243666   5.746   0.220   6.798 -0.0581  0.1720 -0.3230
14574TIP3    H143667   5.773   0.159   6.866  1.3849 -0.2103 -1.1993
14574TIP3    H243668   5.687   0.171   6.742 -0.6038  0.2421  0.1887
14575TIP3   OH243669   3.001   2.524   0.206 -0.1001  0.1440  0.1012
14575TIP3    H143670   2.957   2.520   0.291 -1.0651  2.2455 -0.2705
14575TIP3    H243671   2.950   2.466   0.150  0.3684 -1.0216  0.8394
14576TIP3   OH243672   1.642   2.478   2.453  0.2671 -0.0347 -0.3824
14576TIP3    H143673   1.735   2.496   2.438 -0.0690  1.4329 -0.8103
14576TIP3    H243674   1.619   2.411   2.389  1.4239 -1.6633  0.8517
14577TIP3   OH243675   8.080   4.417   0.742 -0.7656  0.6596 -0.5874
14577TIP3    H143676   8.061   4.434   0.834 -1.4632 -0.0626 -0.5895
14577TIP3    H243677   8.034   4.486   0.694 -0.7314  0.8038 -0.4094
14578TIP3   OH243678   6.532   0.377   5.331 -0.0690  0.4466  0.7141
14578TIP3    H143679   6.595   0.433   5.376 -0.2086 -0.4219  2.0037
14578TIP3    H243680   6.573   0.291   5.329 -0.1372  0.4355 -0.6937
14579TIP3   OH243681   6.404   0.397   6.705 -0.2400  0.3449 -0.2457
14579TIP3    H143682   6.491   0.357   6.703 -0.5774 -0.4683  0.8564
14579TIP3    H243683   6.386   0.420   6.614  0.7691 -0.2593 -0.6040
14580TIP3   OH243684   7.632   0.595   6.094 -0.5515 -0.5418  0.1424
14580TIP3    H143685   7.540   0.602   6.072 -0.6207 -0.8635  0.3387
14580TIP3    H243686   7.635   0.600   6.190 -0.3502 -0.3491  0.1282
14581TIP3   OH243687   5.582   7.105   5.111 -1.3312  0.0722  0.1218
14581TIP3    H143688   5.497   7.111   5.068 -2.1780 -0.8710  1.6360
14581TIP3    H243689   5.563   7.112   5.205  0.1441 -1.1758  0.5411
14582TIP3   OH243690   1.728   3.824   0.700 -0.1646 -0.3829 -0.0086
14582TIP3    H143691   1.759   3.772   0.627  0.3438  1.6002 -1.2369
14582TIP3    H243692   1.761   3.779   0.778 -2.5157 -3.7231 -0.8264
14583TIP3   OH243693   0.509   4.118   0.155 -0.1855 -0.0374 -0.1680
14583TIP3    H143694   0.506   4.091   0.063  0.1740 -0.3925 -0.0738
14583TIP3    H243695   0.547   4.044   0.201 -2.1670 -0.6484  0.5589
14584TIP3   OH243696   3.066   2.737   1.867 -0.0248  0.0354 -0.0399
14584TIP3    H143697   3.056   2.683   1.789 -0.1374 -0.6941  0.4765
14584TIP3    H243698   3.105   2.679   1.932 -0.1315  0.5783  0.5115
14585TIP3   OH243699   6.177   7.065   6.093 -0.4605  0.2088  0.2669
14585TIP3    H143700   6.197   6.990   6.149 -0.0491  2.3460  3.0458
14585TIP3    H243701   6.260   7.111   6.085 -1.1539  1.4636  0.2416
14586TIP3   OH243702   2.676   1.693   0.546 -0.0102  0.7678  0.2118
14586TIP3    H143703   2.602   1.666   0.490  0.0107  0.7771  0.1795
14586TIP3    H243704   2.667   1.788   0.554  0.6645  0.9245 -0.7506
14587TIP3   OH243705   2.590   3.154   1.961  0.2671  0.5790  0.8314
14587TIP3    H143706   2.519   3.217   1.954 -2.3719 -2.1061  2.4628
14587TIP3    H243707   2.616   3.156   2.053  0.9159  0.0887  0.6669
14588TIP3   OH243708   1.940   3.642   0.575 -0.4058 -0.9847 -0.0479
14588TIP3    H143709   1.881   3.567   0.575 -1.5525 -0.1023 -0.2553
14588TIP3    H243710   1.966   3.651   0.483 -1.0108 -0.5768 -0.1879
14589TIP3   OH243711   5.032   3.581   1.303  0.4991 -0.8797 -0.2355
14589TIP3    H143712   5.006   3.503   1.353 -0.2627 -0.6336 -0.2435
14589TIP3    H243713   4.965   3.589   1.236  0.0076  0.3856  0.4009
14590TIP3   OH243714   2.688   3.499   1.036  0.5966  0.0614 -0.3621
14590TIP3    H143715   2.612   3.440   1.037  1.1122 -0.6086  1.1885
14590TIP3    H243716   2.650   3.587   1.038 -0.1529 -0.2492 -0.6627
14591TIP3   OH243717   1.102   3.161   2.676 -0.0684 -0.0730  0.0037
14591TIP3    H143718   1.080   3.254   2.680 -0.4471 -0.1778  0.5038
14591TIP3    H243719   1.020   3.118   2.651  0.0557 -0.2892 -0.0319
14592TIP3   OH243720   4.459   5.672   4.574 -0.0919  0.5214  0.1260
14592TIP3    H143721   4.519   5.603   4.544  1.3245  1.8884 -0.2634
14592TIP3    H243722   4.497   5.702   4.657  0.2222  1.9482 -0.5266
14593TIP3   OH243723   8.002   0.704   0.982 -0.3986 -0.0177  0.0270
14593TIP3    H143724   7.977   0.753   0.903 -1.2552 -0.6922 -0.1190
14593TIP3    H243725   7.949   0.625   0.979 -1.2693  0.4679  1.8690
14594TIP3   OH243726   4.843   6.730   6.015 -0.1827  0.2794 -0.0557
14594TIP3    H143727   4.922   6.700   6.060 -0.9945  0.5264  1.6168
14594TIP3    H243728   4.836   6.823   6.038 -1.1368  0.1759  0.1283
14595TIP3   OH243729   4.753   3.685   3.051  0.2367  0.1943 -0.3859
14595TIP3    H143730   4.849   3.677   3.046  0.3127 -0.8156  1.9447
14595TIP3    H243731   4.725   3.687   2.959  2.3669 -1.1907 -1.1233
14596TIP3   OH243732   0.142   2.972   0.648 -0.3986  0.3624 -0.9088
14596TIP3    H143733   0.188   3.009   0.572 -2.0863  0.8716 -1.7111
14596TIP3    H243734   0.054   3.010   0.644 -1.1897 -1.2824  0.0795
14597TIP3   OH243735   0.399   2.819   1.127  0.2359  0.5409 -0.0282
14597TIP3    H143736   0.476   2.866   1.097  0.5913  0.8403  1.3416
14597TIP3    H243737   0.342   2.814   1.049  2.8004 -2.1253 -1.8513
14598TIP3   OH243738   4.543   6.938   5.388  0.0700  0.2711 -0.5662
14598TIP3    H143739   4.583   6.936   5.301 -0.7783  1.5033 -0.9990
14598TIP3    H243740   4.579   6.862   5.433  0.9110 -0.0842 -1.8242
14599TIP3   OH243741   4.486   6.177   6.827  0.0634 -0.2905 -0.2232
14599TIP3    H143742   4.422   6.246   6.807  0.3721 -0.4389 -1.7503
14599TIP3    H243743   4.562   6.198   6.772  0.1106 -1.9300 -0.8036
14600TIP3   OH243744   7.815   0.269   5.626 -0.0898  0.0274  0.0338
14600TIP3    H143745   7.827   0.265   5.531 -1.6152 -0.4514 -0.1453
14600TIP3    H243746   7.751   0.338   5.640 -1.4781 -1.3277  0.5504
14601TIP3   OH243747   5.608   6.664   5.387 -0.0817  0.0302  0.3165
14601TIP3    H143748   5.637   6.651   5.296  1.8546 -0.9149  1.0356
14601TIP3    H243749   5.513   6.674   5.381  0.1671  1.2897 -1.9459
14602TIP3   OH243750   3.818   7.273   6.757  0.0902 -0.0015  0.3620
14602TIP3    H143751   3.774   7.195   6.790 -2.1803  0.9442 -0.3041
14602TIP3    H243752   3.791   7.343   6.816  0.1973  0.7125 -0.4221
14603TIP3   OH243753   2.391   0.935   1.071  0.0347  0.0434  0.0092
14603TIP3    H143754   2.390   0.959   0.978 -0.5221 -0.4522 -0.1177
14603TIP3    H243755   2.440   0.853   1.074  1.7187  1.0413  0.4093
14604TIP3   OH243756   2.060   2.137   1.230  0.5376 -0.0165 -0.1275
14604TIP3    H143757   1.984   2.185   1.260  0.9434  1.1179 -0.8741
14604TIP3    H243758   2.026   2.074   1.166 -0.1886 -1.7514  1.9045
14605TIP3   OH243759   5.641   5.849   6.299  0.1167  0.2121 -0.6296
14605TIP3    H143760   5.582   5.911   6.341  2.1978  1.4165  0.6091
14605TIP3    H243761   5.596   5.823   6.219 -1.3198  2.3938 -0.5650
14606TIP3   OH243762   2.418   2.930   0.626  0.2344 -0.3835  0.0667
14606TIP3    H143763   2.392   2.847   0.667  0.6678 -0.0905  0.9555
14606TIP3    H243764   2.402   2.995   0.694 -2.7633  0.6691 -1.5303
14607TIP3   OH243765   4.703   3.299   1.259  0.4098  0.1340 -0.0780
14607TIP3    H143766   4.625   3.277   1.209 -0.3888 -0.6470  1.4699
14607TIP3    H243767   4.687   3.388   1.291  0.2539  0.0509  0.0709
14608TIP3   OH243768   1.301   2.550   1.063 -0.3306 -0.2561  0.4220
14608TIP3    H143769   1.226   2.610   1.065 -1.7948 -2.0837  0.8084
14608TIP3    H243770   1.326   2.547   0.971  0.0111  1.2179  0.4390
14609TIP3   OH243771   2.273   4.611   0.900 -0.1850  0.1627 -0.5474
14609TIP3    H143772   2.299   4.621   0.809  0.3994 -0.5198 -0.4569
14609TIP3    H243773   2.199   4.671   0.910 -1.0892 -0.7174 -1.8146
14610TIP3   OH243774   1.297   2.292   0.867  0.0217  0.5439 -0.1840
14610TIP3    H143775   1.288   2.356   0.796  1.4748  0.4657 -0.4653
14610TIP3    H243776   1.300   2.207   0.822 -0.9486  0.3390  0.1220
14611TIP3   OH243777   3.368   3.675   0.139 -0.1449  0.4072 -0.2730
14611TIP3    H143778   3.409   3.756   0.111 -0.6706  0.8738  0.3030
14611TIP3    H243779   3.275   3.688   0.121 -0.2719  0.0602  0.1317
14612TIP3   OH243780   2.090   3.905   0.640 -0.1116  0.7207  0.3538
14612TIP3    H143781   2.143   3.827   0.624  0.9710  1.4813  0.1898
14612TIP3    H243782   2.019   3.900   0.577 -1.7216 -1.6482  2.2633
14613TIP3   OH243783   1.233   2.690   1.657 -0.2350  0.2058 -0.3705
14613TIP3    H143784   1.168   2.691   1.728 -0.5391 -1.7377 -0.5886
14613TIP3    H243785   1.226   2.776   1.617 -2.4948  0.1264 -0.2059
14614TIP3   OH243786   5.208   7.464   4.595 -0.3079  0.4926 -0.3491
14614TIP3    H143787   5.214   7.403   4.522 -1.6825 -0.3361  0.2047
14614TIP3    H243788   5.290   7.451   4.644  0.1731  0.3515 -1.1909
14615TIP3   OH243789   4.234   6.322   6.439  0.4496  0.4097  0.0091
14615TIP3    H143790   4.192   6.273   6.368  0.6794  2.0246 -1.2894
14615TIP3    H243791   4.300   6.262   6.473  0.4498 -0.3404 -1.2548
14616TIP3   OH243792   1.182   2.291   1.121 -0.0857 -0.3384 -0.1662
14616TIP3    H143793   1.234   2.261   1.046 -0.7993  0.2629 -0.9131
14616TIP3    H243794   1.205   2.384   1.130  1.2361 -0.7943  1.4003
14617TIP3   OH243795   4.122   7.002   5.762  0.0704 -0.0192 -0.4904
14617TIP3    H143796   4.137   7.089   5.800 -1.8130 -0.2195  0.7457
14617TIP3    H243797   4.106   6.945   5.838  2.8847 -1.8213 -1.1621
14618TIP3   OH243798   2.584   3.633   1.446 -0.3070 -0.1855 -0.6013
14618TIP3    H143799   2.573   3.541   1.471  1.5118 -0.2575  0.0423
14618TIP3    H243800   2.679   3.644   1.440 -0.4153  2.1681  1.3708
14619TIP3   OH243801   7.780   0.469   6.731 -0.1342 -0.4946 -0.1981
14619TIP3    H143802   7.820   0.549   6.766 -1.5864 -0.6225  1.8820
14619TIP3    H243803   7.850   0.427   6.681  1.1544  1.2139  0.1200
14620TIP3   OH243804   1.136   3.790   0.244  0.3445 -0.1858 -0.1592
14620TIP3    H143805   1.089   3.862   0.286  0.3169 -0.1045 -0.3312
14620TIP3    H243806   1.150   3.726   0.315 -1.1961 -0.8207 -0.4113
14621TIP3   OH243807   1.269   4.166   1.381  0.0333  1.0724 -0.2208
14621TIP3    H143808   1.179   4.143   1.357  0.3123 -0.9973  0.6793
14621TIP3    H243809   1.266   4.177   1.476  0.4723  2.3056 -0.3353
14622TIP3   OH243810   0.762   0.643   5.126 -0.4746 -0.1776  0.5038
14622TIP3    H143811   0.716   0.710   5.075  1.3418  1.6888  1.2600
14622TIP3    H243812   0.706   0.629   5.203 -1.5183 -0.5028 -0.3056
14623TIP3   OH243813   4.720   7.650   6.599 -0.2101 -0.6889 -1.1506
14623TIP3    H143814   4.742   7.612   6.684  1.3064  1.7983 -0.3679
14623TIP3    H243815   4.795   7.628   6.543  1.2247  2.0320 -0.3722
14624TIP3   OH243816   5.210   0.903   4.011 -0.1725  0.2387  0.3150
14624TIP3    H143817   5.290   0.909   4.063  1.5019  1.8701 -2.3027
14624TIP3    H243818   5.208   0.812   3.981 -0.2054 -0.2433  1.7630
14625TIP3   OH243819   2.915   2.215   0.451 -0.3100  0.5109  0.4713
14625TIP3    H143820   2.902   2.306   0.480 -0.0295  0.8912 -0.5762
14625TIP3    H243821   2.847   2.202   0.384 -0.5642 -0.1556  0.8611
14626TIP3   OH243822   1.761   0.514   5.317  0.8199  0.1537  0.1008
14626TIP3    H143823   1.699   0.578   5.282 -1.6060 -1.5741  1.1096
14626TIP3    H243824   1.765   0.533   5.411 -0.1499 -1.3175  0.4620
14627TIP3   OH243825   5.615   6.663   5.773  0.2882  0.1599  0.2584
14627TIP3    H143826   5.614   6.751   5.812 -1.5720  0.0089  0.6204
14627TIP3    H243827   5.534   6.659   5.722  1.9413 -0.2054 -2.3852
14628TIP3   OH243828   2.120   2.669   0.950 -0.1069 -0.4678 -0.0670
14628TIP3    H143829   2.081   2.595   0.905 -1.7504 -0.7328  1.7231
14628TIP3    H243830   2.138   2.637   1.039  2.0978  0.3351 -0.1810
14629TIP3   OH243831   6.070   6.491   6.638  0.0088 -0.0998 -0.2356
14629TIP3    H143832   6.087   6.400   6.665  0.2086 -0.1943 -0.6724
14629TIP3    H243833   5.991   6.486   6.584  1.6295 -0.4512 -2.6674
14630TIP3   OH243834   1.068   3.425   2.082 -0.4502  1.0523 -0.7277
14630TIP3    H143835   1.077   3.352   2.143 -1.7282  1.0354 -0.5341
14630TIP3    H243836   1.157   3.441   2.050  0.0109  0.1353  0.0575
14631TIP3   OH243837   0.403   4.601   1.794  0.6049 -0.8924 -0.2660
14631TIP3    H143838   0.408   4.690   1.760 -0.2994 -0.8783 -0.3813
14631TIP3    H243839   0.489   4.563   1.776  0.7234 -0.3002 -0.9483
14632TIP3   OH243840   6.650   4.753   6.263 -0.1055  0.2898  0.1829
14632TIP3    H143841   6.578   4.691   6.249  1.0502 -0.9941 -0.1157
14632TIP3    H243842   6.625   4.801   6.342 -1.2710 -0.1701  0.1022
14633TIP3   OH243843   5.063   7.824   6.077 -0.2114 -0.2377  0.1734
14633TIP3    H143844   4.972   7.844   6.094 -0.0217 -0.2493  1.2520
14633TIP3    H243845   5.067   7.804   5.983 -1.8805 -3.1551  0.6615
14634TIP3   OH243846   6.023   5.196   5.184 -0.4311  0.1507 -0.0930
14634TIP3    H143847   5.970   5.181   5.105 -0.3913  3.2956 -0.7683
14634TIP3    H243848   5.963   5.180   5.256 -0.9331 -1.0981 -0.7634
14635TIP3   OH243849   1.806   3.190   0.681  0.4124 -0.1734 -0.2038
14635TIP3    H143850   1.820   3.152   0.595  1.0411  0.4282 -0.3711
14635TIP3    H243851   1.841   3.125   0.742  1.9668  0.3435 -0.5125
14636TIP3   OH243852   1.643   5.032   0.222  0.2065 -0.0115  0.0318
14636TIP3    H143853   1.706   4.963   0.240  0.8540  0.5523 -0.0469
14636TIP3    H243854   1.628   5.074   0.307 -0.8435 -0.7820  0.2488
14637TIP3   OH243855   0.120   1.730   0.426  0.4151  0.5683  0.4804
14637TIP3    H143856   0.185   1.740   0.495 -0.2683 -3.2278  1.7774
14637TIP3    H243857   0.158   1.665   0.366 -1.1417  0.1183 -0.0380
14638TIP3   OH243858   1.973   1.817  -0.035 -0.7207  0.0193 -0.5972
14638TIP3    H143859   1.982   1.901   0.009 -3.4234  0.4111 -0.7369
14638TIP3    H243860   2.002   1.752   0.030 -0.8066  0.8899  0.3118
14639TIP3   OH243861   7.754   2.614   2.847 -0.6428 -0.7136  0.3259
14639TIP3    H143862   7.783   2.666   2.773 -0.8132  1.2654  1.6199
14639TIP3    H243863   7.833   2.598   2.898 -0.6989 -1.2012  0.2635
14640TIP3   OH243864   2.089   6.078   1.040 -0.2471 -0.5039  0.3947
14640TIP3    H143865   2.036   6.092   0.962 -1.0757  0.5097  1.1126
14640TIP3    H243866   2.178   6.065   1.008 -0.8256 -1.6129 -0.8021
14641TIP3   OH243867   0.264   0.259   6.899 -0.2318 -0.3124 -0.3367
14641TIP3    H143868   0.322   0.335   6.893  0.4089 -0.8422 -0.8218
14641TIP3    H243869   0.322   0.184   6.910 -0.8720 -0.7263  0.3120
14642TIP3   OH243870   0.339   3.928   0.997  0.4864  0.0359  0.1815
14642TIP3    H143871   0.376   4.016   0.995  0.7042 -0.0396  0.8678
14642TIP3    H243872   0.392   3.881   1.061 -0.3790 -0.2589  0.6869
14643TIP3   OH243873   2.364   4.063   0.662  0.3110 -0.5308  0.1069
14643TIP3    H143874   2.275   4.044   0.635  0.6236 -0.8757 -0.6784
14643TIP3    H243875   2.360   4.153   0.697 -0.9085 -1.5194  2.6719
14644TIP3   OH243876   8.520   2.274   2.270  0.7095 -0.2970 -0.1000
14644TIP3    H143877   8.551   2.186   2.292  0.6826 -0.4577 -0.6981
14644TIP3    H243878   8.424   2.266   2.269  0.7136 -0.3153 -0.3766
14645TIP3   OH243879   2.180   2.931   0.927  0.0279 -0.2962 -0.9646
14645TIP3    H143880   2.267   2.941   0.966 -0.2318  1.0726 -0.7322
14645TIP3    H243881   2.157   2.839   0.942  1.4403 -0.6668 -1.0451
14646TIP3   OH243882   0.221   3.419   1.642 -0.1922 -0.3927  0.1918
14646TIP3    H143883   0.150   3.452   1.587 -0.3388  0.5285  0.9101
14646TIP3    H243884   0.285   3.384   1.579  0.3456  2.0292 -0.7054
14647TIP3   OH243885   2.270   2.531   3.220 -0.3520 -0.2447 -0.1567
14647TIP3    H143886   2.347   2.524   3.277 -0.7934 -0.3990  0.4205
14647TIP3    H243887   2.274   2.452   3.166  1.1801  0.8779 -1.7461
14648TIP3   OH243888   2.032   2.561   0.708  0.2118 -0.4878  0.3796
14648TIP3    H143889   2.070   2.548   0.621  0.9492  0.4247  0.5437
14648TIP3    H243890   1.982   2.642   0.700 -0.1811 -0.7065  0.6540
14649TIP3   OH243891   0.730   2.330   2.096 -0.6609 -0.1472  0.0709
14649TIP3    H143892   0.776   2.260   2.051  1.0193  0.4771  0.7717
14649TIP3    H243893   0.732   2.305   2.189 -1.4072  0.0750  0.1525
14650TIP3   OH243894   1.863   3.595   1.288  0.3424  0.1807  0.2437
14650TIP3    H143895   1.947   3.570   1.250 -0.9237 -1.7261 -1.4184
14650TIP3    H243896   1.849   3.685   1.260  1.5288  0.3036  0.0188
14651TIP3   OH243897   2.447   6.633   6.740 -0.0293 -0.0556  0.5018
14651TIP3    H143898   2.445   6.537   6.740  0.8072 -0.0821  1.6875
14651TIP3    H243899   2.525   6.655   6.791 -0.8059  1.2648  1.1409
14652TIP3   OH243900   1.297   2.398   2.259 -0.4896 -0.1833 -0.0051
14652TIP3    H143901   1.242   2.361   2.190  0.4768 -2.2733  0.3183
14652TIP3    H243902   1.236   2.415   2.331 -0.9387 -1.2738 -0.1129
14653TIP3   OH243903   1.544   2.665   2.633 -0.3083 -0.2439  0.1265
14653TIP3    H143904   1.486   2.715   2.575 -0.4982 -1.4632 -0.7647
14653TIP3    H243905   1.577   2.595   2.577  2.9286  1.0709  0.2834
14654TIP3   OH243906   1.882   4.220   1.855  0.1658 -0.1128  0.1240
14654TIP3    H143907   1.971   4.254   1.865 -0.9118  1.9868  3.3113
14654TIP3    H243908   1.825   4.293   1.878 -2.3498 -2.1995  0.7604
14655TIP3   OH243909   2.132   4.312   1.861  0.2368  0.2510 -0.5519
14655TIP3    H143910   2.174   4.268   1.935 -2.3143 -2.5337 -0.6655
14655TIP3    H243911   2.194   4.303   1.789  0.8375 -0.9652  0.0964
14656TIP3   OH243912   2.534   2.604   0.472 -0.7082 -0.3269  0.5632
14656TIP3    H143913   2.496   2.541   0.412 -0.0805  0.8834 -1.1546
14656TIP3    H243914   2.460   2.638   0.522 -1.4830 -0.1962 -0.6524
14657TIP3   OH243915   3.042   3.710   0.084 -0.0592  1.0184 -0.0546
14657TIP3    H143916   2.956   3.714   0.041 -0.8917  1.3034  1.6000
14657TIP3    H243917   3.036   3.633   0.140  1.0482  0.6153 -0.4761
14658TIP3   OH243918   2.521   5.570   6.357 -0.5550  0.1746 -0.0847
14658TIP3    H143919   2.526   5.613   6.272 -0.2279 -2.4796 -1.4604
14658TIP3    H243920   2.429   5.578   6.383 -0.5193  1.5675 -0.3763
14659TIP3   OH243921   7.786   4.625   1.314 -0.1814  0.5046 -0.5256
14659TIP3    H143922   7.714   4.659   1.260 -1.0043 -0.3901 -0.0059
14659TIP3    H243923   7.752   4.627   1.403 -0.0252 -1.1047 -0.4222
14660TIP3   OH243924   6.223   1.698   6.099  0.5238  0.0232  0.3546
14660TIP3    H143925   6.127   1.695   6.094  0.4816 -1.3998  1.6317
14660TIP3    H243926   6.251   1.720   6.011 -1.0265  1.8160  0.2650
14661TIP3   OH243927   1.369   0.338   5.778 -0.0392  0.1263 -0.5402
14661TIP3    H143928   1.461   0.317   5.793 -0.4584 -1.4282 -0.1074
14661TIP3    H243929   1.360   0.429   5.808  1.1330 -0.0382  0.3436
14662TIP3   OH243930   3.966   4.543   0.103  0.7102  0.2730 -0.4301
14662TIP3    H143931   3.920   4.594   0.036 -1.2175  0.2993  0.8954
14662TIP3    H243932   3.942   4.584   0.186  1.4501 -1.0039  0.4386
14663TIP3   OH243933   0.725   3.197   1.599  0.1967  0.3704  0.0272
14663TIP3    H143934   0.763   3.284   1.587  0.8199  0.0082 -0.6766
14663TIP3    H243935   0.671   3.204   1.678 -2.3870  2.3136 -1.8246
14664TIP3   OH243936   4.438   6.718   4.833 -0.0310  0.0617 -0.3876
14664TIP3    H143937   4.405   6.805   4.859  0.8967  0.0326  0.9331
14664TIP3    H243938   4.379   6.690   4.763  0.4310  2.3173 -1.7406
14665TIP3   OH243939   3.352   4.104   0.727 -0.0406 -0.4781 -0.4787
14665TIP3    H143940   3.339   4.038   0.658  1.5129 -1.5846  0.2737
14665TIP3    H243941   3.369   4.185   0.679  0.4901 -1.1326 -1.4090
14666TIP3   OH243942   1.516   3.305   1.625  0.0782  0.0447 -0.1616
14666TIP3    H143943   1.497   3.313   1.532  1.7535 -1.4418 -0.6656
14666TIP3    H243944   1.579   3.374   1.644  1.0107 -0.7074 -0.5111
14667TIP3   OH243945   2.945   1.877   2.307 -0.1552  0.0109  0.2066
14667TIP3    H143946   3.038   1.900   2.302 -0.3563  0.7705 -0.1609
14667TIP3    H243947   2.901   1.941   2.250 -0.8619 -0.5662  0.0893
14668TIP3   OH243948   5.475   5.616   6.069 -0.4003 -0.0582 -0.0772
14668TIP3    H143949   5.566   5.644   6.069 -0.7038  1.0054  1.4213
14668TIP3    H243950   5.449   5.619   5.977  1.4301 -1.6275 -0.6682
14669TIP3   OH243951   3.419   4.156   1.252  0.0819  0.4467 -0.2060
14669TIP3    H143952   3.452   4.118   1.334  0.8681  0.4532 -0.5194
14669TIP3    H243953   3.472   4.115   1.184 -1.2316 -0.2977 -0.7943
14670TIP3   OH243954   2.048   2.753   1.708  0.1323 -0.1236 -0.6132
14670TIP3    H143955   2.011   2.665   1.705 -0.0954 -0.1341  1.4609
14670TIP3    H243956   2.117   2.748   1.775 -0.8222  1.5893  0.5466
14671TIP3   OH243957   5.401   6.411   5.046 -0.4841  0.0702 -0.2296
14671TIP3    H143958   5.392   6.498   5.007 -2.9313  0.0605  0.2516
14671TIP3    H243959   5.493   6.388   5.032  0.3726  3.0088  0.2613
14672TIP3   OH243960   1.248   2.570   1.958 -0.0923 -0.3578 -0.4249
14672TIP3    H143961   1.258   2.498   2.020  0.0960 -0.7412 -0.9015
14672TIP3    H243962   1.167   2.550   1.911  0.9366 -1.2295 -1.8421
14673TIP3   OH243963   0.366   4.513   0.356 -0.3654  0.3419  0.1983
14673TIP3    H143964   0.363   4.470   0.270  0.4597 -0.8077  0.7455
14673TIP3    H243965   0.276   4.542   0.371  0.1153  3.6065 -2.5946
14674TIP3   OH243966   5.402   0.438   0.097  0.3053 -0.6007 -0.6579
14674TIP3    H143967   5.412   0.516   0.043  1.7539 -0.8381 -0.7305
14674TIP3    H243968   5.329   0.459   0.156  2.5986  1.9773  1.3545
14675TIP3   OH243969   4.195   5.576   4.907  0.0234  0.0431  0.4257
14675TIP3    H143970   4.180   5.512   4.976  1.9111 -2.4977 -1.4647
14675TIP3    H243971   4.260   5.636   4.944 -0.5801 -0.0222  1.6208
14676TIP3   OH243972   8.063   1.378   6.236 -0.1821 -0.1634  0.0778
14676TIP3    H143973   8.062   1.316   6.163 -0.0643  0.1912 -0.2320
14676TIP3    H243974   7.978   1.368   6.277 -0.6111  0.2935 -0.6828
14677TIP3   OH243975   7.839   1.293  -0.008  0.0636 -0.0136 -0.6425
14677TIP3    H143976   7.880   1.360   0.047 -1.8705  0.2514  0.5118
14677TIP3    H243977   7.795   1.234   0.054  2.3122 -2.7880 -1.5858
14678TIP3   OH243978   0.656   4.830   2.793  0.0002  0.6363  0.1779
14678TIP3    H143979   0.737   4.781   2.775  0.6785  1.6684  0.3539
14678TIP3    H243980   0.612   4.780   2.862  0.7555  0.3475  0.4586
14679TIP3   OH243981   3.373   3.588   0.423  0.1360  0.1292 -0.2347
14679TIP3    H143982   3.284   3.613   0.449  0.8054  1.4959  0.7726
14679TIP3    H243983   3.377   3.608   0.330  0.0424  2.0162  0.1541
14680TIP3   OH243984   0.449   2.404   2.998 -0.2803 -0.8333 -0.2658
14680TIP3    H143985   0.425   2.490   3.031  1.5029  0.1036 -1.3152
14680TIP3    H243986   0.438   2.346   3.073 -0.0631  0.5786  0.8872
14681TIP3   OH243987   1.380   2.864   1.051 -0.1532 -1.0266  0.0568
14681TIP3    H143988   1.310   2.836   0.992  0.1510 -1.3020 -0.1731
14681TIP3    H243989   1.460   2.850   1.002  0.0362 -0.2028  0.1225
14682TIP3   OH243990   1.092   2.283   2.096 -0.6462  0.1355  0.0560
14682TIP3    H143991   1.094   2.221   2.168  1.2978 -0.6610 -0.6574
14682TIP3    H243992   1.030   2.246   2.034 -0.3221 -0.5301  0.1277
14683TIP3   OH243993   6.714   0.785   5.993 -0.0225 -0.5465  0.4483
14683TIP3    H143994   6.684   0.767   6.082  0.2315  0.8695  0.8262
14683TIP3    H243995   6.705   0.879   5.983 -0.1325 -0.7102 -1.0635
14684TIP3   OH243996   8.342   2.264   0.441 -0.2754  0.3228  0.6463
14684TIP3    H143997   8.315   2.289   0.352  0.3800 -0.0084  0.3532
14684TIP3    H243998   8.285   2.315   0.498 -1.2723 -0.0954  0.0286
14685TIP3   OH243999   6.575   6.032   5.216 -0.2035 -0.8198  0.2279
14685TIP3    H144000   6.530   6.110   5.249  0.0206 -0.1368 -1.0418
14685TIP3    H244001   6.540   5.960   5.269 -1.0512  0.0194  0.8318
14686TIP3   OH244002   4.006   1.505   0.501 -0.2044  0.2564  0.0581
14686TIP3    H144003   4.034   1.483   0.590  0.2775 -2.0993 -0.6584
14686TIP3    H244004   4.064   1.455   0.444  1.0545  3.5048 -1.6991
14687TIP3   OH244005   2.507   1.315   0.620  0.0524  0.1407 -0.0381
14687TIP3    H144006   2.558   1.349   0.693  0.0072  0.8700 -0.3427
14687TIP3    H244007   2.416   1.319   0.649  0.0070  0.7555 -0.2648
14688TIP3   OH244008   5.484   5.535   4.736 -0.6830 -0.0568 -0.0087
14688TIP3    H144009   5.538   5.505   4.662 -0.6549 -1.1492  0.4460
14688TIP3    H244010   5.395   5.510   4.712 -0.8356  0.7009 -0.2312
14689TIP3   OH244011   1.708   0.595   1.434  0.1998 -0.4340  0.3693
14689TIP3    H144012   1.755   0.669   1.395  1.6790 -1.1694  0.7050
14689TIP3    H244013   1.620   0.600   1.397  0.4373  1.1855 -0.0152
14690TIP3   OH244014   2.033   0.806   1.523  0.8913 -0.2127 -0.4911
14690TIP3    H144015   2.030   0.720   1.565 -0.7480 -0.4745 -1.1159
14690TIP3    H244016   1.987   0.864   1.584 -0.3894 -0.3447 -1.3046
14691TIP3   OH244017   4.062   4.511   1.268 -0.0080 -0.0995  0.3711
14691TIP3    H144018   3.988   4.476   1.319 -1.4596  1.4138 -0.6153
14691TIP3    H244019   4.020   4.556   1.195  1.9172  1.0305 -0.0555
14692TIP3   OH244020   0.441   0.949   0.030  0.0476  0.2657 -0.4671
14692TIP3    H144021   0.442   0.882   0.098 -2.3918  0.3969 -0.2799
14692TIP3    H244022   0.446   1.032   0.078  2.2171  0.2973 -0.6650
14693TIP3   OH244023   1.770   3.028   1.404  0.0237  0.0250  0.2034
14693TIP3    H144024   1.794   3.016   1.496 -1.4374  1.7950  0.8498
14693TIP3    H244025   1.781   3.122   1.388  0.1612 -0.2376 -1.4148
14694TIP3   OH244026   5.204   5.793   6.115 -0.4490  0.3614 -0.1806
14694TIP3    H144027   5.238   5.836   6.036  0.1126 -0.1567 -0.2211
14694TIP3    H244028   5.197   5.701   6.091 -0.3330  0.2103  0.3578
14695TIP3   OH244029   3.831   1.002   1.404 -0.0901  0.0349 -0.2389
14695TIP3    H144030   3.774   1.040   1.471  1.0127 -0.0243  0.7569
14695TIP3    H244031   3.787   1.021   1.321 -1.4093  0.2236  0.4919
14696TIP3   OH244032   5.415   7.418   6.362  0.0113  0.2562 -0.3351
14696TIP3    H144033   5.447   7.339   6.319  1.4078  1.0088 -0.7312
14696TIP3    H244034   5.460   7.489   6.317 -0.4075  1.2120  0.7331
14697TIP3   OH244035   1.797   1.632   0.564  0.1838 -0.3762 -0.8200
14697TIP3    H144036   1.743   1.567   0.608 -0.1375 -0.2393 -1.0149
14697TIP3    H244037   1.808   1.702   0.629 -0.4357 -0.0939 -1.0131
14698TIP3   OH244038   2.192   2.916   2.280 -0.1178 -0.3497 -0.5832
14698TIP3    H144039   2.174   2.973   2.355 -1.0523 -0.0869 -0.9919
14698TIP3    H244040   2.280   2.940   2.252  0.0609 -0.1325  0.1556
14699TIP3   OH244041   8.096   1.167   5.993  0.5341 -0.3042 -0.1581
14699TIP3    H144042   8.028   1.130   6.049 -0.3865  1.0870 -0.3362
14699TIP3    H244043   8.050   1.228   5.936  1.9193  0.6103 -0.3274
14700TIP3   OH244044   3.134   3.035   1.263 -0.4180 -0.4463  0.1518
14700TIP3    H144045   3.107   3.099   1.197 -2.6487 -1.4761  0.0145
14700TIP3    H244046   3.201   3.080   1.314  0.4976  0.7841 -2.0721
14701TIP3   OH244047   3.158   2.571   1.098  0.1534  0.5300 -0.6100
14701TIP3    H144048   3.149   2.642   1.035 -1.0254 -1.5412 -2.8473
14701TIP3    H244049   3.235   2.522   1.069 -0.0280 -0.0785 -0.0890
14702TIP3   OH244050   5.423   5.714   5.584 -0.3662  0.0574 -0.4356
14702TIP3    H144051   5.507   5.684   5.620 -0.9886 -1.9571 -0.5998
14702TIP3    H244052   5.422   5.808   5.601  1.1149 -0.1911  1.2059
14703TIP3   OH244053   2.270   2.285   1.074 -0.6014 -0.0512 -0.0152
14703TIP3    H144054   2.180   2.311   1.090 -0.2893  0.4700  0.8838
14703TIP3    H244055   2.288   2.218   1.140 -0.0764  0.4129  0.3166
14704TIP3   OH244056   3.455   2.904   0.810 -0.0343  0.0264  0.4977
14704TIP3    H144057   3.517   2.833   0.829  1.9232  2.1104  2.0375
14704TIP3    H244058   3.417   2.926   0.895 -0.8020  0.6925 -0.0156
14705TIP3   OH244059   4.171   2.464   0.422  0.2867 -0.1190 -0.4349
14705TIP3    H144060   4.117   2.389   0.396 -0.0637  0.3648 -1.0984
14705TIP3    H244061   4.108   2.527   0.456  0.7453 -0.8271  1.8267
14706TIP3   OH244062   1.246   0.218   6.211  0.2351  0.0764  0.0031
14706TIP3    H144063   1.173   0.267   6.248 -0.0863 -0.1083 -0.3865
14706TIP3    H244064   1.303   0.199   6.285 -2.1296 -3.4072  1.0053
14707TIP3   OH244065   2.697   2.150   0.280 -0.0873 -0.0357  0.6068
14707TIP3    H144066   2.723   2.094   0.206  0.1262 -0.4362  0.9813
14707TIP3    H244067   2.660   2.228   0.239 -0.7452 -0.6154  0.0703
14708TIP3   OH244068   4.159   2.847   0.516  0.8693 -0.3691  0.1613
14708TIP3    H144069   4.117   2.810   0.594  0.1800 -0.7296 -0.3715
14708TIP3    H244070   4.252   2.829   0.528  0.7168 -0.8168  0.6886
14709TIP3   OH244071   4.793   6.206   3.659 -0.3352 -0.6575  0.3996
14709TIP3    H144072   4.753   6.145   3.597  1.4400 -0.7846 -0.6240
14709TIP3    H244073   4.867   6.158   3.696 -0.9194 -0.3098  2.0672
14710TIP3   OH244074   2.820   2.488   0.442 -0.8529 -0.3068 -0.3550
14710TIP3    H144075   2.734   2.530   0.433  0.2055  2.0051 -0.1657
14710TIP3    H244076   2.851   2.515   0.528  0.9650  0.7230 -1.2908
14711TIP3   OH244077   4.932   7.472   4.622 -0.0524  0.8700  0.5647
14711TIP3    H144078   5.010   7.526   4.633  1.6044 -1.8004  2.7921
14711TIP3    H244079   4.949   7.421   4.543  0.2194  0.7247  0.7150
14712TIP3   OH244080   5.191   6.443   5.218 -0.2375 -0.4733  0.2629
14712TIP3    H144081   5.123   6.447   5.151  0.3978  1.6844 -0.2905
14712TIP3    H244082   5.273   6.444   5.168  0.2213 -1.4746  0.9888
14713TIP3   OH244083   6.327   5.039   6.730  0.0683 -0.0143  0.1614
14713TIP3    H144084   6.249   5.037   6.674  0.5950  0.2699 -0.5891
14713TIP3    H244085   6.296   5.008   6.815 -0.9686  0.5752  0.0029
14714TIP3   OH244086   5.872   6.725   4.633 -0.5689 -0.8953 -0.7285
14714TIP3    H144087   5.821   6.788   4.583 -1.2205 -0.6522  0.2237
14714TIP3    H244088   5.955   6.717   4.586 -0.1788  1.2522 -0.4217
14715TIP3   OH244089   2.759   2.958   0.932  0.0002  0.2414 -0.1260
14715TIP3    H144090   2.829   3.008   0.889 -1.1765  0.1755 -2.1899
14715TIP3    H244091   2.686   2.962   0.870 -0.9028 -2.0091  0.7717
14716TIP3   OH244092   5.869   5.817   4.643  0.6700  0.7395  0.1804
14716TIP3    H144093   5.871   5.912   4.640 -1.4606  0.9192  2.2515
14716TIP3    H244094   5.855   5.796   4.736  1.9822 -1.6202 -0.0967
14717TIP3   OH244095   5.373   3.392   1.214 -0.1275 -0.0995 -0.1051
14717TIP3    H144096   5.342   3.475   1.180  0.3974  0.7082  1.3372
14717TIP3    H244097   5.371   3.403   1.309 -0.7626 -1.9932  0.1249
14718TIP3   OH244098   5.065   6.782   3.308  0.1743 -0.6193  0.4337
14718TIP3    H144099   5.053   6.846   3.238  0.8679  1.2773  2.0207
14718TIP3    H244100   5.130   6.721   3.274  1.4888  1.0365 -0.0647
14719TIP3   OH244101   5.434   5.190   0.536  0.3456  0.3572  0.7145
14719TIP3    H144102   5.525   5.161   0.539  0.6515  0.6795 -2.9451
14719TIP3    H244103   5.438   5.283   0.560  0.8831  0.2226  1.1605
14720TIP3   OH244104   5.722   6.947   6.232  0.1271  0.3630  0.1320
14720TIP3    H144105   5.676   6.924   6.151  1.3515  0.9600 -0.7445
14720TIP3    H244106   5.706   7.040   6.243 -0.7239  0.1159  1.0343
14721TIP3   OH244107   1.610   0.309   5.201 -0.3795  0.3189  0.6987
14721TIP3    H144108   1.670   0.376   5.232  2.9836 -1.3161 -1.9976
14721TIP3    H244109   1.636   0.229   5.247  0.3522 -0.6624 -1.3569
14722TIP3   OH244110   4.713   0.774   1.738  0.2159  0.3224 -0.5517
14722TIP3    H144111   4.618   0.771   1.728  0.1242 -1.0318  0.5716
14722TIP3    H244112   4.727   0.796   1.830  0.9928  0.0216 -0.5937
14723TIP3   OH244113   0.669   0.370   6.800 -0.3082 -0.4298 -0.2302
14723TIP3    H144114   0.586   0.416   6.813 -0.3326 -0.9134  1.5030
14723TIP3    H244115   0.644   0.278   6.789 -0.0065 -0.6204  0.6009
14724TIP3   OH244116   5.444   7.334   6.860 -0.0058  0.3326  0.6250
14724TIP3    H144117   5.379   7.350   6.927  1.5564  1.0094  2.0086
14724TIP3    H244118   5.408   7.375   6.781 -2.0180 -0.8121  0.9137
14725TIP3   OH244119   4.981   4.232   0.678  0.1640  0.2231 -0.0406
14725TIP3    H144120   5.028   4.276   0.749  1.9141 -0.0834 -0.9674
14725TIP3    H244121   5.015   4.273   0.598 -0.6981 -0.4492 -0.7696
14726TIP3   OH244122   2.736   7.486   6.565  0.0453 -0.0813  0.4590
14726TIP3    H144123   2.719   7.450   6.478  1.6595 -0.2470  0.1865
14726TIP3    H244124   2.831   7.477   6.576  0.2630  2.5323  1.0738
14727TIP3   OH244125   7.447   5.725   4.780  0.6279 -0.1596 -0.1341
14727TIP3    H144126   7.402   5.642   4.766 -0.2228  0.4736 -1.2603
14727TIP3    H244127   7.411   5.758   4.863  1.0310 -0.9427  0.3572
14728TIP3   OH244128   0.412   1.563   5.550 -0.5125 -0.2028  0.0042
14728TIP3    H144129   0.392   1.594   5.462  1.5491  2.2478  0.3496
14728TIP3    H244130   0.349   1.492   5.565  0.1523 -1.7747 -4.0242
14729TIP3   OH244131   4.446   7.634   6.540 -0.4458  0.3189 -0.3350
14729TIP3    H144132   4.542   7.632   6.535 -0.5306 -1.6680 -2.1746
14729TIP3    H244133   4.424   7.569   6.607 -0.5429 -0.5922 -1.2336
14730TIP3   OH244134   2.015   3.416   2.347  0.7294 -0.7611  0.1779
14730TIP3    H144135   1.981   3.349   2.406  1.4759 -0.1245  1.3648
14730TIP3    H244136   2.078   3.370   2.292  1.1489 -1.0744  0.9040
14731TIP3   OH244137   5.144   7.322   6.119 -0.7498  0.4345  0.0020
14731TIP3    H144138   5.150   7.350   6.028 -2.6047  0.5506 -0.0998
14731TIP3    H244139   5.137   7.404   6.169 -0.5889  0.3396  0.1827
14732TIP3   OH244140   6.832   6.362   6.777  0.1422 -0.2372 -0.0829
14732TIP3    H144141   6.772   6.299   6.816 -0.2493 -0.8965 -1.7068
14732TIP3    H244142   6.877   6.402   6.851 -3.0908  1.0672  1.2831
14733TIP3   OH244143   3.593   1.591   1.097 -0.3740  0.5546 -0.1650
14733TIP3    H144144   3.540   1.600   1.176 -0.1371  1.4480 -0.1086
14733TIP3    H244145   3.528   1.582   1.027 -0.5832 -1.3483  0.2395
14734TIP3   OH244146   4.719   5.980   5.517  0.7355  0.6548  0.5948
14734TIP3    H144147   4.719   6.074   5.537  0.8075  0.9506 -0.7530
14734TIP3    H244148   4.747   5.975   5.426  1.9750 -0.7590  1.0248
14735TIP3   OH244149   6.187   6.015   5.241  0.3447  0.1072 -0.0828
14735TIP3    H144150   6.250   6.068   5.290 -1.7240  2.0605  0.5427
14735TIP3    H244151   6.157   6.073   5.171  0.7219 -1.4952 -1.5857
14736TIP3   OH244152   5.256   6.692   6.570 -0.4046 -0.3040  0.0053
14736TIP3    H144153   5.314   6.666   6.499  0.1892 -2.2448  1.1670
14736TIP3    H244154   5.200   6.760   6.532  0.6812 -0.4812 -1.9565
14737TIP3   OH244155   3.065   3.198   0.339 -0.3629  0.2913  0.7414
14737TIP3    H144156   3.116   3.139   0.395 -1.3267 -1.4236 -0.1584
14737TIP3    H244157   3.079   3.165   0.250 -1.3820  1.0668  0.2830
14738TIP3   OH244158   0.007   0.192   4.236  0.0124 -0.3710 -0.7790
14738TIP3    H144159  -0.044   0.111   4.226  0.0874 -0.2690 -2.0119
14738TIP3    H244160   0.098   0.164   4.229  0.0015  0.0147 -2.7488
14739TIP3   OH244161   6.364   6.253   5.251  0.1818 -0.6319 -0.3622
14739TIP3    H144162   6.321   6.337   5.264 -1.4056 -1.3635 -0.8089
14739TIP3    H244163   6.396   6.255   5.161  1.6504  0.1608  0.1711
14740TIP3   OH244164   6.331   3.194   1.617  0.3457 -0.0898  0.1439
14740TIP3    H144165   6.347   3.269   1.674 -0.6377 -1.3396  2.1151
14740TIP3    H244166   6.344   3.118   1.673 -2.0221 -1.3347 -0.9430
14741TIP3   OH244167   3.104   0.957   2.455  0.1461 -0.6231  0.1759
14741TIP3    H144168   3.157   1.012   2.397  1.5029 -1.8895  0.1705
14741TIP3    H244169   3.056   0.899   2.397  0.2112 -0.7470  0.2437
14742TIP3   OH244170   4.446   7.182   5.816 -0.2147  0.2588 -0.0125
14742TIP3    H144171   4.505   7.110   5.837 -0.2304  0.0400 -0.6816
14742TIP3    H244172   4.399   7.200   5.897 -2.6831 -2.7851 -0.6580
14743TIP3   OH244173   2.629   1.343   6.726 -0.1057  0.7044 -0.0114
14743TIP3    H144174   2.559   1.406   6.738  0.6716  1.6240 -0.1977
14743TIP3    H244175   2.604   1.294   6.647 -0.5315  1.0228 -0.0738
14744TIP3   OH244176   4.882   2.923   1.079  0.2052  0.2406 -0.4101
14744TIP3    H144177   4.898   2.832   1.104  0.8108  0.6780  0.8626
14744TIP3    H244178   4.855   2.965   1.161 -0.0635  1.2079 -0.9957
14745TIP3   OH244179   5.567   5.403   6.469 -0.1571  0.2003  0.2352
14745TIP3    H144180   5.600   5.485   6.506 -1.4224  0.9940 -0.3700
14745TIP3    H244181   5.491   5.382   6.523 -1.6927  1.0786 -1.5076
14746TIP3   OH244182   3.043   3.436   1.843 -0.7879 -0.5036  0.1360
14746TIP3    H144183   3.041   3.341   1.843 -4.8244 -0.5402  1.6496
14746TIP3    H244184   3.060   3.459   1.935  1.1738  0.2562 -0.4038
14747TIP3   OH244185   2.561   1.347   0.058  0.3225  0.1180  0.0086
14747TIP3    H144186   2.531   1.279   0.118 -1.2639  1.9133  1.3137
14747TIP3    H244187   2.597   1.299  -0.017 -2.8104 -2.1959 -0.1494
14748TIP3   OH244188   2.751   5.865   2.473 -0.3547  0.4603  0.1244
14748TIP3    H144189   2.784   5.797   2.414 -0.6781  0.4989 -0.1031
14748TIP3    H244190   2.689   5.819   2.530  0.6802  0.2225  1.0817
14749TIP3   OH244191   4.140   2.144   1.486 -0.3847  0.3148 -0.1894
14749TIP3    H144192   4.228   2.107   1.491 -0.2913  0.5675  0.1354
14749TIP3    H244193   4.141   2.199   1.408  0.1098  1.2211  0.4425
14750TIP3   OH244194   4.166   2.561   1.891 -0.1923 -0.7427 -0.1115
14750TIP3    H144195   4.076   2.592   1.896  0.1943  0.2886  0.6870
14750TIP3    H244196   4.166   2.498   1.818 -1.5194 -0.6735 -0.1841
14751TIP3   OH244197   1.495   4.283   0.305  0.4920 -0.0500  0.1018
14751TIP3    H144198   1.502   4.241   0.390 -1.8287 -0.3815  0.1788
14751TIP3    H244199   1.489   4.210   0.243  0.9694  0.1795 -0.2117
14752TIP3   OH244200   4.641   0.769   5.270 -0.0120  0.6348  0.2009
14752TIP3    H144201   4.701   0.748   5.198  0.6410  2.1776  0.2875
14752TIP3    H244202   4.576   0.699   5.267  0.7017  0.0016 -1.1170
14753TIP3   OH244203   2.206   2.373   1.872  0.2254  0.0697  0.2657
14753TIP3    H144204   2.145   2.362   1.798  0.1926  0.7394  0.1828
14753TIP3    H244205   2.273   2.307   1.859  1.3997  1.5637 -1.5774
14754TIP3   OH244206   8.201   4.414   0.100 -0.5229 -0.2828  0.0027
14754TIP3    H144207   8.194   4.377   0.187  0.3628  0.8777  0.5901
14754TIP3    H244208   8.293   4.437   0.091 -0.6271 -0.2998 -1.1965
14755TIP3   OH244209   5.769   0.314   5.828 -0.6844 -0.1858  0.6418
14755TIP3    H144210   5.695   0.312   5.890 -0.7755  2.2185  0.6253
14755TIP3    H244211   5.729   0.336   5.744  0.0912  1.6392  0.7294
14756TIP3   OH244212   8.458   4.593   0.960  0.3140  0.5812 -0.3129
14756TIP3    H144213   8.428   4.683   0.945 -1.9958 -0.1745 -0.2668
14756TIP3    H244214   8.400   4.559   1.028  0.7748 -1.1685 -0.7816
14757TIP3   OH244215   0.437   2.841   0.549  0.1259 -0.3919  0.1432
14757TIP3    H144216   0.490   2.814   0.624  0.8088 -1.7762 -0.8063
14757TIP3    H244217   0.379   2.766   0.533 -2.1661  1.1211  1.1948
14758TIP3   OH244218   0.350   4.047   1.533  0.4485 -0.7769  0.2642
14758TIP3    H144219   0.331   4.062   1.441  0.0408  1.4402  0.6600
14758TIP3    H244220   0.269   4.071   1.578  0.9795 -0.8040  1.2614
14759TIP3   OH244221   0.085   4.518   0.371 -0.0424  0.4255  0.1020
14759TIP3    H144222   0.074   4.458   0.297  2.8557  1.2111 -1.0193
14759TIP3    H244223   0.001   4.563   0.378 -2.0380 -3.0989  0.4439
14760TIP3   OH244224   8.159   4.477   1.729 -0.1596  0.3114  0.1395
14760TIP3    H144225   8.245   4.492   1.769 -0.7062  1.4213  0.9336
14760TIP3    H244226   8.137   4.387   1.751  0.5805  0.1795  0.3563
14761TIP3   OH244227   5.677   0.793   6.196 -0.6711 -0.5625 -0.1785
14761TIP3    H144228   5.584   0.777   6.183 -1.1252  0.7929  1.2078
14761TIP3    H244229   5.688   0.887   6.179  0.3522 -0.6264  0.0720
14762TIP3   OH244230   0.733   4.875   1.766  0.3879  0.2251 -0.0778
14762TIP3    H144231   0.713   4.930   1.690 -1.8509 -0.7971 -0.2604
14762TIP3    H244232   0.726   4.934   1.841  1.4275  0.9603 -0.5454
14763TIP3   OH244233   0.596   4.915   1.081  0.1870  0.0548  0.2754
14763TIP3    H144234   0.601   4.871   0.996  0.4525 -0.9475  0.7994
14763TIP3    H244235   0.646   4.996   1.069  1.3007 -0.6754 -0.1782
14764TIP3   OH244236   2.127   2.492   0.428 -0.2840  0.7817 -0.2593
14764TIP3    H144237   2.147   2.574   0.382  1.9944  0.8108  0.7212
14764TIP3    H244238   2.212   2.450   0.441 -1.2415 -0.8600  0.8985
14765TIP3   OH244239   5.156   7.603   6.251  0.6107  0.1816 -0.2483
14765TIP3    H144240   5.171   7.685   6.205  1.6596 -0.0619 -0.3628
14765TIP3    H244241   5.220   7.603   6.322  0.2283 -0.2720  0.1054
14766TIP3   OH244242   1.267   7.170   5.489 -0.3175  0.1285 -0.5646
14766TIP3    H144243   1.211   7.189   5.564 -1.2657 -0.3619 -1.1390
14766TIP3    H244244   1.287   7.077   5.496 -1.4690 -0.2118 -1.6164
14767TIP3   OH244245   2.076   3.251   1.229  0.0955  0.4147  0.1901
14767TIP3    H144246   2.128   3.190   1.281 -0.6073 -0.9966 -0.7436
14767TIP3    H244247   1.992   3.257   1.274 -0.5634 -0.9176 -0.8352
14768TIP3   OH244248   0.488   2.989   2.867  0.1500  0.1693  0.2088
14768TIP3    H144249   0.403   3.013   2.829  0.1607 -0.6260 -0.3533
14768TIP3    H244250   0.541   3.068   2.861 -1.3116  1.4141  2.8222
14769TIP3   OH244251   8.427   0.606   6.176  0.0072 -0.3205  0.2213
14769TIP3    H144252   8.455   0.673   6.113 -1.7184  0.1552 -0.0615
14769TIP3    H244253   8.487   0.533   6.162  1.4611  0.8761  0.0316
14770TIP3   OH244254   7.658   3.298   1.430 -0.6831  0.0214 -0.9013
14770TIP3    H144255   7.567   3.293   1.400 -1.3300  1.3800  0.7668
14770TIP3    H244256   7.657   3.364   1.499  1.2613 -1.1558  0.2982
14771TIP3   OH244257   0.880   2.852   1.590  0.2811  0.0349 -0.1553
14771TIP3    H144258   0.971   2.821   1.594 -0.1349 -1.2418 -0.2557
14771TIP3    H244259   0.886   2.947   1.602  1.7028  0.0756 -1.0932
14772TIP3   OH244260   8.223   5.041   1.570  0.4242 -0.4921  0.1606
14772TIP3    H144261   8.129   5.032   1.580  0.3557  0.0124 -0.0096
14772TIP3    H244262   8.250   5.101   1.639  0.9034 -2.0747  1.3929
14773TIP3   OH244263   1.842   2.816   2.005  0.8203  0.1609  0.3468
14773TIP3    H144264   1.882   2.746   1.953 -1.5348 -0.0488 -1.2803
14773TIP3    H244265   1.905   2.888   2.001  2.3502 -1.1688  0.3397
14774TIP3   OH244266   0.155   6.826   0.613 -0.2311  0.2717  0.2111
14774TIP3    H144267   0.168   6.860   0.525 -2.5598  0.9916  0.1035
14774TIP3    H244268   0.110   6.897   0.660  1.0879 -0.0586  2.0102
14775TIP3   OH244269   8.456   1.227   6.497 -0.1502  0.2663 -0.3421
14775TIP3    H144270   8.509   1.156   6.459  0.9460  0.2434  1.1932
14775TIP3    H244271   8.366   1.194   6.495  0.3407 -1.1573  0.2944
14776TIP3   OH244272   7.090   0.285   6.607  0.1373  0.6849  0.3578
14776TIP3    H144273   7.080   0.201   6.653 -0.3016  2.0346  2.7918
14776TIP3    H244274   7.035   0.346   6.657  0.1366  2.3388 -1.6330
14777TIP3   OH244275   8.237   6.685   1.221  0.0121 -0.0792 -0.3850
14777TIP3    H144276   8.302   6.744   1.259  1.5146 -1.2643 -1.0683
14777TIP3    H244277   8.155   6.735   1.224  0.5673  0.7434  2.1669
14778TIP3   OH244278   8.031   0.945   6.593 -0.4223  0.6081  0.2290
14778TIP3    H144279   8.022   0.981   6.505 -0.8470 -1.0422 -0.4327
14778TIP3    H244280   7.947   0.963   6.635 -0.5890  0.5064 -0.0570
14779TIP3   OH244281   7.014   2.636   5.806 -0.0123 -0.2310 -0.2184
14779TIP3    H144282   7.100   2.596   5.797 -0.5533 -1.0670 -1.7461
14779TIP3    H244283   6.987   2.615   5.896  1.4001  0.1067  0.2924
14780TIP3   OH244284   6.924   1.326   4.749  0.3201 -0.4291  0.1653
14780TIP3    H144285   6.828   1.326   4.756  0.3937  1.1873  1.1710
14780TIP3    H244286   6.941   1.311   4.656 -0.9282  0.3380 -0.1956
14781TIP3   OH244287   7.266   0.437   6.470  0.7833  0.0111  0.1256
14781TIP3    H144288   7.217   0.355   6.476  1.0885 -0.2076 -0.3226
14781TIP3    H244289   7.225   0.494   6.535  0.0892 -0.2464 -0.0770
14782TIP3   OH244290   7.348   0.157   3.521 -0.1865  0.4798  0.4431
14782TIP3    H144291   7.306   0.141   3.606  0.9417 -1.9001  0.5977
14782TIP3    H244292   7.437   0.123   3.532  0.6989  2.2717 -0.9822
14783TIP3   OH244293   2.157   4.852   0.919 -0.0486 -0.0245 -0.1038
14783TIP3    H144294   2.171   4.888   0.832 -0.7212 -0.7210 -0.4960
14783TIP3    H244295   2.225   4.893   0.973 -0.0749  0.9489 -0.7952
14784TIP3   OH244296   1.367   3.659   1.316  0.6341 -0.0082  0.0888
14784TIP3    H144297   1.337   3.742   1.281  1.9937  0.7825  0.7168
14784TIP3    H244298   1.291   3.623   1.362  0.6407  1.9897  1.7703
14785TIP3   OH244299   2.458   2.883   0.989 -0.1016 -0.0723 -0.5040
14785TIP3    H144300   2.458   2.864   1.083  0.3655 -0.9763 -0.6821
14785TIP3    H244301   2.515   2.816   0.951 -0.2294  0.3353 -1.4226
14786TIP3   OH244302   4.317   7.235   5.594 -0.5827  0.3418  0.4708
14786TIP3    H144303   4.270   7.153   5.576  1.1982 -0.5705 -0.2531
14786TIP3    H244304   4.355   7.222   5.681 -0.3534  0.4300  0.3837
14787TIP3   OH244305   8.190   1.363   5.197 -0.2568  0.1158 -0.8745
14787TIP3    H144306   8.273   1.393   5.233  0.7638 -1.3105 -1.9805
14787TIP3    H244307   8.165   1.429   5.133 -0.7248  1.2934  0.5139
14788TIP3   OH244308   8.372   2.216   6.157 -0.5283 -0.0713  0.1198
14788TIP3    H144309   8.317   2.287   6.190 -1.5855  0.6994 -3.0513
14788TIP3    H244310   8.452   2.260   6.128 -0.0788 -0.5709  0.5873
14789TIP3   OH244311   0.218   5.363   1.252 -0.1615 -0.2587  0.2702
14789TIP3    H144312   0.260   5.447   1.231 -1.4072  0.3676  0.2562
14789TIP3    H244313   0.285   5.298   1.233  0.4298  0.6534 -0.8349
14790TIP3   OH244314   8.054   5.591   2.442 -0.1617  0.4478  0.1052
14790TIP3    H144315   8.075   5.570   2.533 -2.4339 -0.7904  0.3670
14790TIP3    H244316   8.089   5.517   2.392  0.3945  0.7500  0.0442
14791TIP3   OH244317   5.135   1.039   6.425 -0.2695  0.6830 -0.1806
14791TIP3    H144318   5.041   1.049   6.408 -0.4869 -0.2294  0.4646
14791TIP3    H244319   5.177   1.076   6.347 -1.2064 -1.1029 -1.5860
14792TIP3   OH244320   1.410   5.012   0.069 -0.2466 -0.0861 -0.5091
14792TIP3    H144321   1.488   5.028   0.122  0.9647 -1.5368 -1.8148
14792TIP3    H244322   1.352   4.962   0.126  0.6257 -0.7553 -0.2011
14793TIP3   OH244323   2.942   3.413   0.499 -0.1704  0.1851  0.1098
14793TIP3    H144324   2.913   3.352   0.567  0.9590 -0.6001 -0.1073
14793TIP3    H244325   2.992   3.359   0.438 -2.7613  0.4771 -2.3956
14794TIP3   OH244326   7.519   1.404   5.331  0.0805  0.0438 -0.0164
14794TIP3    H144327   7.475   1.442   5.406  1.0873 -0.2999  0.7646
14794TIP3    H244328   7.478   1.318   5.319  1.7408 -1.0503  1.8484
14795TIP3   OH244329   7.300   0.358   5.956 -0.0001  0.5085  1.0152
14795TIP3    H144330   7.360   0.335   6.026  0.2355  0.3488  0.7645
14795TIP3    H244331   7.255   0.436   5.987  1.6395  1.6896  0.4441
14796TIP3   OH244332   7.577   1.342   5.666  0.3373  0.5327 -1.0399
14796TIP3    H144333   7.487   1.367   5.644  0.0961  0.8945  0.3375
14796TIP3    H244334   7.595   1.266   5.610 -1.0770  0.0185 -0.8129
14797TIP3   OH244335   7.369   0.018   4.513  0.3193  0.6556  0.3504
14797TIP3    H144336   7.378   0.072   4.435 -0.6537  1.4376  0.7824
14797TIP3    H244337   7.300  -0.045   4.491  0.3196  0.6228  0.4389
14798TIP3   OH244338   5.527   6.813   6.484 -0.1003  0.4839  0.0004
14798TIP3    H144339   5.452   6.836   6.538 -1.2229 -2.6426 -0.1382
14798TIP3    H244340   5.529   6.881   6.416 -2.2295  1.1217  0.5410
14799TIP3   OH244341   7.622   0.277   4.841 -0.1576 -0.4907  0.1349
14799TIP3    H144342   7.636   0.323   4.924  0.5671 -2.0802  0.9140
14799TIP3    H244343   7.527   0.276   4.830 -0.1664  1.8003 -0.2608
14800TIP3   OH244344   3.523   5.218   0.634  0.0520 -0.0673  0.3269
14800TIP3    H144345   3.473   5.137   0.632  2.7860 -1.7722 -2.2313
14800TIP3    H244346   3.483   5.272   0.566 -1.5929  0.7286  1.8505
14801TIP3   OH244347   6.716   0.598   5.491  0.3127  0.1938 -0.7744
14801TIP3    H144348   6.718   0.646   5.574 -0.3168  0.7984 -1.1015
14801TIP3    H244349   6.805   0.564   5.481  0.9269  1.7678 -0.8030
14802TIP3   OH244350   6.577   2.081   6.898  0.0075 -0.0283  0.1087
14802TIP3    H144351   6.646   2.115   6.841 -0.2608 -0.2631 -0.3551
14802TIP3    H244352   6.558   2.153   6.958  0.2824  0.2245 -0.1044
14803TIP3   OH244353   6.670   2.611   4.832  0.1278 -0.0895 -0.4013
14803TIP3    H144354   6.759   2.604   4.866  0.5773 -1.3543 -1.7540
14803TIP3    H244355   6.675   2.678   4.764  0.1621 -0.4829 -0.7914
14804TIP3   OH244356   4.965   1.352   6.232  0.6228 -0.3302  0.4120
14804TIP3    H144357   5.049   1.366   6.277  1.2225 -3.5972  0.4652
14804TIP3    H244358   4.915   1.297   6.293 -0.8881  0.1263 -0.3978
14805TIP3   OH244359   8.098   0.679   6.498  0.4884  0.1500 -0.1531
14805TIP3    H144360   8.188   0.674   6.531  0.4304  0.7115  0.1005
14805TIP3    H244361   8.063   0.760   6.536 -0.0034  0.1253 -0.5495
14806TIP3   OH244362   6.772   2.740   6.964 -0.2714 -0.0279 -0.0773
14806TIP3    H144363   6.731   2.705   6.886 -0.1418  0.1807 -0.2380
14806TIP3    H244364   6.812   2.822   6.937 -0.2785  0.0768  0.2208
14807TIP3   OH244365   3.614   4.158   0.208 -0.2247 -0.0334 -0.8053
14807TIP3    H144366   3.603   4.230   0.270 -1.1337  0.7268 -1.8519
14807TIP3    H244367   3.707   4.161   0.185  0.1605 -0.4271  0.6404
14808TIP3   OH244368   2.673   7.089   4.799 -0.5272  0.4458 -0.1432
14808TIP3    H144369   2.601   7.064   4.741  0.2895  0.5331 -1.2148
14808TIP3    H244370   2.745   7.030   4.775 -0.0953  0.6651  0.5969
14809TIP3   OH244371   2.012   3.349   0.395 -0.0355  0.5101  0.5376
14809TIP3    H144372   1.944   3.288   0.424  0.4655 -0.0758  0.4707
14809TIP3    H244373   2.066   3.363   0.472  0.1356  0.4909  0.4206
14810TIP3   OH244374   6.546   1.524   4.741  0.2052  0.2054 -0.2651
14810TIP3    H144375   6.561   1.618   4.749  3.3490 -0.2317 -0.5219
14810TIP3    H244376   6.589   1.500   4.659  1.4172 -1.8185  0.9269
14811TIP3   OH244377   5.967   0.410   5.415  0.0589 -0.3343 -0.4192
14811TIP3    H144378   6.060   0.386   5.414  0.3322  0.6671  0.6250
14811TIP3    H244379   5.923   0.333   5.450  0.8604  0.3726  2.2344
14812TIP3   OH244380   4.348   6.941   4.996 -0.5762  0.1483 -0.3872
14812TIP3    H144381   4.269   6.953   5.050 -1.4547 -0.3080 -1.5432
14812TIP3    H244382   4.339   7.006   4.926 -0.0940 -0.1359 -0.7175
14813TIP3   OH244383   3.967   7.048   4.979 -0.0397  0.3634  0.3065
14813TIP3    H144384   4.058   7.043   5.011  0.2441 -0.3679 -0.5854
14813TIP3    H244385   3.915   7.060   5.058  0.6874 -0.9885  1.0232
14814TIP3   OH244386   8.354   0.101   6.698  0.0011 -0.4779  0.4610
14814TIP3    H144387   8.376   0.075   6.608  0.9987 -2.9531  1.3818
14814TIP3    H244388   8.316   0.188   6.689 -0.4782 -0.9310 -2.4390
14815TIP3   OH244389   0.075   1.168   5.172 -0.2151 -0.2570  0.2304
14815TIP3    H144390   0.009   1.100   5.186  0.5244 -0.4864  2.7186
14815TIP3    H244391   0.067   1.227   5.247  2.0493  0.0067  0.3184
14816TIP3   OH244392   8.098   3.237   4.183  0.6579 -0.1294  0.6985
14816TIP3    H144393   8.171   3.295   4.161  1.2567 -1.4415 -0.8574
14816TIP3    H244394   8.129   3.188   4.259  1.2663 -0.4284  0.2638
14817TIP3   OH244395   8.413   1.689   5.889 -0.3139 -0.4978 -0.5161
14817TIP3    H144396   8.388   1.702   5.797 -1.4390 -1.5720 -0.3711
14817TIP3    H244397   8.505   1.716   5.892 -0.4129  0.0527 -1.8433
14818TIP3   OH244398   5.738   7.570   4.215  0.1196 -0.5764  0.4654
14818TIP3    H144399   5.718   7.642   4.155  1.7518  0.2157  0.8410
14818TIP3    H244400   5.672   7.577   4.284 -0.4040 -0.1240 -0.0774
14819TIP3   OH244401   1.243   1.117   6.193 -0.2005  0.1660 -0.6479
14819TIP3    H144402   1.284   1.204   6.194 -2.1162  1.0709  1.2842
14819TIP3    H244403   1.274   1.075   6.273 -1.9815  0.3727  0.1620
14820TIP3   OH244404   5.110   7.465   5.113 -0.4125 -0.2063 -0.3573
14820TIP3    H144405   5.082   7.499   5.028  0.8922 -0.3454 -0.8671
14820TIP3    H244406   5.045   7.400   5.136 -0.3154 -0.8005 -1.6834
14821TIP3   OH244407   8.107   0.117   5.263 -0.2347 -0.4259 -0.3210
14821TIP3    H144408   8.097   0.200   5.216 -0.7512 -0.6130 -0.5553
14821TIP3    H244409   8.110   0.051   5.194  2.3882 -0.4360 -0.2456
14822TIP3   OH244410   4.166   2.253   0.115 -0.2580 -0.1985  0.0681
14822TIP3    H144411   4.235   2.227   0.176  1.1764  0.8338 -1.1005
14822TIP3    H244412   4.165   2.184   0.049  0.3980  0.3414 -0.5077
14823TIP3   OH244413   1.956   4.445   1.448 -0.6369  0.7430 -0.6370
14823TIP3    H144414   1.980   4.463   1.539 -0.9624  1.5742 -0.7076
14823TIP3    H244415   2.040   4.433   1.404 -0.5341 -1.8516  0.1867
14824TIP3   OH244416   6.299   6.796   4.001 -0.4622 -0.1916 -0.0897
14824TIP3    H144417   6.314   6.750   3.918  0.6336 -1.3891  0.7447
14824TIP3    H244418   6.239   6.739   4.049  0.5259 -0.5476  0.7524
14825TIP3   OH244419   7.819   2.188   2.683  0.4017 -0.5802  0.2933
14825TIP3    H144420   7.879   2.237   2.739 -0.5079  1.2153 -0.2635
14825TIP3    H244421   7.763   2.139   2.743 -1.1936  2.0623  1.0242
14826TIP3   OH244422   6.397   7.245   6.096 -0.1786  0.3716  0.3578
14826TIP3    H144423   6.436   7.255   6.183  0.9058  0.8451 -0.1727
14826TIP3    H244424   6.395   7.333   6.060  0.1955  0.0674 -0.4328
14827TIP3   OH244425   0.606   4.140   0.481  0.7676  0.6540 -0.1754
14827TIP3    H144426   0.580   4.048   0.469  0.2267  0.5477  1.7689
14827TIP3    H244427   0.679   4.152   0.420 -0.6708 -0.3934 -2.1763
14828TIP3   OH244428   1.667   5.185   5.302  0.3234  0.4845 -0.2964
14828TIP3    H144429   1.708   5.157   5.220  2.3387  0.7691  0.6054
14828TIP3    H244430   1.574   5.192   5.280  0.6916 -0.4350 -2.2913
14829TIP3   OH244431   7.413   1.347   3.979 -0.3126  0.0875  0.4146
14829TIP3    H144432   7.417   1.317   4.069  0.4559  0.1407  0.3980
14829TIP3    H244433   7.363   1.279   3.933 -0.0801 -0.2913  0.7286
14830TIP3   OH244434   7.934   1.266   5.276  0.5763 -0.4166 -0.3476
14830TIP3    H144435   8.018   1.279   5.233  2.0327  0.6491  2.6786
14830TIP3    H244436   7.956   1.247   5.367 -2.4819  0.2790  0.6045
14831TIP3   OH244437   5.322   7.970   6.121  0.5648 -0.3579  0.3851
14831TIP3    H144438   5.227   7.961   6.130  0.5877  0.9568  2.1579
14831TIP3    H244439   5.335   8.048   6.068  0.6588  0.3009  1.3586
14832TIP3   OH244440   6.351   6.687   6.945  0.2832 -0.0723 -0.1362
14832TIP3    H144441   6.273   6.632   6.938  0.4351 -0.3197  0.1024
14832TIP3    H244442   6.406   6.661   6.871 -0.0463  0.4011 -0.5474
14833TIP3   OH244443   4.205   7.767   6.733 -0.4036  0.3506 -0.0716
14833TIP3    H144444   4.279   7.730   6.684 -0.1848  1.8030 -0.8599
14833TIP3    H244445   4.204   7.718   6.815  1.5724  0.4654  0.0449
14834TIP3   OH244446   5.346   7.351   5.219  0.1558 -0.3374 -0.3026
14834TIP3    H144447   5.273   7.392   5.172  0.9422  1.8112  0.2696
14834TIP3    H244448   5.365   7.412   5.290  0.3419 -2.5227  1.5574
14835TIP3   OH244449   0.986   0.674   5.348 -0.0614  0.7373  0.1290
14835TIP3    H144450   0.946   0.619   5.416 -0.5409  1.9554  0.8479
14835TIP3    H244451   1.063   0.712   5.391 -1.4643  3.0907  0.6788
14836TIP3   OH244452   7.836   1.318   3.796  0.4117  0.1639 -0.3103
14836TIP3    H144453   7.756   1.291   3.750  0.4081  3.1699 -2.1950
14836TIP3    H244454   7.822   1.289   3.886 -1.8016 -1.3663 -1.0738
14837TIP3   OH244455   1.060   0.807   5.079 -0.0482  0.0499  0.4307
14837TIP3    H144456   1.048   0.818   4.985 -0.1880  0.7761  0.5279
14837TIP3    H244457   1.112   0.884   5.105 -0.4485  0.1176  1.0308
14838TIP3   OH244458   8.072   0.014   5.532 -0.2725  0.5975 -0.3506
14838TIP3    H144459   8.038   0.019   5.443  0.5871  0.1259 -0.7083
14838TIP3    H244460   8.166   0.006   5.522  0.1427  3.4841  0.6753
14839TIP3   OH244461   5.806   4.311   1.119 -0.1493  0.6523  0.1986
14839TIP3    H144462   5.716   4.301   1.087 -0.2810 -0.8390  0.9734
14839TIP3    H244463   5.797   4.356   1.203 -0.1190  1.0570 -0.0140
   8.50000   8.01388   6.94022   0.00000   0.00000  -2.83333   0.00000  -2.83333  -4.00694
