Title
46055
    1GLY      N    1   2.502   3.303   0.711  0.4740 -0.5631 -0.0441
    1GLY    HT1    2   2.593   3.255   0.701  0.4549 -0.7177  0.5005
    1GLY    HT2    3   2.450   3.269   0.627 -0.5144 -0.1992  0.4076
    1GLY    HT3    4   2.455   3.274   0.799 -2.3838  1.0529 -0.8797
    1GLY     CA    5   2.520   3.452   0.708 -0.0127 -0.0727  0.3608
    1GLY    HA1    6   2.423   3.499   0.718  0.2734  0.7072 -0.4679
    1GLY    HA2    7   2.573   3.476   0.617  1.0486 -1.6061  0.5490
    1GLY      C    8   2.613   3.495   0.819  0.2902 -0.0891 -0.2020
    1GLY      O    9   2.661   3.406   0.887  0.3557  0.5672 -0.3043
    2PRO      N   10   2.649   3.623   0.821 -0.2690 -0.4413 -0.1183
    2PRO     CD   11   2.604   3.731   0.730  0.4405  0.6074 -0.0793
    2PRO    HD1   12   2.498   3.755   0.753  0.9683  2.1598  0.8297
    2PRO    HD2   13   2.613   3.705   0.622 -2.2475 -1.5013  0.0807
    2PRO     CA   14   2.741   3.677   0.918 -0.3956  0.1304  0.2230
    2PRO     HA   15   2.836   3.632   0.895 -1.2089 -1.0243 -1.0743
    2PRO     CB   16   2.737   3.828   0.905 -0.9853 -0.0842 -0.1491
    2PRO    HB1   17   2.836   3.876   0.920 -1.6362  1.8638 -1.6231
    2PRO    HB2   18   2.665   3.872   0.977 -0.3725 -1.8394  1.5923
    2PRO     CG   19   2.689   3.850   0.761 -0.3331  0.1894 -0.5943
    2PRO    HG1   20   2.637   3.948   0.762 -0.3336  0.2018  1.0473
    2PRO    HG2   21   2.777   3.860   0.693 -0.5012  0.8373 -0.7277
    2PRO      C   22   2.723   3.626   1.066  0.5069  0.3498 -0.2815
    2PRO      O   23   2.608   3.608   1.110  0.1946  0.2560  0.3545
    3GLY      N   24   2.834   3.615   1.142 -0.4484 -0.3376  0.1855
    3GLY     HN   25   2.921   3.637   1.098 -0.9991 -0.3630 -0.9386
    3GLY     CA   26   2.855   3.567   1.282  0.4303 -0.6429  0.6691
    3GLY    HA1   27   2.960   3.589   1.299  0.3252  0.1115  0.3728
    3GLY    HA2   28   2.839   3.461   1.293 -2.2822 -0.4966 -1.0958
    3GLY      C   29   2.778   3.642   1.382  0.3972 -0.0140 -0.3922
    3GLY      O   30   2.698   3.730   1.356 -0.3817 -1.1342  1.1260
    4ALA      N   31   2.809   3.607   1.512 -0.7934 -0.7793  0.1109
    4ALA     HN   32   2.885   3.547   1.534  0.0844  0.0345 -0.6642
    4ALA     CA   33   2.744   3.657   1.622  0.8252 -0.2586  0.2160
    4ALA     HA   34   2.711   3.759   1.611 -2.1358 -1.2795 -1.3486
    4ALA     CB   35   2.620   3.559   1.648 -0.1221 -0.1722 -0.4036
    4ALA    HB1   36   2.648   3.457   1.682  0.1762  0.5490  1.6091
    4ALA    HB2   37   2.561   3.547   1.554  0.0118 -1.6973 -0.3120
    4ALA    HB3   38   2.555   3.600   1.728  0.5042  0.2821 -0.1192
    4ALA      C   39   2.852   3.644   1.729 -0.3370  0.7102  0.1590
    4ALA      O   40   2.955   3.578   1.705  0.4239  0.3201 -0.1220
    5PRO      N   41   2.834   3.703   1.847  0.3324 -0.8346  0.7588
    5PRO     CD   42   2.755   3.830   1.855 -0.2275 -0.5924 -0.4254
    5PRO    HD1   43   2.654   3.809   1.814  1.3768 -1.2017 -4.6547
    5PRO    HD2   44   2.799   3.916   1.800  1.2020 -0.0638  1.4359
    5PRO     CA   45   2.874   3.653   1.982 -0.1535 -0.3542 -0.6561
    5PRO     HA   46   2.975   3.691   1.989  0.0197 -1.0534  1.8150
    5PRO     CB   47   2.768   3.727   2.074 -0.1610  0.5970  0.2988
    5PRO    HB1   48   2.802   3.738   2.179 -1.0146  0.5718  0.5843
    5PRO    HB2   49   2.676   3.665   2.082  0.6546 -1.1386 -2.2684
    5PRO     CG   50   2.752   3.871   2.000  0.0163  0.5328 -0.1555
    5PRO    HG1   51   2.661   3.923   2.036  0.8503  0.6194  1.9243
    5PRO    HG2   52   2.838   3.937   2.022 -0.4364  0.9030  0.5390
    5PRO      C   53   2.882   3.507   2.005 -0.3226  0.1949  0.0396
    5PRO      O   54   2.788   3.435   1.973 -0.0727  0.7985 -0.1326
    6GLY      N   55   2.999   3.467   2.069 -0.2242 -0.4193  0.3203
    6GLY     HN   56   3.072   3.532   2.089  0.1217 -0.3963 -0.8934
    6GLY     CA   57   3.028   3.335   2.125  0.4121 -0.3415  0.1794
    6GLY    HA1   58   3.135   3.327   2.127  0.3967 -1.5507 -1.8223
    6GLY    HA2   59   2.971   3.266   2.065 -1.3996  0.8565  0.4285
    6GLY      C   60   2.975   3.336   2.266  0.3089 -0.0609 -0.3464
    6GLY      O   61   2.927   3.437   2.315  0.1543  0.4863 -0.4734
    7PRO      N   62   2.987   3.226   2.340 -0.2467 -0.4675 -0.3325
    7PRO     CD   63   3.027   3.094   2.284  0.0436 -0.1769  0.1332
    7PRO    HD1   64   3.114   3.090   2.215 -0.6015  0.4946 -0.7340
    7PRO    HD2   65   2.942   3.061   2.222  0.7448  0.3439 -1.1357
    7PRO     CA   66   2.946   3.215   2.481 -0.1043 -0.0987 -0.5367
    7PRO     HA   67   2.840   3.231   2.485  0.0169  1.2599 -1.7590
    7PRO     CB   68   2.986   3.069   2.526 -0.1574 -0.1883  0.7407
    7PRO    HB1   69   2.895   3.012   2.554 -0.6358 -0.1410 -0.6278
    7PRO    HB2   70   3.056   3.061   2.611  0.8676  2.4129  0.2419
    7PRO     CG   71   3.044   3.000   2.403 -0.2153 -0.1146  0.0845
    7PRO    HG1   72   3.154   2.995   2.421 -0.5520 -1.5229  2.0777
    7PRO    HG2   73   3.005   2.897   2.389 -1.2473  0.3875 -0.9036
    7PRO      C   74   3.009   3.326   2.578  0.2662 -0.1471  0.5143
    7PRO      O   75   3.112   3.390   2.540  0.0720 -0.4756 -0.0667
    8GLY      N   76   2.949   3.332   2.695  0.3713 -0.1931  0.3156
    8GLY     HN   77   2.875   3.270   2.719  0.5333 -0.4591  0.1313
    8GLY     CA   78   2.988   3.413   2.809 -0.1602  0.2590 -0.3786
    8GLY    HA1   79   2.916   3.492   2.820 -0.1729  0.3091 -0.8048
    8GLY    HA2   80   3.089   3.442   2.784 -0.2498  1.4906  0.5932
    8GLY      C   81   2.996   3.341   2.935  1.0120  0.9998  0.4544
    8GLY      O   82   3.025   3.220   2.937 -0.8315 -0.0774  0.5610
    9ALA      N   83   2.965   3.401   3.051 -0.1830 -0.1994  0.4148
    9ALA     HN   84   2.945   3.499   3.047 -0.9274 -0.3496  0.4300
    9ALA     CA   85   2.994   3.347   3.182  0.5486 -0.9581  0.4251
    9ALA     HA   86   3.008   3.240   3.174  2.2484 -0.6861 -0.6321
    9ALA     CB   87   3.105   3.424   3.252  0.0579  0.1559  0.0494
    9ALA    HB1   88   3.202   3.412   3.200 -1.1201  1.3147 -2.5890
    9ALA    HB2   89   3.124   3.393   3.357 -0.1229  1.8684  0.6277
    9ALA    HB3   90   3.088   3.534   3.258 -1.1786 -0.0454  0.7752
    9ALA      C   91   2.867   3.361   3.262 -0.7798 -0.5396 -0.0613
    9ALA      O   92   2.790   3.455   3.228 -0.6501 -0.0534  0.1834
   10PRO      N   93   2.838   3.285   3.368  0.4334 -0.7333  0.7708
   10PRO     CD   94   2.906   3.161   3.409  0.2735  0.3367  0.2305
   10PRO    HD1   95   3.011   3.190   3.430  0.2687  0.7717 -0.3194
   10PRO    HD2   96   2.917   3.099   3.317  0.0474  0.0847  0.3706
   10PRO     CA   97   2.714   3.299   3.445 -0.1022  0.2406 -0.1051
   10PRO     HA   98   2.633   3.270   3.380 -0.5285 -0.3988  0.6904
   10PRO     CB   99   2.745   3.205   3.570 -0.1526 -0.0116  0.4670
   10PRO    HB1  100   2.649   3.166   3.611 -0.5050  0.6553  0.2861
   10PRO    HB2  101   2.802   3.267   3.643 -0.5774  0.5886  0.3050
   10PRO     CG  102   2.825   3.092   3.508  0.2017 -0.3202 -0.2990
   10PRO    HG1  103   2.884   3.047   3.590 -0.6627  1.2131  1.2331
   10PRO    HG2  104   2.769   3.007   3.462 -0.3855  1.1240 -2.3839
   10PRO      C  105   2.668   3.437   3.502 -0.4180 -0.4802 -0.7289
   10PRO      O  106   2.748   3.530   3.515 -0.1867 -0.1438 -0.2517
   11GLY      N  107   2.541   3.467   3.533 -0.1161 -0.0661  0.1368
   11GLY     HN  108   2.469   3.399   3.525 -1.7866  1.7139 -0.7444
   11GLY     CA  109   2.506   3.601   3.591  0.4838 -0.2204  0.9523
   11GLY    HA1  110   2.398   3.607   3.591  0.2867 -2.6831  0.1151
   11GLY    HA2  111   2.547   3.676   3.524  0.6531 -1.2512 -0.1376
   11GLY      C  112   2.559   3.639   3.727  0.0591 -0.0416 -0.1755
   11GLY      O  113   2.634   3.559   3.792  0.7057  0.1866  0.2273
   12PRO      N  114   2.533   3.757   3.778 -0.2074  0.2355  0.6524
   12PRO     CD  115   2.468   3.868   3.706 -0.9967 -0.3810 -0.1852
   12PRO    HD1  116   2.369   3.831   3.672 -2.2819  1.2163  1.5997
   12PRO    HD2  117   2.521   3.896   3.613  0.0472 -0.5113  0.3570
   12PRO     CA  118   2.543   3.792   3.922  0.1008  0.2045 -0.2739
   12PRO     HA  119   2.650   3.791   3.935 -0.0251 -0.0992  0.8335
   12PRO     CB  120   2.482   3.928   3.942 -0.5655 -0.3607  0.3254
   12PRO    HB1  121   2.541   3.994   4.010 -2.9311  4.5417 -1.9112
   12PRO    HB2  122   2.382   3.928   3.990  0.0763  2.3487  1.8413
   12PRO     CG  123   2.477   3.986   3.799  0.3222  0.0608  0.4704
   12PRO    HG1  124   2.384   4.048   3.791  1.0302  1.2515  1.1023
   12PRO    HG2  125   2.556   4.061   3.774  0.3261 -0.4557 -1.1326
   12PRO      C  126   2.491   3.687   4.029  0.5291  0.3372  0.3638
   12PRO      O  127   2.383   3.628   4.000 -0.0516 -0.2674  0.0696
   13GLY      N  128   2.561   3.654   4.135  0.1648 -0.4592  0.0415
   13GLY     HN  129   2.653   3.694   4.142  1.0991 -2.6172  1.0977
   13GLY     CA  130   2.533   3.563   4.244 -0.5515  0.1309  0.0697
   13GLY    HA1  131   2.614   3.574   4.313 -1.1361  0.3903  0.7254
   13GLY    HA2  132   2.529   3.464   4.200 -1.1036  0.6505 -1.0995
   13GLY      C  133   2.398   3.575   4.317  0.2174  0.2250 -0.8423
   13GLY      O  134   2.315   3.651   4.281 -0.3586  0.4485 -0.3547
   14ALA      N  135   2.379   3.496   4.425 -0.1137 -0.0060  0.0268
   14ALA     HN  136   2.438   3.416   4.435 -0.4460 -0.5325 -1.7794
   14ALA     CA  137   2.293   3.529   4.533 -0.4090  0.1244 -0.1937
   14ALA     HA  138   2.193   3.527   4.493 -0.9337 -1.7199  1.0652
   14ALA     CB  139   2.297   3.431   4.651 -0.4707  0.3234 -0.5832
   14ALA    HB1  140   2.237   3.454   4.742 -1.5084 -0.0007 -1.1676
   14ALA    HB2  141   2.406   3.418   4.668 -0.3297  0.1857 -1.4990
   14ALA    HB3  142   2.250   3.341   4.605 -2.2122  1.1781 -0.5394
   14ALA      C  143   2.336   3.671   4.586 -0.5829  0.1463  0.1123
   14ALA      O  144   2.457   3.712   4.590  0.6993  0.3977 -0.1020
   15PRO      N  145   2.241   3.754   4.620 -0.0089 -0.4919 -0.2890
   15PRO     CD  146   2.106   3.749   4.573  0.0132 -0.2701  0.1768
   15PRO    HD1  147   2.051   3.670   4.629  1.1300 -0.4724  1.0343
   15PRO    HD2  148   2.101   3.734   4.463 -0.4852 -1.1840  0.3200
   15PRO     CA  149   2.269   3.888   4.680 -0.2916  0.0975 -0.2588
   15PRO     HA  150   2.308   3.957   4.606 -0.8555 -1.3471 -1.9700
   15PRO     CB  151   2.131   3.932   4.716  0.1930 -0.3112  0.5405
   15PRO    HB1  152   2.116   4.041   4.733 -0.3694 -0.0250 -1.5148
   15PRO    HB2  153   2.096   3.869   4.801 -2.5374  0.7751  0.3176
   15PRO     CG  154   2.047   3.896   4.595  0.5634 -0.0779 -0.2954
   15PRO    HG1  155   1.939   3.895   4.620  0.5135  0.6046 -0.4590
   15PRO    HG2  156   2.064   3.969   4.512  1.1857  1.2351  0.9453
   15PRO      C  157   2.359   3.896   4.799  0.5845 -0.3458 -0.0521
   15PRO    OT1  158   2.369   3.803   4.884  0.5116 -0.5951  0.3218
   15PRO    OT2  159   2.435   3.994   4.818 -0.3574 -0.0391  0.1549
   16LIT    LIT  160   5.916   4.248   3.085  0.5862  1.3970 -1.4305
   17LIT    LIT  161   3.259   5.172   3.809 -0.2698 -0.8337  0.6425
   18LIT    LIT  162   2.676   3.150   1.651 -0.7667  0.0889 -1.2489
   19LIT    LIT  163   6.073   5.336   2.683 -0.0898 -0.6586  0.3353
   20LIT    LIT  164   3.232   4.551   2.249  0.6195  0.1841 -0.5416
   21LIT    LIT  165   1.485   5.081   1.394  0.8657 -0.6665  0.2154
   22LIT    LIT  166   2.327   2.635   5.326 -0.0264  0.5215 -0.3333
   23LIT    LIT  167   7.793   4.829   4.052 -0.5109  0.3528  0.0680
   24LIT    LIT  168   1.879   5.039   3.197  0.1970 -1.0134  0.9503
   25LIT    LIT  169   4.297   0.256   6.404  1.1378 -1.3908 -0.3806
   26LIT    LIT  170   7.348   2.893   5.098  0.8990 -0.6815  0.3340
   27LIT    LIT  171   1.906   4.720   3.644  0.0966 -0.9911 -0.4886
   28LIT    LIT  172   1.583   6.810   3.832  0.7954 -0.1564 -0.5002
   29LIT    LIT  173   5.496   2.947   0.190 -0.0741  0.2865 -0.8862
   30LIT    LIT  174   4.324   5.827   4.654 -1.5600  0.1122 -0.5540
   31LIT    LIT  175   1.535   2.267   3.666 -0.0016  1.3539 -0.3926
   32LIT    LIT  176   0.047   4.795   6.443  0.7273 -0.0376  0.4066
   33LIT    LIT  177   4.253   6.529   2.746 -0.0858  0.0211  0.6497
   34LIT    LIT  178   7.547   6.820   0.534  0.0519 -0.4668 -1.4946
   35LIT    LIT  179   5.472   7.566   3.353  0.4357  0.6456  0.7892
   36LIT    LIT  180   8.300   0.535   1.056 -1.0961  0.5512  0.2461
   37LIT    LIT  181   4.316   4.954   1.229  0.7047  0.8621 -0.5013
   38LIT    LIT  182   0.919   3.508   0.979  0.3327  0.1908 -1.4563
   39LIT    LIT  183   2.040   2.030   2.551 -0.0960  0.0135 -0.4346
   40LIT    LIT  184   0.694   6.509   3.529 -0.4981  0.6129  0.5908
   41LIT    LIT  185   2.603   1.086   6.609 -0.3062 -0.4057  0.4551
   42LIT    LIT  186   6.910   4.402   0.884 -0.6919 -0.7039 -0.7507
   43LIT    LIT  187   6.768   5.759   6.779 -0.7701  0.5637 -0.2759
   44LIT    LIT  188   3.977   7.668   2.949 -0.7791 -0.4288 -0.8095
   45LIT    LIT  189   0.494   7.903   1.005 -0.1841 -0.9078 -0.2953
   46LIT    LIT  190   1.044   3.723   5.328 -0.2199 -1.0875  0.0009
   47LIT    LIT  191   1.279   0.517   0.976 -1.3158  0.2893  0.0165
   48LIT    LIT  192   1.516   7.610   1.828  0.1491  0.1660 -0.0962
   49LIT    LIT  193   7.874   1.977   6.231  0.3148 -0.2095  0.1991
   50LIT    LIT  194   6.364   3.082   1.440  0.1943  0.6399  0.8357
   51LIT    LIT  195   5.983   0.246   2.194  0.4564  0.6276  0.2869
   52LIT    LIT  196   2.855   6.823   5.642 -0.1045  0.7605 -0.0588
   53LIT    LIT  197   1.371   4.788   0.375 -0.3319 -0.1061  0.8604
   54LIT    LIT  198   5.196   1.697   5.298  0.0632 -0.6140 -0.3961
   55LIT    LIT  199   0.852   2.649   4.462 -0.6055 -0.5452 -0.2931
   56LIT    LIT  200   8.093   4.794   5.050  0.5862 -0.7371  0.7206
   57LIT    LIT  201   5.222   6.013   0.709 -0.6144 -1.0838  0.2480
   58LIT    LIT  202   2.538   3.883   4.947 -0.6641 -0.3967 -0.4976
   59CLA    CLA  203   3.199   7.755   2.753  0.3625 -0.4261 -0.0210
   60CLA    CLA  204   4.127   5.802   4.551  0.5400 -0.4092  0.0107
   61CLA    CLA  205   7.534   7.466   0.756  0.1397 -0.1624 -0.1227
   62CLA    CLA  206   4.645   0.739   2.710 -0.3760 -0.1139 -0.2265
   63CLA    CLA  207   2.284   6.261   3.594  0.2766  0.3125 -0.2384
   64CLA    CLA  208   3.503   5.891   3.945  0.1022  0.1693  0.0992
   65CLA    CLA  209   2.999   1.326   6.672  0.1478  0.0237 -0.3732
   66CLA    CLA  210   5.692   1.950   6.114 -0.3643 -0.2596  0.0059
   67CLA    CLA  211   1.712   4.966   2.730 -0.2503  0.0570 -0.1195
   68CLA    CLA  212   8.010   5.819   3.720 -0.0847 -0.2955 -0.0568
   69CLA    CLA  213   6.420   4.705   3.133  0.1745 -0.2640 -0.1568
   70CLA    CLA  214   4.447   1.189   0.047  0.3906 -0.0326 -0.0282
   71CLA    CLA  215   2.453   1.781   3.007  0.0516 -0.5114  0.2765
   72CLA    CLA  216   7.931   4.698   4.933  0.5466 -0.4487 -0.1888
   73CLA    CLA  217   6.946   2.193   0.621 -0.2168 -0.1646 -0.2085
   74CLA    CLA  218   0.038   0.443   1.719 -0.7159 -0.2282  0.6374
   75CLA    CLA  219   6.295   0.603   6.638  0.2056 -0.0166 -0.5113
   76CLA    CLA  220   0.925   3.728   1.625 -0.1083  0.1545 -0.2000
   77CLA    CLA  221   3.346   1.216   6.324  0.2730 -0.1016  0.0746
   78CLA    CLA  222   7.087   1.809   3.724 -0.6710 -0.1902  0.0565
   79CLA    CLA  223   5.929   3.359   3.208  0.0846 -0.2854 -0.1028
   80CLA    CLA  224   5.431   4.016   5.332 -0.2038 -0.5324  0.0309
   81CLA    CLA  225   1.436   1.329   1.803 -0.1937 -0.2950 -0.0964
   82CLA    CLA  226   8.271   1.099   6.815 -0.0490 -0.3916  0.0394
   83CLA    CLA  227   8.242   6.238   4.632  0.7664  0.1431  0.1612
   84CLA    CLA  228   1.319   6.912   2.965  0.4580  0.0869  0.3649
   85CLA    CLA  229   7.700   6.098   0.498  0.2499  0.0055 -0.0405
   86CLA    CLA  230   0.012   2.353   5.049 -0.2498 -0.0233 -0.5268
   87CLA    CLA  231   1.069   4.940   1.003 -0.0745 -0.4903  0.3134
   88CLA    CLA  232   8.020   4.926   3.200  0.3078  0.0037 -0.1096
   89CLA    CLA  233   7.612   0.084   6.622  0.1184  0.3851 -0.1250
   90CLA    CLA  234   2.273   3.238   5.576 -0.2399 -0.0118  0.0781
   91CLA    CLA  235   6.074   6.605   0.835 -0.2571  0.0542 -0.2935
   92CLA    CLA  236   5.739   5.041   0.701  0.1649  0.3771  0.1261
   93CLA    CLA  237   2.561   0.362   6.040  0.2285  0.7852  0.3528
   94CLA    CLA  238   0.500   0.045   3.484 -0.0406  0.2866  0.2079
   95CLA    CLA  239   2.630   2.560   0.893  0.0025  0.2184 -0.0324
   96CLA    CLA  240   6.705   0.177   3.948  0.3000 -0.2259 -0.0919
   97CLA    CLA  241   3.888   2.628   3.221 -0.1154  0.0577 -0.1667
   98CLA    CLA  242   6.852   2.514   6.331 -0.0907 -0.2733 -0.0097
   99CLA    CLA  243   0.667   4.553   2.955 -0.1094 -0.0288 -0.4666
  100CLA    CLA  244   4.863   1.359   4.169 -0.2411 -0.2997 -0.1039
  101CLA    CLA  245   7.264   0.827   3.040 -0.1381  0.1192  0.0637
  102TIP3   OH2  246   6.071   4.148   0.323  0.3242  0.3720 -0.3019
  102TIP3    H1  247   6.000   4.212   0.314 -0.1962 -0.0435  0.5794
  102TIP3    H2  248   6.146   4.189   0.282 -0.6218  0.5091 -1.9739
  103TIP3   OH2  249   1.627   3.819   2.646  0.1450  0.0314 -0.2832
  103TIP3    H1  250   1.582   3.829   2.730 -0.5546 -1.1205 -0.4909
  103TIP3    H2  251   1.557   3.794   2.585  0.4965  1.6608 -1.4030
  104TIP3   OH2  252   7.185   6.637   4.971  0.0423 -0.3604 -0.1985
  104TIP3    H1  253   7.163   6.546   4.948  0.8367 -0.3437 -1.1019
  104TIP3    H2  254   7.143   6.651   5.056  0.8091 -1.9277  0.4796
  105TIP3   OH2  255   1.943   1.873   4.516  0.5908 -0.1559 -0.0893
  105TIP3    H1  256   1.915   1.825   4.594  1.7824 -0.3756  0.2301
  105TIP3    H2  257   2.039   1.873   4.521  0.8024 -1.6750 -2.4327
  106TIP3   OH2  258   5.319   4.092   0.710 -0.2339 -0.5269  0.2444
  106TIP3    H1  259   5.245   4.071   0.652 -1.2784  2.6413  0.2550
  106TIP3    H2  260   5.283   4.086   0.798 -0.1236 -0.1648  0.3126
  107TIP3   OH2  261   7.105   4.739   6.389  0.1235 -0.5889  0.4471
  107TIP3    H1  262   7.024   4.689   6.378  0.5769 -1.5080  1.1703
  107TIP3    H2  263   7.081   4.814   6.442 -0.6875  0.3071 -1.1187
  108TIP3   OH2  264   4.886   5.965   1.056 -0.2151 -0.0444 -0.2554
  108TIP3    H1  265   4.807   6.019   1.065 -0.1673 -0.1834  1.1582
  108TIP3    H2  266   4.883   5.905   1.130  0.8237 -0.5829 -0.6262
  109TIP3   OH2  267   8.014   6.811   5.317 -0.4963  0.1961  0.0530
  109TIP3    H1  268   7.930   6.839   5.283 -0.9541 -0.8791  0.2512
  109TIP3    H2  269   8.000   6.800   5.411 -0.1702 -0.0851  0.0728
  110TIP3   OH2  270   4.780   2.734   2.702  0.9432 -0.3609  0.0804
  110TIP3    H1  271   4.737   2.770   2.624 -1.6949 -0.3648  1.3971
  110TIP3    H2  272   4.726   2.659   2.727  1.6847 -0.3570  1.8871
  111TIP3   OH2  273   4.678   5.077   0.505 -0.2507  0.3431  0.3305
  111TIP3    H1  274   4.610   5.129   0.461  0.4058  1.4412  0.5905
  111TIP3    H2  275   4.676   4.993   0.459 -0.3736  1.0645 -1.0430
  112TIP3   OH2  276   4.680   2.113   1.854  0.0328 -0.0943 -0.2358
  112TIP3    H1  277   4.682   2.181   1.921  4.1845 -0.9735  0.8807
  112TIP3    H2  278   4.693   2.160   1.772 -0.8272  0.6869  0.0581
  113TIP3   OH2  279   0.252   5.699   0.581  0.3191  0.2628 -0.0881
  113TIP3    H1  280   0.267   5.789   0.554 -3.0377  0.6048 -1.2962
  113TIP3    H2  281   0.204   5.659   0.509 -2.7558 -0.9364  2.3794
  114TIP3   OH2  282   0.922   2.890   3.391 -0.0314  0.1540  0.7092
  114TIP3    H1  283   0.983   2.885   3.318  0.0924 -1.6204  0.9065
  114TIP3    H2  284   0.836   2.898   3.350  0.0708 -0.4375  0.3755
  115TIP3   OH2  285   1.026   3.147   6.640 -0.0086 -0.3117 -0.2037
  115TIP3    H1  286   0.934   3.144   6.615 -0.5250 -0.0315  1.5663
  115TIP3    H2  287   1.029   3.202   6.718  1.2411 -2.4420  1.3720
  116TIP3   OH2  288   1.891   1.530   6.826  0.2429  0.3552  0.2834
  116TIP3    H1  289   1.876   1.624   6.819 -0.3519  0.1611 -1.3436
  116TIP3    H2  290   1.971   1.514   6.775  0.3072 -0.0320  0.4997
  117TIP3   OH2  291   0.546   0.787   2.500 -0.5676 -0.6371 -0.0913
  117TIP3    H1  292   0.523   0.859   2.559 -0.0381 -0.0110 -0.6314
  117TIP3    H2  293   0.634   0.761   2.526  0.2251  0.5554 -1.4485
  118TIP3   OH2  294   3.879   3.186   2.200 -0.4802  0.2439  0.1209
  118TIP3    H1  295   3.812   3.142   2.250 -1.0117  0.0682 -0.7246
  118TIP3    H2  296   3.838   3.205   2.115  0.7833 -0.6285 -0.7260
  119TIP3   OH2  297   8.356   1.236   5.416 -0.0210  0.7591 -0.2150
  119TIP3    H1  298   8.341   1.237   5.322  1.8566 -4.0157 -0.8713
  119TIP3    H2  299   8.445   1.269   5.427  0.4544 -0.4170 -0.4117
  120TIP3   OH2  300   0.397   1.924   4.328 -0.2936 -0.2865 -0.0433
  120TIP3    H1  301   0.401   1.943   4.422  1.8477 -0.7843  0.0358
  120TIP3    H2  302   0.323   1.865   4.318 -0.3398 -0.5065  1.4050
  121TIP3   OH2  303   4.556   0.669   2.374 -0.3805 -0.2076 -0.0398
  121TIP3    H1  304   4.561   0.703   2.463 -0.5569  0.0165 -0.1160
  121TIP3    H2  305   4.636   0.616   2.364 -0.3053 -0.1427  0.2111
  122TIP3   OH2  306   7.882   0.639   1.754 -1.3029  0.6478 -0.1226
  122TIP3    H1  307   7.881   0.686   1.838 -1.3275  0.8948 -0.2585
  122TIP3    H2  308   7.790   0.627   1.732 -1.3631  2.7877 -1.3162
  123TIP3   OH2  309   1.085   2.034   6.821  0.0832 -0.0700 -0.4072
  123TIP3    H1  310   1.021   2.008   6.755 -1.4510  0.7550  0.6835
  123TIP3    H2  311   1.078   1.966   6.888  0.4465 -0.0487 -0.3501
  124TIP3   OH2  312   5.265   4.311   2.864  0.8470 -0.0319  0.2630
  124TIP3    H1  313   5.179   4.308   2.907  0.5060  1.7742 -0.2280
  124TIP3    H2  314   5.283   4.404   2.852  2.4967 -0.4048 -0.4329
  125TIP3   OH2  315   3.988   5.689   6.635 -0.0037  0.1914  0.5542
  125TIP3    H1  316   3.972   5.629   6.562 -1.8458 -0.4306  1.3984
  125TIP3    H2  317   4.007   5.773   6.593  0.6121 -0.5065 -0.6325
  126TIP3   OH2  318   4.375   6.702   6.603  0.4940  0.1378  0.1661
  126TIP3    H1  319   4.395   6.613   6.574 -2.0997 -0.6179  0.4316
  126TIP3    H2  320   4.365   6.752   6.521  1.6084  0.1268  0.0101
  127TIP3   OH2  321   6.076   6.678   3.494  0.2446  0.0883  0.1791
  127TIP3    H1  322   6.070   6.633   3.410  0.3596 -0.0304  0.2352
  127TIP3    H2  323   6.166   6.711   3.498  0.3618 -0.2603  0.4383
  128TIP3   OH2  324   7.976   3.025   1.177 -0.3810 -0.2657  0.2282
  128TIP3    H1  325   8.006   2.959   1.114 -2.4393 -0.5089 -0.5588
  128TIP3    H2  326   8.044   3.025   1.245  0.7291 -1.6649 -0.8129
  129TIP3   OH2  327   8.227   1.979   0.902  0.2144 -0.0309 -0.1505
  129TIP3    H1  328   8.181   1.898   0.929  0.2068 -0.1875 -0.6201
  129TIP3    H2  329   8.262   1.958   0.815 -1.6689  1.1906 -1.2670
  130TIP3   OH2  330   7.298   6.452   1.837 -0.1492  0.0136  0.3994
  130TIP3    H1  331   7.245   6.522   1.800  0.8238  0.3781 -0.3468
  130TIP3    H2  332   7.310   6.477   1.929 -0.1593  0.6068  0.2416
  131TIP3   OH2  333   0.794   2.025   5.065  0.1944  0.2102 -0.1485
  131TIP3    H1  334   0.868   2.011   5.006 -0.2012  0.1915 -0.6412
  131TIP3    H2  335   0.791   2.120   5.077 -1.0046  0.4273 -1.8398
  132TIP3   OH2  336   8.039   6.809   5.858 -0.4833 -0.1636  0.4881
  132TIP3    H1  337   8.044   6.904   5.854 -0.2676 -0.1886  0.0537
  132TIP3    H2  338   7.948   6.791   5.880 -1.5180  0.0922 -3.0334
  133TIP3   OH2  339   5.401   1.534   3.098 -0.1393 -0.0864 -0.1511
  133TIP3    H1  340   5.446   1.530   3.014  2.0248 -0.5140  0.9705
  133TIP3    H2  341   5.440   1.464   3.150 -0.3901  1.0859  1.7047
  134TIP3   OH2  342   2.463   3.028   4.683  0.8284 -0.3269 -0.0018
  134TIP3    H1  343   2.480   3.072   4.767  1.6328 -1.2584  0.3500
  134TIP3    H2  344   2.550   3.011   4.647  0.5752 -1.7749 -0.0225
  135TIP3   OH2  345   0.252   6.775   4.960  0.1385 -0.7294 -0.6244
  135TIP3    H1  346   0.237   6.841   5.028  1.8583 -0.1297 -0.7861
  135TIP3    H2  347   0.213   6.695   4.995  2.2265 -0.8134  1.7682
  136TIP3   OH2  348   1.798   7.878   1.629 -0.7660  0.1207  0.1133
  136TIP3    H1  349   1.854   7.811   1.589  1.7288  1.5699  0.9609
  136TIP3    H2  350   1.811   7.956   1.574 -1.2309  0.7348  0.8590
  137TIP3   OH2  351   8.369   1.303   3.051  0.1469 -0.4180 -0.2336
  137TIP3    H1  352   8.380   1.354   2.971  0.3032 -0.2548 -0.1105
  137TIP3    H2  353   8.453   1.257   3.062  0.4857  0.3165  0.3553
  138TIP3   OH2  354   4.282   0.451   0.184  0.1493  0.2900  0.3110
  138TIP3    H1  355   4.306   0.369   0.227  0.4692 -0.1074 -0.5993
  138TIP3    H2  356   4.189   0.443   0.166  0.2269  0.0288  0.0223
  139TIP3   OH2  357   2.018   5.763   0.700  0.0910 -0.1450 -0.2727
  139TIP3    H1  358   2.055   5.717   0.775  1.9606 -2.8681 -2.6173
  139TIP3    H2  359   2.062   5.848   0.699  0.1319 -0.1118  1.5791
  140TIP3   OH2  360   6.556   0.996   5.527  0.0082 -0.0073 -0.1243
  140TIP3    H1  361   6.577   0.922   5.584  1.1795  0.8701  0.6109
  140TIP3    H2  362   6.478   1.035   5.566 -2.4458 -2.4776 -2.1167
  141TIP3   OH2  363   6.024   4.777   1.809  0.4702  0.2050 -0.2248
  141TIP3    H1  364   5.946   4.790   1.863 -0.5176 -0.1535 -1.5265
  141TIP3    H2  365   6.096   4.775   1.872 -0.5657  0.5028  1.0116
  142TIP3   OH2  366   3.422   2.662   5.700 -0.0648  0.8607  0.5238
  142TIP3    H1  367   3.378   2.722   5.760  0.6125  2.2929 -0.3582
  142TIP3    H2  368   3.484   2.717   5.652  0.1426 -0.4340 -0.7654
  143TIP3   OH2  369   6.505   7.598   1.177 -0.1620  0.4558 -0.4825
  143TIP3    H1  370   6.563   7.529   1.208 -0.6925  0.7687  1.3243
  143TIP3    H2  371   6.535   7.677   1.222 -1.8516  0.6481  0.3846
  144TIP3   OH2  372   6.889   4.797   2.974 -0.4177 -0.0127 -0.0743
  144TIP3    H1  373   6.965   4.740   2.980 -1.4654 -1.2949  2.3876
  144TIP3    H2  374   6.921   4.883   3.001  0.7997  0.2505 -2.1697
  145TIP3   OH2  375   7.991   7.712   4.187  0.4353 -0.3474  0.3885
  145TIP3    H1  376   8.043   7.784   4.151  1.8624 -0.6281  1.7610
  145TIP3    H2  377   8.032   7.633   4.152  0.1261 -0.5528  0.4853
  146TIP3   OH2  378   7.303   6.330   3.390 -0.1010  0.0641 -0.3057
  146TIP3    H1  379   7.363   6.382   3.442 -0.5900 -0.5484  0.9190
  146TIP3    H2  380   7.311   6.241   3.425 -1.5654 -0.0630 -0.2287
  147TIP3   OH2  381   0.480   7.282   6.476 -0.1444 -0.4815 -0.2181
  147TIP3    H1  382   0.568   7.311   6.499 -0.9876  0.5783  1.9967
  147TIP3    H2  383   0.461   7.327   6.393  0.8100  0.5579  0.1034
  148TIP3   OH2  384   0.700   4.681   3.597  0.1995 -0.1036 -0.1335
  148TIP3    H1  385   0.753   4.730   3.660  0.1472  1.4579 -1.2626
  148TIP3    H2  386   0.723   4.589   3.614  0.6822  0.3083  1.6908
  149TIP3   OH2  387   5.855   1.451   5.190 -0.6525  0.1550 -0.2712
  149TIP3    H1  388   5.879   1.543   5.178  0.4303  0.0123  0.6221
  149TIP3    H2  389   5.792   1.433   5.120  0.7057  1.0117 -1.7790
  150TIP3   OH2  390   4.248   3.451   4.433 -0.2790 -0.3501  0.6829
  150TIP3    H1  391   4.197   3.370   4.436  0.6850 -1.0060  0.2424
  150TIP3    H2  392   4.307   3.438   4.358 -1.2826  1.4933 -0.4838
  151TIP3   OH2  393   8.233   3.483   2.165 -0.6602  0.2448 -0.5131
  151TIP3    H1  394   8.298   3.418   2.138 -1.2673  0.0679 -1.6078
  151TIP3    H2  395   8.267   3.519   2.247  0.9704  0.3761 -1.2146
  152TIP3   OH2  396   8.312   3.712   1.391 -0.3066 -0.2924  0.1494
  152TIP3    H1  397   8.271   3.758   1.464  0.4376 -0.8053  0.9220
  152TIP3    H2  398   8.346   3.781   1.334  0.1385  0.1180  0.9046
  153TIP3   OH2  399   6.245   4.209   3.207  0.1661  0.0363  0.2739
  153TIP3    H1  400   6.226   4.185   3.117  0.0420 -1.2994  0.6383
  153TIP3    H2  401   6.189   4.152   3.260  0.4575  0.5866  1.2030
  154TIP3   OH2  402   5.058   2.165   3.384 -0.5868 -0.4792  0.1417
  154TIP3    H1  403   5.142   2.160   3.337  0.6041 -0.7272  2.1543
  154TIP3    H2  404   5.017   2.080   3.370  0.9921 -1.5615  1.6425
  155TIP3   OH2  405   7.904   7.607   2.868  0.2594 -0.3760  0.0666
  155TIP3    H1  406   7.827   7.663   2.870  0.0387 -0.4944 -2.3303
  155TIP3    H2  407   7.947   7.623   2.951 -0.0244  3.0018 -0.2915
  156TIP3   OH2  408   0.540   2.849   3.514 -0.4203 -0.1327  0.8806
  156TIP3    H1  409   0.457   2.889   3.491 -0.6361 -1.2884 -0.4918
  156TIP3    H2  410   0.569   2.897   3.592 -1.9718  0.8069  0.9234
  157TIP3   OH2  411   4.545   5.710   1.043  0.1767  0.3537  0.1392
  157TIP3    H1  412   4.580   5.684   0.957  2.1516  0.6576  0.7922
  157TIP3    H2  413   4.493   5.788   1.025 -1.0767 -0.7054 -1.0310
  158TIP3   OH2  414   7.874   1.336   3.906  0.3229 -0.4683 -0.3635
  158TIP3    H1  415   7.788   1.357   3.941  0.6266 -0.9101  0.6720
  158TIP3    H2  416   7.862   1.339   3.811 -0.8545 -0.6283 -0.2379
  159TIP3   OH2  417   6.268   6.386   4.353 -0.1758 -0.0297  0.2511
  159TIP3    H1  418   6.306   6.311   4.399 -0.7632 -0.7010 -0.3300
  159TIP3    H2  419   6.273   6.458   4.416 -1.4882 -1.0533  1.6114
  160TIP3   OH2  420   3.481   7.907   6.131 -0.4218  0.1072 -0.5031
  160TIP3    H1  421   3.542   7.962   6.181  0.9523 -0.2042 -1.7571
  160TIP3    H2  422   3.448   7.844   6.194  1.8821 -0.7877 -0.0856
  161TIP3   OH2  423   5.331   5.854   6.521  0.0733 -0.7882  0.3398
  161TIP3    H1  424   5.418   5.817   6.535  0.1955 -0.4258  0.5452
  161TIP3    H2  425   5.284   5.840   6.603 -0.4155 -1.9179 -0.1144
  162TIP3   OH2  426   6.033   6.631   4.526  0.1007 -1.2339  0.4060
  162TIP3    H1  427   6.122   6.662   4.541 -0.1781 -0.1161 -0.1428
  162TIP3    H2  428   5.987   6.707   4.491 -0.7473 -2.1429 -0.5291
  163TIP3   OH2  429   1.909   0.834   6.691  1.0101  0.4230 -0.1481
  163TIP3    H1  430   1.901   0.837   6.596  0.6727  0.4347 -0.1186
  163TIP3    H2  431   1.858   0.909   6.722  1.4826  0.6827  0.0199
  164TIP3   OH2  432   5.981   0.749   4.849 -0.4735  0.4089 -0.2081
  164TIP3    H1  433   5.887   0.759   4.861 -0.2540  0.5101  1.6926
  164TIP3    H2  434   5.992   0.659   4.819 -1.0662 -0.1901  1.3008
  165TIP3   OH2  435   7.983   2.812   4.122 -0.1864 -0.0296 -0.4038
  165TIP3    H1  436   8.077   2.828   4.130 -0.1274 -0.4839 -0.1378
  165TIP3    H2  437   7.977   2.726   4.080 -0.4774 -0.2209  0.0240
  166TIP3   OH2  438   6.213   5.682   4.416  0.3904  0.6826 -0.2912
  166TIP3    H1  439   6.303   5.670   4.384  0.9494  0.4932  1.2528
  166TIP3    H2  440   6.193   5.600   4.461 -0.6735  0.6196 -0.8604
  167TIP3   OH2  441   6.875   4.147   2.288  0.1861  0.0773 -1.3659
  167TIP3    H1  442   6.903   4.076   2.229 -0.7146 -1.2317 -0.2921
  167TIP3    H2  443   6.936   4.142   2.362 -1.1115 -1.0172 -0.2996
  168TIP3   OH2  444   6.109   7.140   4.948  0.2304 -0.0108  0.1081
  168TIP3    H1  445   6.131   7.053   4.982 -0.9937 -1.0212 -1.4925
  168TIP3    H2  446   6.193   7.185   4.939  1.0881 -1.6737 -0.6193
  169TIP3   OH2  447   2.657   0.385   4.692 -0.2803  0.6057  0.4407
  169TIP3    H1  448   2.681   0.468   4.650 -0.5898  0.1227 -0.7281
  169TIP3    H2  449   2.639   0.326   4.619 -0.3006 -0.4258  1.2657
  170TIP3   OH2  450   3.978   7.731   1.164 -0.3869 -0.3707  0.0821
  170TIP3    H1  451   4.037   7.798   1.127  0.0296 -0.5173  0.4667
  170TIP3    H2  452   4.019   7.708   1.247 -3.7737  3.5927  3.3228
  171TIP3   OH2  453   7.223   4.961   5.420 -0.0788  0.2479  0.0012
  171TIP3    H1  454   7.195   5.020   5.490 -1.4199  0.7249 -0.9039
  171TIP3    H2  455   7.318   4.971   5.418 -0.0200  0.3733  1.6022
  172TIP3   OH2  456   2.930   6.432   6.076  0.6223  0.2378 -0.4868
  172TIP3    H1  457   3.016   6.472   6.075  1.4240 -1.3469  0.3677
  172TIP3    H2  458   2.871   6.499   6.042  2.4364  0.7250 -2.8638
  173TIP3   OH2  459   7.250   4.377   3.878  0.0062  0.1994 -0.3936
  173TIP3    H1  460   7.254   4.384   3.783 -0.4479  1.0761 -0.3504
  173TIP3    H2  461   7.160   4.350   3.897  0.4317 -1.2274 -0.2701
  174TIP3   OH2  462   0.106   3.311   5.142 -0.2373 -0.3235 -0.2354
  174TIP3    H1  463   0.054   3.289   5.065 -0.7461  0.4047 -0.1160
  174TIP3    H2  464   0.142   3.227   5.172 -3.1171 -1.2857  0.9526
  175TIP3   OH2  465   4.335   5.821   5.563  0.2918  0.1213 -0.2085
  175TIP3    H1  466   4.282   5.823   5.643 -1.4181 -0.6224 -1.2522
  175TIP3    H2  467   4.368   5.732   5.558 -0.6331 -0.1994 -0.9275
  176TIP3   OH2  468   5.176   4.564   0.764 -0.1508  0.1098 -0.0832
  176TIP3    H1  469   5.202   4.641   0.714 -0.8130 -0.0907 -0.7587
  176TIP3    H2  470   5.247   4.550   0.827 -0.3505  1.6613  0.5173
  177TIP3   OH2  471   0.073   7.024   2.892 -0.1692  0.0820 -0.5174
  177TIP3    H1  472   0.069   7.086   2.819  1.1536  0.4427 -0.3099
  177TIP3    H2  473  -0.018   7.003   2.911 -0.5855  1.0419 -1.3869
  178TIP3   OH2  474   5.770   0.232   5.489  0.0250  0.6371  0.1993
  178TIP3    H1  475   5.763   0.139   5.465  0.3563  0.6656 -0.0184
  178TIP3    H2  476   5.785   0.231   5.583 -0.5949  0.4933  0.2948
  179TIP3   OH2  477   0.141   7.659   4.172  0.0579 -0.2881  0.1295
  179TIP3    H1  478   0.190   7.685   4.094  2.2302  1.6044  1.9865
  179TIP3    H2  479   0.206   7.656   4.241 -2.1316  0.3093  2.3501
  180TIP3   OH2  480   1.407   5.913   5.096  0.1441  0.3190 -0.5658
  180TIP3    H1  481   1.487   5.947   5.136  0.0051 -0.4892  0.4482
  180TIP3    H2  482   1.346   5.986   5.099  0.0904  0.2449  0.8879
  181TIP3   OH2  483   7.355   4.172   6.044  0.0202 -0.0107  0.3068
  181TIP3    H1  484   7.318   4.258   6.068 -1.7699 -0.8259  0.6725
  181TIP3    H2  485   7.329   4.159   5.953 -0.1019 -0.3481  0.3880
  182TIP3   OH2  486   7.908   2.002   3.656 -0.7035 -0.2404  0.2683
  182TIP3    H1  487   7.837   1.952   3.615 -1.8956  1.6358 -0.0885
  182TIP3    H2  488   7.907   2.086   3.610  0.8143  0.3508  1.2458
  183TIP3   OH2  489   1.487   3.197   6.316 -0.6066 -0.0553  0.1243
  183TIP3    H1  490   1.433   3.188   6.395 -1.1715 -0.6704 -0.3203
  183TIP3    H2  491   1.462   3.283   6.281 -0.6043  0.0723  0.4259
  184TIP3   OH2  492   8.209   1.545   0.526 -0.3441  0.0552 -0.0779
  184TIP3    H1  493   8.147   1.501   0.469 -1.0582  0.7175  0.1774
  184TIP3    H2  494   8.190   1.638   0.515  2.7995  0.5781 -2.5905
  185TIP3   OH2  495   2.480   0.343   6.525  0.1901  0.0740 -0.3839
  185TIP3    H1  496   2.552   0.355   6.464  0.7551 -1.2368  0.0005
  185TIP3    H2  497   2.467   0.248   6.529 -0.3856  0.1878  0.8882
  186TIP3   OH2  498   0.424   1.794   3.448 -0.0694 -0.0558  0.1426
  186TIP3    H1  499   0.469   1.787   3.532 -0.9908 -0.4601  0.6115
  186TIP3    H2  500   0.360   1.724   3.448 -0.5976  0.4059 -0.5816
  187TIP3   OH2  501  -0.015   3.398   3.996 -0.2617  0.1118 -0.0882
  187TIP3    H1  502   0.007   3.484   3.959  0.7113 -0.0140  0.1795
  187TIP3    H2  503   0.011   3.335   3.930 -2.7032  0.0621 -1.1043
  188TIP3   OH2  504   6.855   1.288   6.200 -0.1183 -0.0085  0.0799
  188TIP3    H1  505   6.841   1.359   6.137  3.7177  0.1645 -0.8529
  188TIP3    H2  506   6.894   1.330   6.276  2.6631 -1.0076 -0.6710
  189TIP3   OH2  507   0.867   2.502   4.592  0.1044  0.2209 -0.0192
  189TIP3    H1  508   0.792   2.445   4.610 -1.5827  2.5117  0.6991
  189TIP3    H2  509   0.935   2.473   4.653 -0.6946 -1.0280  0.3085
  190TIP3   OH2  510   4.852   1.084   2.907 -0.5864 -0.4362  0.1652
  190TIP3    H1  511   4.778   1.035   2.872  0.6653 -0.9149 -2.0139
  190TIP3    H2  512   4.917   1.017   2.929 -0.4753  0.0266  1.3389
  191TIP3   OH2  513   1.642   5.257   3.975 -0.1722  0.5974 -0.2267
  191TIP3    H1  514   1.664   5.248   4.068 -1.5018  0.7870  0.1347
  191TIP3    H2  515   1.573   5.192   3.961 -0.0249  0.6199 -1.0617
  192TIP3   OH2  516   1.507   1.035   0.332  0.3790 -0.5463 -0.0019
  192TIP3    H1  517   1.444   0.985   0.280  0.2568 -0.5279  0.1276
  192TIP3    H2  518   1.472   1.031   0.421  1.1180 -1.4482  0.2715
  193TIP3   OH2  519   6.500   1.195   4.407 -0.5366 -0.1460 -0.6671
  193TIP3    H1  520   6.448   1.262   4.451 -2.0022 -0.6608 -1.5654
  193TIP3    H2  521   6.572   1.177   4.468 -1.4728  0.4834  0.6821
  194TIP3   OH2  522   7.947   1.253   2.447 -0.3039  0.2950 -0.1582
  194TIP3    H1  523   7.997   1.173   2.459  0.4783  0.8866  0.6839
  194TIP3    H2  524   7.949   1.269   2.352  0.7716  0.0869 -0.1879
  195TIP3   OH2  525   5.890   0.581   5.126  0.2604  0.1761  0.2955
  195TIP3    H1  526   5.935   0.531   5.194  1.1918  2.3947  1.4025
  195TIP3    H2  527   5.857   0.659   5.171  1.5388  2.1051 -1.8879
  196TIP3   OH2  528   1.535   5.066   4.579 -0.0585 -0.4974 -0.8729
  196TIP3    H1  529   1.546   5.158   4.553 -1.7006 -0.5687 -1.9461
  196TIP3    H2  530   1.589   5.057   4.658 -0.7655  1.6896 -0.0629
  197TIP3   OH2  531   2.938   1.854   1.109 -0.0581 -0.2957 -0.2689
  197TIP3    H1  532   2.896   1.937   1.132 -1.6507 -1.4559  1.2955
  197TIP3    H2  533   2.973   1.822   1.192  2.3541 -0.2724 -1.2101
  198TIP3   OH2  534   4.997   3.906   1.021  0.3697  0.0878  0.5412
  198TIP3    H1  535   4.949   3.883   0.942  1.0828 -0.0198  0.1294
  198TIP3    H2  536   4.948   3.865   1.092  0.8825 -1.6013 -0.0493
  199TIP3   OH2  537   1.418   5.756   4.705 -0.4346  0.0238  0.0265
  199TIP3    H1  538   1.335   5.724   4.668  0.3739 -0.1639 -1.7552
  199TIP3    H2  539   1.459   5.803   4.633  1.6732 -1.1347  0.3868
  200TIP3   OH2  540   2.614   5.813   3.248  0.2038 -0.5114  0.4127
  200TIP3    H1  541   2.587   5.883   3.189 -0.0059 -1.7000 -0.9378
  200TIP3    H2  542   2.695   5.846   3.288  1.1369 -0.2203 -1.5953
  201TIP3   OH2  543   4.917   7.471   3.528 -0.0357  0.1607 -0.1060
  201TIP3    H1  544   4.914   7.558   3.567  0.6792  0.3729 -0.5025
  201TIP3    H2  545   4.961   7.417   3.593  0.5714  0.3677 -0.3371
  202TIP3   OH2  546   6.500   5.736   5.208 -0.7472 -0.6118 -0.4144
  202TIP3    H1  547   6.487   5.783   5.290 -1.6203 -2.2907  0.4783
  202TIP3    H2  548   6.595   5.726   5.201 -0.3476  2.8121 -1.6228
  203TIP3   OH2  549   6.122   1.487   1.099 -0.2384  0.4565 -0.3581
  203TIP3    H1  550   6.194   1.523   1.048 -0.0311  1.4803  0.6205
  203TIP3    H2  551   6.066   1.563   1.118 -1.1943 -0.1968 -0.4825
  204TIP3   OH2  552   6.992   1.702   2.991 -0.5347  0.3679 -0.1503
  204TIP3    H1  553   7.060   1.709   2.924 -0.5503 -1.3475 -0.3910
  204TIP3    H2  554   6.991   1.609   3.014 -2.6627  0.3786 -0.0077
  205TIP3   OH2  555   3.356   0.184   0.550 -0.2591  0.0282 -0.6737
  205TIP3    H1  556   3.319   0.108   0.504  0.4660  0.1695 -1.5185
  205TIP3    H2  557   3.426   0.147   0.604  0.1729  0.0922 -1.1748
  206TIP3   OH2  558   1.490   3.159   2.615 -0.1178  0.2318 -0.1178
  206TIP3    H1  559   1.432   3.084   2.630  0.2487  0.1824  1.1503
  206TIP3    H2  560   1.578   3.122   2.619  0.0319  0.4185 -1.3895
  207TIP3   OH2  561   2.477   2.341   1.714  0.7592 -0.1946  0.5048
  207TIP3    H1  562   2.388   2.368   1.737  1.1906  2.2837 -0.4948
  207TIP3    H2  563   2.503   2.282   1.785 -1.7734 -1.3187  0.6357
  208TIP3   OH2  564   3.017   4.528   6.479  0.0576 -0.0467 -0.3588
  208TIP3    H1  565   3.062   4.454   6.519 -1.5746 -1.4902 -1.0606
  208TIP3    H2  566   3.007   4.504   6.387 -1.3362  0.5854 -0.4066
  209TIP3   OH2  567   6.454   2.429   0.509 -0.1280 -0.1332 -0.1490
  209TIP3    H1  568   6.387   2.479   0.462 -0.1008 -0.9824 -1.1150
  209TIP3    H2  569   6.466   2.350   0.457  0.3376 -0.8276  0.9875
  210TIP3   OH2  570   0.744   7.158   6.267  0.3028  0.5830 -0.4061
  210TIP3    H1  571   0.741   7.065   6.286 -0.1880  0.3233 -1.6198
  210TIP3    H2  572   0.831   7.186   6.296  0.1105 -0.0431  0.8161
  211TIP3   OH2  573   0.558   6.024   4.224 -0.1334 -0.7001 -0.6473
  211TIP3    H1  574   0.551   5.955   4.290 -2.7438  0.8327  0.8654
  211TIP3    H2  575   0.625   6.083   4.259 -1.2684 -0.0685  0.5898
  212TIP3   OH2  576   2.842   6.919   1.292  0.3653 -0.0932 -0.2559
  212TIP3    H1  577   2.807   6.976   1.223  1.0402  1.3884  0.5769
  212TIP3    H2  578   2.766   6.894   1.344 -0.1328 -1.1102 -1.4222
  213TIP3   OH2  579   3.574   0.673   1.174  0.2438  0.1747 -0.5358
  213TIP3    H1  580   3.578   0.699   1.082  0.6620  0.6983 -0.3751
  213TIP3    H2  581   3.657   0.704   1.211  0.0950 -0.0671  0.0080
  214TIP3   OH2  582   5.759   7.240   4.582 -0.2184  0.1435  0.2997
  214TIP3    H1  583   5.694   7.311   4.583  0.8798  1.2207 -0.7352
  214TIP3    H2  584   5.816   7.259   4.656  1.4917  1.8081 -1.3278
  215TIP3   OH2  585   0.654   6.073   1.960 -0.4088  0.2735  0.1482
  215TIP3    H1  586   0.563   6.074   1.990 -0.0996  0.1023  1.1179
  215TIP3    H2  587   0.700   6.129   2.022  0.1523  0.3708 -0.3457
  216TIP3   OH2  588   5.505   5.455   3.214 -0.2119 -0.2584 -0.0703
  216TIP3    H1  589   5.560   5.434   3.290 -0.0241 -0.2042 -0.1910
  216TIP3    H2  590   5.421   5.481   3.252  0.3806  1.3829  0.2146
  217TIP3   OH2  591   5.962   2.848   2.034 -0.0722 -0.3273 -0.0216
  217TIP3    H1  592   5.902   2.869   1.963  0.5264  0.4498 -0.3130
  217TIP3    H2  593   6.013   2.928   2.047  0.5553 -0.8061  0.5535
  218TIP3   OH2  594   3.356   4.557   6.415  0.0365  0.0816 -0.2494
  218TIP3    H1  595   3.384   4.471   6.445 -0.6117 -0.5260 -1.3185
  218TIP3    H2  596   3.304   4.592   6.487  0.8784 -0.1107  0.4723
  219TIP3   OH2  597   5.258   5.355   3.446  0.2485  0.5240 -0.1651
  219TIP3    H1  598   5.274   5.435   3.396  0.2918 -0.0602 -1.1097
  219TIP3    H2  599   5.226   5.292   3.381  0.0257 -0.1715  0.5978
  220TIP3   OH2  600   4.388   1.961   4.752 -0.0340  0.1291 -0.2058
  220TIP3    H1  601   4.369   2.025   4.820  1.7247  1.3118 -0.7826
  220TIP3    H2  602   4.480   1.938   4.765 -0.0128 -0.5497 -1.4229
  221TIP3   OH2  603   7.947   4.167   1.922 -0.3967 -0.3018  0.1566
  221TIP3    H1  604   7.988   4.253   1.912  1.0190 -0.8136  1.2115
  221TIP3    H2  605   7.857   4.180   1.892  0.3848  0.9739 -1.8686
  222TIP3   OH2  606   6.182   2.205   2.767 -0.1089 -0.0844 -0.0177
  222TIP3    H1  607   6.145   2.226   2.852  0.1746  1.3573 -0.2277
  222TIP3    H2  608   6.273   2.183   2.785 -0.1566 -0.1837  0.0994
  223TIP3   OH2  609   3.482   0.313   0.094 -0.4519  0.0374 -0.0143
  223TIP3    H1  610   3.513   0.303   0.184 -1.0014  0.2404  0.2047
  223TIP3    H2  611   3.490   0.226   0.055  1.8500  0.3888 -0.4641
  224TIP3   OH2  612   7.855   3.154   1.848  0.4783 -0.3251 -0.0386
  224TIP3    H1  613   7.859   3.064   1.883 -1.3789 -0.7245 -0.7466
  224TIP3    H2  614   7.863   3.143   1.753  1.3807  0.3823 -0.0556
  225TIP3   OH2  615   2.496   2.519   5.681 -0.1417 -0.0954 -0.0824
  225TIP3    H1  616   2.410   2.527   5.723 -0.0740  0.9683 -0.1335
  225TIP3    H2  617   2.479   2.535   5.588 -0.2054 -1.9278 -0.4376
  226TIP3   OH2  618   2.049   1.887   2.680  0.4235 -0.0872  0.2458
  226TIP3    H1  619   2.130   1.837   2.684 -0.3740 -1.5139 -0.8582
  226TIP3    H2  620   1.996   1.852   2.752  0.5193  0.3912  0.5555
  227TIP3   OH2  621   5.400   5.655   0.661 -0.2621 -0.2231 -0.2171
  227TIP3    H1  622   5.377   5.744   0.637 -2.9416 -0.1861  1.9345
  227TIP3    H2  623   5.361   5.601   0.592  3.5649  0.1495 -2.9887
  228TIP3   OH2  624   1.594   5.994   1.327 -0.2169 -0.0336 -0.3405
  228TIP3    H1  625   1.675   5.948   1.348  0.0613  0.4830 -0.2543
  228TIP3    H2  626   1.552   5.939   1.261  0.0519 -0.4635 -0.1630
  229TIP3   OH2  627   7.947   5.472   5.845  0.5805 -0.1920  0.1341
  229TIP3    H1  628   7.971   5.562   5.822 -1.8111  0.3471 -0.5622
  229TIP3    H2  629   7.885   5.481   5.917  1.1045 -1.3538  0.7528
  230TIP3   OH2  630   5.685   4.678   0.270 -0.0774 -0.2539 -0.4834
  230TIP3    H1  631   5.605   4.728   0.255  0.4281  0.5195 -0.6482
  230TIP3    H2  632   5.702   4.688   0.364 -0.5320 -0.9870 -0.3088
  231TIP3   OH2  633   7.172   2.390   5.600  0.4167  0.5318 -0.3538
  231TIP3    H1  634   7.257   2.375   5.643  0.1418  2.7451  1.1563
  231TIP3    H2  635   7.123   2.310   5.614  1.1508  0.3716  1.6305
  232TIP3   OH2  636   2.584   5.706   6.574  0.6204  0.0519 -0.1970
  232TIP3    H1  637   2.626   5.634   6.526  1.4899  1.2102 -1.2181
  232TIP3    H2  638   2.541   5.758   6.507 -1.1690 -0.2161  0.6685
  233TIP3   OH2  639   0.517   6.030   1.032  0.5223 -0.1302 -0.2879
  233TIP3    H1  640   0.440   6.038   1.088  0.8325  1.6395 -0.0504
  233TIP3    H2  641   0.531   5.935   1.024 -1.0564 -0.4675  0.4852
  234TIP3   OH2  642   4.187   0.335   4.804 -0.0231 -0.2521 -0.3318
  234TIP3    H1  643   4.187   0.373   4.716 -1.4831 -1.2580 -0.8187
  234TIP3    H2  644   4.275   0.298   4.814 -0.6256 -2.5955 -2.5554
  235TIP3   OH2  645   4.199   0.411   2.386 -0.2717  0.5050 -0.2791
  235TIP3    H1  646   4.218   0.496   2.426 -0.8873  1.1452 -1.3106
  235TIP3    H2  647   4.210   0.426   2.292  0.6176 -0.8239 -0.4177
  236TIP3   OH2  648   2.976   1.764   2.447 -0.1900  0.0943 -0.3676
  236TIP3    H1  649   3.054   1.709   2.445 -0.2839 -0.0238 -1.7680
  236TIP3    H2  650   2.934   1.743   2.531  1.0559 -0.1349  0.2202
  237TIP3   OH2  651   3.739   3.708   4.183 -0.2328 -0.2197  0.2010
  237TIP3    H1  652   3.761   3.764   4.258  1.2823 -0.4190 -0.0489
  237TIP3    H2  653   3.652   3.673   4.202  0.5413 -1.0822  2.3643
  238TIP3   OH2  654   3.545   0.445   0.691  0.6770 -0.0354 -0.7722
  238TIP3    H1  655   3.491   0.379   0.736 -0.1768  1.2070  0.0894
  238TIP3    H2  656   3.617   0.462   0.752 -1.1989  2.6432  0.8993
  239TIP3   OH2  657   4.812   1.339   1.699 -0.3522 -0.1368 -0.2789
  239TIP3    H1  658   4.757   1.364   1.624 -0.8037  0.8080  0.3576
  239TIP3    H2  659   4.820   1.419   1.750  0.9807 -0.4691  0.0506
  240TIP3   OH2  660   0.346   0.363   1.750  0.4806  0.4530  0.0037
  240TIP3    H1  661   0.383   0.448   1.775 -0.2984  1.1920 -1.2558
  240TIP3    H2  662   0.254   0.382   1.733  0.4928 -0.4503 -1.1864
  241TIP3   OH2  663   1.936   1.382   3.075  0.3083 -0.1929 -0.6122
  241TIP3    H1  664   1.887   1.368   2.993 -1.4655 -1.2637  0.5406
  241TIP3    H2  665   1.889   1.453   3.119  0.4491 -0.5024  0.0457
  242TIP3   OH2  666   6.831   6.989   4.602  0.6964  0.0616 -0.0043
  242TIP3    H1  667   6.779   6.920   4.560  0.5751  1.0182 -1.5070
  242TIP3    H2  668   6.825   6.970   4.695 -2.2120  0.0132 -0.1140
  243TIP3   OH2  669   8.228   2.272   3.578  0.0661 -0.3094  0.0182
  243TIP3    H1  670   8.261   2.362   3.588  1.6624 -0.8469 -0.1588
  243TIP3    H2  671   8.210   2.263   3.485 -1.0151  0.1105  0.1707
  244TIP3   OH2  672   2.431   4.674   0.458  0.3587  0.4133 -1.2905
  244TIP3    H1  673   2.493   4.735   0.498  0.2385  0.5556 -1.3242
  244TIP3    H2  674   2.429   4.600   0.519 -0.8015  1.1700 -0.3605
  245TIP3   OH2  675   2.693   3.793   6.784  0.3322 -0.2174  0.6173
  245TIP3    H1  676   2.648   3.763   6.863 -0.4526 -0.6398  0.0224
  245TIP3    H2  677   2.778   3.748   6.787 -0.5024 -1.9263  0.1611
  246TIP3   OH2  678   3.491   2.913   5.582 -0.0078  0.1582 -0.1045
  246TIP3    H1  679   3.460   2.958   5.504  2.4103  1.3016 -0.5004
  246TIP3    H2  680   3.467   2.970   5.654 -1.3134 -0.3879 -0.0811
  247TIP3   OH2  681   3.800   1.364   1.483  0.7465  1.0523 -0.4456
  247TIP3    H1  682   3.753   1.283   1.466  3.3677 -0.3860 -1.4809
  247TIP3    H2  683   3.749   1.432   1.438 -1.1408 -0.0874 -0.1337
  248TIP3   OH2  684   3.391   5.470   2.050  0.4613  0.1479 -0.1102
  248TIP3    H1  685   3.371   5.423   2.131 -1.1134 -1.1083 -1.1560
  248TIP3    H2  686   3.332   5.545   2.051 -0.4802 -0.5605 -0.6439
  249TIP3   OH2  687   5.629   0.610   6.298 -0.3392  0.6865 -0.0529
  249TIP3    H1  688   5.631   0.698   6.261 -1.7855  1.2046  0.9887
  249TIP3    H2  689   5.638   0.551   6.223 -0.1332  1.7088 -0.8498
  250TIP3   OH2  690   1.112   6.894   0.255 -0.0025  0.5408 -0.0050
  250TIP3    H1  691   1.167   6.818   0.275 -0.3314 -0.2096 -1.7521
  250TIP3    H2  692   1.151   6.932   0.177 -2.8589 -1.1289 -2.5036
  251TIP3   OH2  693   6.027   4.917   4.899 -0.0744  0.3898  0.5816
  251TIP3    H1  694   5.959   4.873   4.848 -1.3129  1.6649  1.0491
  251TIP3    H2  695   5.996   4.911   4.989  0.7235  0.5022  0.8641
  252TIP3   OH2  696   3.865   3.049   4.341 -0.1662  0.1142 -0.3633
  252TIP3    H1  697   3.804   3.122   4.346  0.4666  0.5967  1.7993
  252TIP3    H2  698   3.821   2.984   4.287 -0.8555  1.9515 -2.1688
  253TIP3   OH2  699   6.335   3.146   4.165  0.0379 -0.1778  0.2947
  253TIP3    H1  700   6.341   3.063   4.117  2.5126 -0.8856  1.6319
  253TIP3    H2  701   6.321   3.120   4.256 -1.3663  1.0027  0.4545
  254TIP3   OH2  702   3.881   1.651   3.056  0.5124  0.2756 -0.2540
  254TIP3    H1  703   3.845   1.710   3.123  2.5531  1.2128  0.0930
  254TIP3    H2  704   3.898   1.569   3.102  0.5768  0.4478  0.0287
  255TIP3   OH2  705   3.440   2.046   1.899  0.2427 -0.5206  0.2542
  255TIP3    H1  706   3.485   2.127   1.925 -1.6301  0.4637  0.6157
  255TIP3    H2  707   3.400   2.014   1.980 -0.1458 -1.0704 -0.1514
  256TIP3   OH2  708   4.811   7.637   1.767 -0.1480  0.0549  0.2907
  256TIP3    H1  709   4.898   7.673   1.750 -0.1084  0.4526  1.2675
  256TIP3    H2  710   4.775   7.692   1.837 -0.9883 -0.4151  0.2479
  257TIP3   OH2  711   2.049   3.455   0.084 -0.6990  0.2395 -0.6720
  257TIP3    H1  712   1.991   3.400   0.033  0.9057 -1.8050 -0.4202
  257TIP3    H2  713   2.097   3.506   0.018 -1.7117  0.8788 -0.9385
  258TIP3   OH2  714   6.712   4.573   0.488 -0.0071 -0.1141  0.1246
  258TIP3    H1  715   6.734   4.507   0.423 -1.2536  0.9402 -1.4201
  258TIP3    H2  716   6.617   4.573   0.492 -0.0921  2.2191 -0.6401
  259TIP3   OH2  717   5.243   6.307   3.576 -0.2578  0.3201 -0.5709
  259TIP3    H1  718   5.228   6.300   3.670 -0.2057 -0.1779 -0.5949
  259TIP3    H2  719   5.312   6.242   3.558  2.6256  3.0607 -0.3222
  260TIP3   OH2  720   3.181   4.389   1.508  0.3732  0.0939 -0.2110
  260TIP3    H1  721   3.142   4.346   1.432  0.5510  0.4531 -0.5067
  260TIP3    H2  722   3.114   4.382   1.576 -0.5047  1.3111 -0.9096
  261TIP3   OH2  723   7.297   3.077   5.716  0.2731  0.9342  0.3317
  261TIP3    H1  724   7.365   3.014   5.690 -0.2659 -0.4031  1.9977
  261TIP3    H2  725   7.295   3.073   5.811 -2.1178  0.9270  0.3442
  262TIP3   OH2  726   2.607   7.917   2.401 -0.3445  0.1290  0.0150
  262TIP3    H1  727   2.664   7.993   2.390  0.3146 -0.4705 -0.8675
  262TIP3    H2  728   2.667   7.843   2.410 -0.9316 -0.1229  2.5139
  263TIP3   OH2  729   3.847   7.215   3.933  0.1005 -0.3680  0.2950
  263TIP3    H1  730   3.856   7.307   3.906 -1.0703 -0.6183 -1.0695
  263TIP3    H2  731   3.873   7.165   3.855  2.7072 -1.2883  1.6431
  264TIP3   OH2  732   6.324   6.334   5.228  0.0584 -0.1581 -0.0587
  264TIP3    H1  733   6.363   6.377   5.153 -0.6112 -0.5014 -0.6208
  264TIP3    H2  734   6.230   6.343   5.215 -0.1033  1.7687  1.9152
  265TIP3   OH2  735   6.163   4.941   1.271  0.0878  0.1544  0.5676
  265TIP3    H1  736   6.192   4.915   1.183  1.2236  2.0452  0.3113
  265TIP3    H2  737   6.068   4.947   1.264 -0.1697 -2.7049  0.3906
  266TIP3   OH2  738   0.121   4.915   3.670  0.5273 -0.1193 -0.0519
  266TIP3    H1  739   0.099   4.848   3.735 -0.5115  0.1729 -0.0841
  266TIP3    H2  740   0.184   4.972   3.714  0.2838 -0.2706  0.5008
  267TIP3   OH2  741   1.771   4.413   1.943 -0.3951  0.1452  0.0420
  267TIP3    H1  742   1.690   4.430   1.991 -0.0186  2.0460  0.0586
  267TIP3    H2  743   1.835   4.389   2.010 -0.4548  0.5556  0.2487
  268TIP3   OH2  744   3.671   6.897   6.260 -0.4404 -0.0624 -0.8133
  268TIP3    H1  745   3.627   6.854   6.333  0.2428  0.4070 -0.0929
  268TIP3    H2  746   3.715   6.826   6.213  0.3369 -0.2316  0.1195
  269TIP3   OH2  747   1.303   2.667   6.411  0.6871 -0.5319  0.2763
  269TIP3    H1  748   1.305   2.707   6.324  1.5684 -0.6733  0.2194
  269TIP3    H2  749   1.259   2.732   6.466 -0.2044 -0.5918 -0.3335
  270TIP3   OH2  750   7.156   5.683   4.786  0.6420 -0.0500  0.0086
  270TIP3    H1  751   7.078   5.632   4.810 -0.7649  1.2421 -1.5555
  270TIP3    H2  752   7.153   5.760   4.843 -0.6763  1.2110 -1.6351
  271TIP3   OH2  753   2.653   0.866   3.332  0.3590  0.1552  0.0223
  271TIP3    H1  754   2.720   0.880   3.399  0.0192 -0.0475  0.4061
  271TIP3    H2  755   2.702   0.860   3.250  0.6074  3.1543 -0.1534
  272TIP3   OH2  756   5.826   0.820   2.165 -0.1270 -0.2066 -0.2012
  272TIP3    H1  757   5.769   0.745   2.152  0.5147 -0.5474 -1.1583
  272TIP3    H2  758   5.855   0.844   2.076 -0.5388  1.3492  0.0405
  273TIP3   OH2  759   4.768   7.227   3.471 -0.1459 -0.0983 -0.5068
  273TIP3    H1  760   4.773   7.322   3.483 -0.9523  0.1286 -1.8634
  273TIP3    H2  761   4.858   7.202   3.448  0.7063 -0.0928  2.3313
  274TIP3   OH2  762   5.029   6.709   1.085 -0.4524 -0.6409 -0.4581
  274TIP3    H1  763   4.969   6.648   1.129 -0.2986 -0.3743  0.1350
  274TIP3    H2  764   5.048   6.667   1.001 -1.0670 -0.9731 -0.4410
  275TIP3   OH2  765   7.450   7.253   3.594  0.1395 -0.5431  0.4211
  275TIP3    H1  766   7.476   7.260   3.502 -0.5793  2.4941  0.3657
  275TIP3    H2  767   7.459   7.160   3.614  2.5855 -0.9684 -2.0284
  276TIP3   OH2  768   6.784   0.221   3.534 -0.1906  0.1960  0.2381
  276TIP3    H1  769   6.700   0.265   3.519  0.4151  1.3999  0.2060
  276TIP3    H2  770   6.761   0.131   3.556 -1.4448  0.2718 -0.6722
  277TIP3   OH2  771   0.656   5.907   2.705 -0.3319  0.5851 -0.1815
  277TIP3    H1  772   0.588   5.873   2.647  0.5567  0.7090 -1.3476
  277TIP3    H2  773   0.611   5.971   2.760 -1.1804  0.5669 -0.8325
  278TIP3   OH2  774   0.250   6.615   6.004  0.1936 -0.1500  0.4032
  278TIP3    H1  775   0.179   6.631   5.941  0.0037  0.1639  0.6945
  278TIP3    H2  776   0.261   6.520   6.003 -0.5908 -0.2523  0.7318
  279TIP3   OH2  777   1.726   7.848   5.534 -0.2239 -0.6859  0.4947
  279TIP3    H1  778   1.786   7.823   5.464  1.3626 -0.5796  1.7442
  279TIP3    H2  779   1.783   7.858   5.611 -1.3428  2.6601  1.0384
  280TIP3   OH2  780   0.073   6.450   0.792  0.1887  0.1640  0.1391
  280TIP3    H1  781   0.117   6.465   0.875  1.7392  1.1134 -0.8038
  280TIP3    H2  782  -0.013   6.489   0.802 -0.5058 -1.6593  2.0083
  281TIP3   OH2  783   0.168   5.692   3.045  0.1660  0.3136  0.0103
  281TIP3    H1  784   0.190   5.629   3.113  2.5337  0.3172 -0.6399
  281TIP3    H2  785   0.151   5.774   3.092  1.2113  0.1789  0.6477
  282TIP3   OH2  786   3.015   7.901   4.861  0.1881 -0.5295 -0.8185
  282TIP3    H1  787   2.926   7.916   4.831  0.0304  1.4658  0.4219
  282TIP3    H2  788   3.070   7.935   4.791 -0.0625 -0.5098 -1.0069
  283TIP3   OH2  789   1.030   7.193   2.083 -0.3384  0.2665  0.1952
  283TIP3    H1  790   1.080   7.262   2.039  1.1599  0.3911  1.9947
  283TIP3    H2  791   1.026   7.122   2.019  1.8352  0.4084 -0.1729
  284TIP3   OH2  792   6.936   6.700   0.068  0.3198 -0.2781 -0.2060
  284TIP3    H1  793   6.986   6.634   0.117 -0.4173 -0.9211 -0.2974
  284TIP3    H2  794   6.900   6.757   0.136  0.5022 -0.2995 -0.0899
  285TIP3   OH2  795   0.148   5.915   1.419  0.2544 -0.5092  0.1063
  285TIP3    H1  796   0.100   5.990   1.453 -0.5374 -0.6668 -0.6344
  285TIP3    H2  797   0.199   5.883   1.494 -0.6713 -0.2458  0.8647
  286TIP3   OH2  798   3.820   5.768   5.444  0.0785 -0.0870  0.2021
  286TIP3    H1  799   3.824   5.858   5.475  2.4514 -0.3882  0.9795
  286TIP3    H2  800   3.729   5.743   5.455 -0.7864  2.3714 -0.5844
  287TIP3   OH2  801   3.396   6.198   6.070 -0.5635 -0.7586  0.0046
  287TIP3    H1  802   3.461   6.165   6.007  2.1775  1.0175  1.6721
  287TIP3    H2  803   3.355   6.271   6.024 -0.7285 -1.2991 -0.7389
  288TIP3   OH2  804   7.886   5.874   2.669  0.5740  0.0414  0.0637
  288TIP3    H1  805   7.850   5.863   2.757 -0.1999  0.9413 -0.1183
  288TIP3    H2  806   7.818   5.839   2.611  0.2252  1.2017 -0.2569
  289TIP3   OH2  807   0.516   2.172   0.752  0.3211  0.6802  0.0697
  289TIP3    H1  808   0.576   2.226   0.804  0.4955  0.7894 -0.2362
  289TIP3    H2  809   0.519   2.212   0.665  2.9129 -1.6379 -1.0708
  290TIP3   OH2  810   0.115   6.696   5.788 -0.3357 -0.1891  0.3968
  290TIP3    H1  811   0.146   6.665   5.703 -0.6273 -0.4855  0.3992
  290TIP3    H2  812   0.113   6.792   5.779  1.0818 -0.1217  0.5650
  291TIP3   OH2  813   6.517   5.728   0.808 -0.0533  0.8319  0.1069
  291TIP3    H1  814   6.557   5.671   0.742 -1.2474 -0.1330  0.1819
  291TIP3    H2  815   6.587   5.741   0.873  0.7123  0.7097 -0.6708
  292TIP3   OH2  816   0.572   7.414   6.231  0.1354  0.5436 -0.3228
  292TIP3    H1  817   0.621   7.475   6.177  0.3611  0.7769  0.1396
  292TIP3    H2  818   0.625   7.335   6.233 -0.6978 -0.0861 -1.8592
  293TIP3   OH2  819   3.313   7.024   5.265 -0.3025  0.1333 -1.3773
  293TIP3    H1  820   3.301   7.099   5.207  0.2794 -0.3713 -2.1682
  293TIP3    H2  821   3.336   7.062   5.350 -0.1498  0.8562 -1.7386
  294TIP3   OH2  822   2.501   5.308   2.534 -0.0901 -0.1344 -0.6516
  294TIP3    H1  823   2.581   5.314   2.586  1.0154 -0.7232 -2.1791
  294TIP3    H2  824   2.452   5.236   2.572 -0.1150  0.5005  0.5624
  295TIP3   OH2  825   4.324   2.485   0.797  0.3405  0.9141 -0.2630
  295TIP3    H1  826   4.233   2.485   0.767  0.3569 -0.3193 -0.3754
  295TIP3    H2  827   4.323   2.426   0.873  0.5675  2.8685  1.3440
  296TIP3   OH2  828   1.856   5.791   1.027 -0.3766 -0.1146 -0.0904
  296TIP3    H1  829   1.833   5.802   1.119  0.7236 -0.8414  0.2885
  296TIP3    H2  830   1.925   5.855   1.011  0.3868 -0.9230 -0.0434
  297TIP3   OH2  831   0.306   2.507   1.726  0.7621 -0.0754 -0.2165
  297TIP3    H1  832   0.224   2.486   1.770  1.2996 -0.6884  0.5202
  297TIP3    H2  833   0.305   2.454   1.646  0.6739 -0.4877  0.0553
  298TIP3   OH2  834   1.986   0.005   0.263  0.5758  0.3757 -0.1633
  298TIP3    H1  835   2.012   0.016   0.172  1.1944  0.0555 -0.0337
  298TIP3    H2  836   2.065   0.026   0.313  0.8346 -1.2897  0.2078
  299TIP3   OH2  837   7.500   1.261   4.851  0.2290 -0.5594 -0.1221
  299TIP3    H1  838   7.425   1.258   4.791  1.7945  1.9023 -2.4501
  299TIP3    H2  839   7.551   1.183   4.830  0.5449  0.0576 -1.8752
  300TIP3   OH2  840   0.149   3.030   6.357 -0.1329  0.1501  0.7244
  300TIP3    H1  841   0.237   3.055   6.385 -0.0494  0.3062  0.3198
  300TIP3    H2  842   0.117   2.975   6.428 -0.6146  1.9796  1.9968
  301TIP3   OH2  843   6.540   4.899   6.029 -0.0761  0.1824  0.2351
  301TIP3    H1  844   6.459   4.918   6.077 -0.3870 -0.3698 -0.0645
  301TIP3    H2  845   6.550   4.974   5.969  0.1202  0.6929  0.8936
  302TIP3   OH2  846   0.130   2.893   3.266 -0.3544  0.0287 -0.3178
  302TIP3    H1  847   0.095   2.804   3.272  0.1555 -0.1015  1.0892
  302TIP3    H2  848   0.176   2.895   3.182  1.5586 -1.7871  0.5963
  303TIP3   OH2  849   2.162   6.856   5.299 -0.1289  0.4365 -0.3947
  303TIP3    H1  850   2.111   6.927   5.259 -1.1771  0.6475  1.2241
  303TIP3    H2  851   2.176   6.794   5.228  0.7330  2.1793 -1.8447
  304TIP3   OH2  852   2.978   1.110   3.544 -0.0954 -0.0248 -0.2230
  304TIP3    H1  853   2.996   1.204   3.551 -2.0270  0.3792 -0.0275
  304TIP3    H2  854   3.012   1.073   3.625 -1.7607  0.9897  1.0057
  305TIP3   OH2  855   3.366   7.648   5.240 -0.6142  0.1733 -0.0651
  305TIP3    H1  856   3.377   7.736   5.206  1.5703  1.3831  3.2716
  305TIP3    H2  857   3.299   7.656   5.308 -0.3885 -0.7560  0.2845
  306TIP3   OH2  858   0.315   6.000   0.190  0.3505 -0.2374 -0.1011
  306TIP3    H1  859   0.245   5.962   0.242 -0.5303  1.1340 -0.2471
  306TIP3    H2  860   0.307   5.955   0.105 -0.2835 -0.1704 -0.0853
  307TIP3   OH2  861   0.324   6.574   3.817  0.1663  0.1916  0.2811
  307TIP3    H1  862   0.391   6.591   3.884  0.6314 -0.9999  0.1354
  307TIP3    H2  863   0.245   6.615   3.852  0.7438  0.8137  0.8919
  308TIP3   OH2  864   7.150   4.548   4.792  0.0553  0.2099  0.0408
  308TIP3    H1  865   7.195   4.623   4.751 -0.7371  0.1255 -1.0092
  308TIP3    H2  866   7.104   4.505   4.720  0.0470 -0.9756  0.7353
  309TIP3   OH2  867   3.373   2.598   4.394  0.1526 -0.1350  0.0643
  309TIP3    H1  868   3.401   2.637   4.477  0.3246  1.0588 -0.5196
  309TIP3    H2  869   3.379   2.504   4.407 -1.1295 -0.0093  1.8463
  310TIP3   OH2  870   4.744   5.752   0.134 -0.2254 -0.0009  0.1545
  310TIP3    H1  871   4.689   5.676   0.153  0.5481 -1.0709 -1.5940
  310TIP3    H2  872   4.688   5.812   0.086 -0.5188  0.0016  0.4995
  311TIP3   OH2  873   7.400   2.766   6.287 -0.4839 -0.5941 -0.3099
  311TIP3    H1  874   7.381   2.707   6.214 -2.1326 -0.1223 -0.2977
  311TIP3    H2  875   7.329   2.831   6.285  0.3903  0.4403  0.6666
  312TIP3   OH2  876   8.050   2.084   1.094 -0.3706  0.6422 -0.5602
  312TIP3    H1  877   8.049   2.013   1.029 -0.5329 -0.0730  0.2017
  312TIP3    H2  878   8.131   2.069   1.143 -0.9727  0.2664  0.3568
  313TIP3   OH2  879   6.127   4.308   4.782 -0.1461 -0.2525  0.3001
  313TIP3    H1  880   6.081   4.226   4.803 -1.2136  0.0818 -0.6373
  313TIP3    H2  881   6.108   4.366   4.856 -1.8868  0.1233 -0.3948
  314TIP3   OH2  882   5.715   0.150   3.491 -0.5483  0.0806  0.2988
  314TIP3    H1  883   5.801   0.167   3.530 -0.6756 -0.3320  0.7691
  314TIP3    H2  884   5.720   0.190   3.404  0.2117 -0.1851  0.2105
  315TIP3   OH2  885   6.257   7.390   5.541  0.0839  0.2177 -0.7815
  315TIP3    H1  886   6.209   7.356   5.616  0.2394  0.6377 -0.4862
  315TIP3    H2  887   6.204   7.365   5.465 -0.9125  1.1542 -0.4315
  316TIP3   OH2  888   6.770   1.507   4.082  0.1689 -0.4419 -0.6179
  316TIP3    H1  889   6.691   1.547   4.119  1.4769 -0.5263  2.5693
  316TIP3    H2  890   6.816   1.580   4.039  0.6667  0.7917  1.8160
  317TIP3   OH2  891   6.701   2.914   1.232 -0.0467  0.3968 -0.2956
  317TIP3    H1  892   6.732   2.995   1.272  0.6183  0.2997 -0.6009
  317TIP3    H2  893   6.769   2.850   1.251 -1.2042 -0.4518  1.1160
  318TIP3   OH2  894   6.486   5.563   4.701  0.3803  0.4631 -0.0758
  318TIP3    H1  895   6.557   5.584   4.762 -1.3937  1.0287  1.9225
  318TIP3    H2  896   6.479   5.468   4.705  0.2428  0.4933  0.7089
  319TIP3   OH2  897   8.242   6.701   2.047  0.6047 -0.1097 -0.5616
  319TIP3    H1  898   8.241   6.605   2.047  3.5528 -0.3616  2.4721
  319TIP3    H2  899   8.237   6.725   2.140 -1.9880  2.8589 -1.3045
  320TIP3   OH2  900   4.003   2.552   5.064 -0.2503  0.3692  0.2709
  320TIP3    H1  901   4.009   2.630   5.009  0.7557  0.4064  0.4022
  320TIP3    H2  902   3.942   2.495   5.018 -0.7559  1.1039  0.0129
  321TIP3   OH2  903   4.804   6.562   5.507  0.1201  0.0571  0.7258
  321TIP3    H1  904   4.795   6.639   5.451  0.2770  1.0119  1.9585
  321TIP3    H2  905   4.749   6.581   5.583  0.2624 -0.9956  1.1100
  322TIP3   OH2  906   4.009   4.142   2.945  0.0280  0.7329  0.3583
  322TIP3    H1  907   4.036   4.106   3.029  0.7774  0.0677 -0.1443
  322TIP3    H2  908   4.009   4.066   2.886 -0.2208  1.2372 -0.3008
  323TIP3   OH2  909   0.288   5.066   0.969 -0.2702 -0.3055  0.0089
  323TIP3    H1  910   0.327   4.999   1.025 -0.9310 -1.9664 -1.4290
  323TIP3    H2  911   0.193   5.057   0.984 -0.3857  0.0156 -0.4997
  324TIP3   OH2  912   4.457   1.646   4.392  0.1759 -0.3922 -0.1787
  324TIP3    H1  913   4.443   1.641   4.297 -1.1348  2.6160 -0.2540
  324TIP3    H2  914   4.540   1.693   4.401 -0.2057  0.2314  0.1291
  325TIP3   OH2  915   3.324   0.659   1.539  0.1577 -0.1945  0.0884
  325TIP3    H1  916   3.418   0.647   1.539  0.1999 -0.0146  1.3871
  325TIP3    H2  917   3.309   0.730   1.602 -0.7210  0.8600 -1.2578
  326TIP3   OH2  918   7.908   6.432   0.550 -0.2892  0.4227 -0.1990
  326TIP3    H1  919   7.840   6.364   0.547  0.7081 -0.5605 -1.4867
  326TIP3    H2  920   7.873   6.497   0.611 -1.3434 -1.1752  0.9974
  327TIP3   OH2  921   7.437   2.823   4.585  0.3691 -0.7274  1.1584
  327TIP3    H1  922   7.490   2.814   4.506 -1.4117 -2.8890  0.0834
  327TIP3    H2  923   7.402   2.912   4.581  1.7017 -0.2150  0.4620
  328TIP3   OH2  924   0.568   0.146   2.974  0.2235  0.0195 -0.0596
  328TIP3    H1  925   0.602   0.062   2.944  1.1628  0.4863 -0.3414
  328TIP3    H2  926   0.578   0.143   3.070 -0.4589 -0.4798  0.0042
  329TIP3   OH2  927   2.586   5.931   4.449  0.0908  0.3528  0.6644
  329TIP3    H1  928   2.612   6.008   4.500  0.9937  0.4288  0.1090
  329TIP3    H2  929   2.496   5.949   4.423  0.4724  1.4970  0.0581
  330TIP3   OH2  930   5.047   2.462   1.859 -0.1119 -0.1665  0.3866
  330TIP3    H1  931   5.002   2.532   1.906  2.1639  1.1909  0.6876
  330TIP3    H2  932   5.063   2.395   1.926 -0.2357  0.0647  0.6495
  331TIP3   OH2  933   7.878   0.890   4.622 -0.1538  0.7459  0.0677
  331TIP3    H1  934   7.822   0.836   4.678  1.3413 -1.4629 -0.4030
  331TIP3    H2  935   7.819   0.925   4.555 -1.0750 -1.2966 -0.2889
  332TIP3   OH2  936   6.008   7.699   0.145 -0.0837  0.2845  0.0831
  332TIP3    H1  937   6.078   7.729   0.203 -0.7031 -1.0838  1.6423
  332TIP3    H2  938   5.943   7.661   0.205 -0.5020 -1.7088 -1.5290
  333TIP3   OH2  939   4.080   6.170   6.707  0.4686  0.0568  0.4316
  333TIP3    H1  940   4.167   6.159   6.667  1.3579  0.3807  2.1937
  333TIP3    H2  941   4.074   6.098   6.770 -0.8029 -0.3029 -0.0873
  334TIP3   OH2  942   8.139   4.524   1.300 -0.2016  0.3560 -0.2110
  334TIP3    H1  943   8.178   4.595   1.249 -0.2616  0.3854 -0.2148
  334TIP3    H2  944   8.210   4.496   1.359  0.0743 -0.1123 -0.7566
  335TIP3   OH2  945   3.812   7.250   1.245  0.2764 -0.7358 -0.2616
  335TIP3    H1  946   3.869   7.254   1.322  1.0337  2.6069 -0.8355
  335TIP3    H2  947   3.724   7.264   1.280  0.7017  1.6369  0.0566
  336TIP3   OH2  948   3.571   7.302   2.957 -0.6444  0.1343 -0.0553
  336TIP3    H1  949   3.601   7.391   2.939  0.2416 -0.0714  0.3375
  336TIP3    H2  950   3.589   7.289   3.051 -0.4786 -0.5609 -0.1726
  337TIP3   OH2  951   0.153   1.851   6.844  0.1647 -0.3580 -0.2359
  337TIP3    H1  952   0.158   1.768   6.892 -0.9351  0.1786  0.8505
  337TIP3    H2  953   0.240   1.890   6.854 -0.3679  0.2973  2.3862
  338TIP3   OH2  954   3.651   2.550   1.913 -0.0103  0.5095 -0.1388
  338TIP3    H1  955   3.660   2.633   1.865  0.7729  0.0246 -0.8796
  338TIP3    H2  956   3.652   2.575   2.005 -1.2160  1.4469 -0.3629
  339TIP3   OH2  957   6.703   3.530   2.980 -0.0745  0.2695 -0.0005
  339TIP3    H1  958   6.699   3.436   2.963  1.3830  0.2221 -0.2014
  339TIP3    H2  959   6.612   3.559   2.973 -0.3345 -0.8130 -1.6747
  340TIP3   OH2  960   4.763   4.128   4.653 -0.1444  0.3681 -0.1186
  340TIP3    H1  961   4.690   4.159   4.599 -0.5866  1.3780  1.0217
  340TIP3    H2  962   4.812   4.206   4.675  1.0307 -0.2493 -0.4653
  341TIP3   OH2  963   5.055   0.947   4.927 -0.2172  0.6801  0.3647
  341TIP3    H1  964   4.993   0.893   4.975  1.4337 -1.0591  0.6669
  341TIP3    H2  965   5.028   1.037   4.945 -2.1770 -0.0007  1.0393
  342TIP3   OH2  966   2.319   2.905   4.902  0.0218 -0.5247  0.3186
  342TIP3    H1  967   2.324   2.972   4.833  0.3405 -0.1676  0.6842
  342TIP3    H2  968   2.403   2.911   4.947 -0.9159  0.6140  2.0097
  343TIP3   OH2  969   7.491   4.119   3.114 -0.0872 -0.0487  0.0625
  343TIP3    H1  970   7.548   4.187   3.150 -0.4795 -0.9765  2.6497
  343TIP3    H2  971   7.403   4.143   3.144 -0.1770 -1.8353  1.3574
  344TIP3   OH2  972   1.355   7.047   2.081  0.3300  0.5191 -0.0874
  344TIP3    H1  973   1.329   6.970   2.131  1.2598  0.5099  0.4117
  344TIP3    H2  974   1.323   7.030   1.992 -2.4418  1.0886  0.7062
  345TIP3   OH2  975   7.330   4.607   6.447  0.6526  0.3753 -0.3671
  345TIP3    H1  976   7.253   4.659   6.424 -0.1589 -1.2334 -1.5170
  345TIP3    H2  977   7.400   4.671   6.459 -0.2955  1.7169 -1.6848
  346TIP3   OH2  978   4.568   5.023   6.158  0.3025 -0.3584  0.8284
  346TIP3    H1  979   4.604   4.937   6.138 -0.9357 -0.3973 -1.7127
  346TIP3    H2  980   4.520   5.012   6.239 -0.7394 -2.3751  0.0045
  347TIP3   OH2  981   0.768   6.084   2.413  0.4857 -0.0543 -0.0330
  347TIP3    H1  982   0.711   6.020   2.457  1.0424 -1.9330 -1.8772
  347TIP3    H2  983   0.819   6.124   2.483  1.4395 -3.0102  1.1015
  348TIP3   OH2  984   8.237   1.972   1.769 -0.4518 -0.1742 -0.1275
  348TIP3    H1  985   8.308   1.914   1.796 -0.9413 -0.0881  1.4976
  348TIP3    H2  986   8.225   2.031   1.844 -0.4875  1.5263 -1.4130
  349TIP3   OH2  987   0.284   5.547   6.231  0.5682 -0.3830  0.4611
  349TIP3    H1  988   0.278   5.638   6.202  1.3418  0.1297  1.7974
  349TIP3    H2  989   0.351   5.548   6.300  0.3867 -1.9131  0.7038
  350TIP3   OH2  990   4.202   3.514   0.986 -0.1945 -0.1796  0.2081
  350TIP3    H1  991   4.194   3.465   1.068  0.1593 -1.2191 -0.3661
  350TIP3    H2  992   4.235   3.450   0.922  0.5823  0.8732 -0.4911
  351TIP3   OH2  993   1.544   5.972   4.120 -0.4816  0.1704  0.1386
  351TIP3    H1  994   1.597   6.015   4.053 -2.2106  2.5043  0.1574
  351TIP3    H2  995   1.468   5.939   4.073 -0.4272 -0.6080  0.5704
  352TIP3   OH2  996   3.364   4.795   3.625  0.0019 -0.5237 -0.3977
  352TIP3    H1  997   3.441   4.783   3.681 -0.6719 -0.4236  0.5858
  352TIP3    H2  998   3.319   4.710   3.626 -1.7337  0.2948  1.9253
  353TIP3   OH2  999   0.909   0.357   2.913 -0.0482 -0.3251  0.0151
  353TIP3    H1 1000   0.909   0.263   2.891  0.9310 -0.7694  1.7429
  353TIP3    H2 1001   0.897   0.359   3.008  0.4078  1.2904  0.0558
  354TIP3   OH2 1002   7.012   2.552   2.198  0.0211 -0.2040  0.1425
  354TIP3    H1 1003   6.931   2.572   2.150 -0.2384 -1.2736  0.1096
  354TIP3    H2 1004   7.004   2.602   2.279 -0.0095  0.8179 -0.4714
  355TIP3   OH2 1005   3.024   2.895   5.871 -0.0224  0.0185 -0.2053
  355TIP3    H1 1006   2.928   2.895   5.866 -0.0011  1.1087 -1.2291
  355TIP3    H2 1007   3.046   2.982   5.903  0.6383 -0.1034 -0.3243
  356TIP3   OH2 1008   4.920   4.018   3.606  0.2804  0.3469 -0.0804
  356TIP3    H1 1009   4.947   4.019   3.514  1.4152 -0.1692  0.2290
  356TIP3    H2 1010   4.931   4.108   3.635  1.2079  0.2489 -0.1036
  357TIP3   OH2 1011   6.357   2.973   1.598  0.2027 -0.3898 -0.3523
  357TIP3    H1 1012   6.313   2.892   1.626 -0.8793  0.6806  1.1872
  357TIP3    H2 1013   6.369   3.022   1.679  0.3507  1.2419 -1.3358
  358TIP3   OH2 1014   3.290   5.863   0.883  0.3438  0.2545 -0.1105
  358TIP3    H1 1015   3.289   5.850   0.788 -3.3628 -3.6205  0.1359
  358TIP3    H2 1016   3.382   5.877   0.905  2.1508 -3.5428 -3.8614
  359TIP3   OH2 1017   5.919   3.061   0.554 -0.0592  0.1803 -0.4731
  359TIP3    H1 1018   6.011   3.073   0.578 -0.1066  0.8907 -0.6291
  359TIP3    H2 1019   5.907   3.116   0.477 -0.7190  0.3991 -0.2200
  360TIP3   OH2 1020   6.959   7.454   0.134  0.3249 -0.9579 -0.1664
  360TIP3    H1 1021   7.013   7.452   0.214  0.2594 -1.1993 -0.1262
  360TIP3    H2 1022   6.912   7.371   0.135 -0.2843 -0.6193 -0.0411
  361TIP3   OH2 1023   3.175   0.474   1.698  0.5321  0.1394 -0.2297
  361TIP3    H1 1024   3.242   0.476   1.629 -0.3380  0.4783 -1.0834
  361TIP3    H2 1025   3.106   0.533   1.667  0.3105  0.6374  1.1373
  362TIP3   OH2 1026   4.562   7.864   1.915  0.0561  0.0218 -0.1009
  362TIP3    H1 1027   4.523   7.904   1.993  0.8547 -0.0824  0.3670
  362TIP3    H2 1028   4.535   7.921   1.843  1.2881  1.5220  0.5639
  363TIP3   OH2 1029   4.479   1.682   4.105 -0.0072  0.0226 -0.2177
  363TIP3    H1 1030   4.483   1.773   4.135  0.0303  0.2804 -0.9963
  363TIP3    H2 1031   4.412   1.682   4.037  0.4691 -0.3991 -0.6857
  364TIP3   OH2 1032   2.313   4.214   4.902  0.4043  0.4256 -0.3200
  364TIP3    H1 1033   2.387   4.273   4.893  0.5355  0.1867 -0.8807
  364TIP3    H2 1034   2.347   4.129   4.872 -0.0594  0.2920 -0.4728
  365TIP3   OH2 1035   2.603   0.324   5.332 -0.4903 -0.1081  0.3546
  365TIP3    H1 1036   2.522   0.276   5.311 -0.4388 -0.3761  0.7589
  365TIP3    H2 1037   2.666   0.291   5.268 -1.3166  1.9305 -1.6437
  366TIP3   OH2 1038   7.526   7.592   0.058  0.3674 -0.4059  0.6264
  366TIP3    H1 1039   7.497   7.537   0.131  0.3310 -1.4785 -0.1699
  366TIP3    H2 1040   7.524   7.534  -0.018  0.1280  0.7565 -0.2897
  367TIP3   OH2 1041   8.366   6.364   1.373 -0.3302  0.4522 -0.0168
  367TIP3    H1 1042   8.378   6.453   1.339  0.4791  1.4797  2.6921
  367TIP3    H2 1043   8.454   6.336   1.398 -0.9449  0.0663  1.8277
  368TIP3   OH2 1044   0.230   7.807   6.314  0.3127 -0.6973 -0.3020
  368TIP3    H1 1045   0.308   7.823   6.368  0.6884 -0.3991 -0.9166
  368TIP3    H2 1046   0.193   7.727   6.350  1.9605 -1.9142 -1.1725
  369TIP3   OH2 1047   5.812   0.104   1.889 -0.3880 -0.3075 -0.2602
  369TIP3    H1 1048   5.788   0.030   1.945 -0.9193  0.5507  0.6817
  369TIP3    H2 1049   5.750   0.101   1.816 -0.0139 -1.1377 -0.5566
  370TIP3   OH2 1050   1.940   5.525   0.590  0.1313 -0.0170 -0.3211
  370TIP3    H1 1051   1.971   5.605   0.633 -1.7482  0.5451  0.0796
  370TIP3    H2 1052   1.979   5.528   0.503 -1.0552  2.1549 -0.8675
  371TIP3   OH2 1053   4.170   0.047   1.490 -0.1019  0.6546 -0.2355
  371TIP3    H1 1054   4.194  -0.040   1.459  0.7374  1.3943 -1.7712
  371TIP3    H2 1055   4.205   0.051   1.579  0.0638 -0.4776 -0.2336
  372TIP3   OH2 1056   1.514   3.381   3.326 -0.4288  0.5435  0.2040
  372TIP3    H1 1057   1.514   3.451   3.260 -1.0496  0.9040  0.5807
  372TIP3    H2 1058   1.602   3.345   3.322 -0.6535  0.0971 -1.3123
  373TIP3   OH2 1059   5.339   4.999   0.877  0.5893  0.2275 -0.7370
  373TIP3    H1 1060   5.268   5.052   0.839 -1.9210 -1.2757  1.5527
  373TIP3    H2 1061   5.367   4.942   0.805 -1.1423  0.2690 -1.4896
  374TIP3   OH2 1062   2.223   2.094   1.725  0.0798  0.2878  0.1938
  374TIP3    H1 1063   2.142   2.098   1.674 -1.0226 -1.7516  1.6073
  374TIP3    H2 1064   2.274   2.024   1.684 -0.0793 -0.2267  0.8509
  375TIP3   OH2 1065   0.956   1.032   0.808  0.5569 -0.6363  0.9467
  375TIP3    H1 1066   0.979   0.970   0.876  0.5102 -0.2297  1.3405
  375TIP3    H2 1067   1.019   1.103   0.818  0.7066 -0.6867  0.4059
  376TIP3   OH2 1068   1.136   7.184   3.311  0.6377  0.6781  0.1931
  376TIP3    H1 1069   1.116   7.263   3.261  1.1578  0.2529 -0.7182
  376TIP3    H2 1070   1.225   7.161   3.284  0.4140 -0.3371  0.2750
  377TIP3   OH2 1071   1.180   3.892   6.127 -0.2129  0.0710 -0.6224
  377TIP3    H1 1072   1.259   3.946   6.113 -0.0395 -0.1687 -0.5756
  377TIP3    H2 1073   1.214   3.808   6.158 -0.4715 -0.1551 -0.9494
  378TIP3   OH2 1074   3.997   3.219   1.391 -0.0919 -0.2396 -0.2690
  378TIP3    H1 1075   3.939   3.294   1.376 -1.4473 -0.9438  1.1608
  378TIP3    H2 1076   4.022   3.227   1.483  2.3914  0.2108 -0.9228
  379TIP3   OH2 1077   4.741   0.855   2.208 -0.3620  0.4548 -0.1399
  379TIP3    H1 1078   4.664   0.802   2.228 -0.2885 -0.0779 -1.1620
  379TIP3    H2 1079   4.779   0.876   2.293 -2.2047  1.6114  0.4347
  380TIP3   OH2 1080   0.041   4.730   1.142 -0.1644  0.4014 -0.2734
  380TIP3    H1 1081  -0.020   4.712   1.213  0.1716  0.9654  0.1689
  380TIP3    H2 1082   0.051   4.647   1.097  0.4086 -0.2185  0.9610
  381TIP3   OH2 1083   2.571   2.618   5.919 -0.1847 -0.1816  0.1796
  381TIP3    H1 1084   2.558   2.590   5.829  1.4955 -1.0848  0.1672
  381TIP3    H2 1085   2.621   2.546   5.959  1.2629  1.2879  1.1233
  382TIP3   OH2 1086   7.254   0.940   6.358  0.3807 -0.1309  0.4389
  382TIP3    H1 1087   7.180   0.911   6.304  1.0530  0.2249 -0.6967
  382TIP3    H2 1088   7.249   1.035   6.356  0.6839 -0.1089  0.6387
  383TIP3   OH2 1089   6.725   3.341   6.745  0.1529  0.4193  0.4691
  383TIP3    H1 1090   6.792   3.351   6.813 -0.9714  1.6175  1.4533
  383TIP3    H2 1091   6.701   3.249   6.747  0.2582  0.4127  1.5764
  384TIP3   OH2 1092   4.653   1.267   3.761  0.3891  0.3236  0.1673
  384TIP3    H1 1093   4.697   1.318   3.692  1.5583  0.5344  1.0451
  384TIP3    H2 1094   4.635   1.331   3.830 -0.3683  0.0182  0.2680
  385TIP3   OH2 1095   5.921   4.058   3.116  0.6649  0.1571 -0.0207
  385TIP3    H1 1096   5.838   4.016   3.141  0.3119  2.5583  3.5780
  385TIP3    H2 1097   5.982   3.985   3.104 -1.0840 -1.5749  0.9536
  386TIP3   OH2 1098   6.613   4.372   6.806 -0.2518 -0.3763  0.1553
  386TIP3    H1 1099   6.527   4.355   6.767 -0.5561  2.4414 -0.6072
  386TIP3    H2 1100   6.660   4.289   6.796 -1.7778 -1.0635 -2.4018
  387TIP3   OH2 1101   4.110   1.633   1.509 -0.2237 -0.6472  0.0780
  387TIP3    H1 1102   4.056   1.627   1.430  1.5374 -0.9134 -1.1919
  387TIP3    H2 1103   4.116   1.726   1.528 -1.1391 -0.6220  0.2470
  388TIP3   OH2 1104   3.752   0.814   5.665  0.0444  0.2860 -0.0955
  388TIP3    H1 1105   3.746   0.887   5.604 -0.8775 -0.7461 -1.2982
  388TIP3    H2 1106   3.668   0.814   5.711 -0.6043 -0.9150 -1.2140
  389TIP3   OH2 1107   5.142   5.428   6.731 -0.8198 -0.5414  0.1516
  389TIP3    H1 1108   5.176   5.339   6.725  0.2903 -0.0592 -1.2293
  389TIP3    H2 1109   5.217   5.481   6.756 -1.9118 -0.2039  3.1436
  390TIP3   OH2 1110   0.572   4.502   2.549 -0.2397 -0.2528  0.2277
  390TIP3    H1 1111   0.488   4.489   2.505  0.7723 -0.3047 -1.7987
  390TIP3    H2 1112   0.612   4.577   2.504  1.0786 -0.6476  0.6868
  391TIP3   OH2 1113   7.591   2.108   1.162 -0.2253 -0.3352  0.0480
  391TIP3    H1 1114   7.531   2.040   1.192 -0.1214 -1.0395 -1.2648
  391TIP3    H2 1115   7.674   2.088   1.205 -0.0259 -1.4455 -0.8045
  392TIP3   OH2 1116   5.278   0.092   3.933 -0.2188 -0.0956 -0.1256
  392TIP3    H1 1117   5.300   0.149   4.007 -1.3146  0.2632 -0.0586
  392TIP3    H2 1118   5.281   0.150   3.857 -0.6863 -0.1003 -0.1453
  393TIP3   OH2 1119   2.377   4.720   3.967 -0.0652 -0.1120  0.2130
  393TIP3    H1 1120   2.349   4.687   4.053  1.0058 -1.3595  0.1215
  393TIP3    H2 1121   2.356   4.649   3.906  0.2358  0.2875 -0.3623
  394TIP3   OH2 1122   3.612   5.489   2.961  0.3088 -0.5290  0.2475
  394TIP3    H1 1123   3.691   5.527   2.999 -0.2765  2.8550 -1.5834
  394TIP3    H2 1124   3.551   5.482   3.035  0.2703  2.8648  0.7017
  395TIP3   OH2 1125   6.442   0.311   1.524 -0.0422  0.0288  0.1747
  395TIP3    H1 1126   6.388   0.381   1.559  1.8265  2.0227 -0.6780
  395TIP3    H2 1127   6.531   0.346   1.526  0.8660 -1.9724 -1.1792
  396TIP3   OH2 1128   6.318   4.672   5.620  1.0311  0.0999 -0.3243
  396TIP3    H1 1129   6.381   4.743   5.619  1.9254 -0.6693 -0.9822
  396TIP3    H2 1130   6.311   4.646   5.712  3.0514 -0.9526 -0.4113
  397TIP3   OH2 1131   7.677   3.886   1.892 -0.7441  0.4974  0.2717
  397TIP3    H1 1132   7.623   3.946   1.943 -2.1463 -0.9099  0.5230
  397TIP3    H2 1133   7.748   3.861   1.952 -1.8747 -0.4382  1.2738
  398TIP3   OH2 1134   4.702   2.548   0.871  0.2587 -0.1277  0.2797
  398TIP3    H1 1135   4.772   2.494   0.835  1.1780  0.6723  0.8148
  398TIP3    H2 1136   4.747   2.622   0.912 -0.9523  0.9332 -0.2401
  399TIP3   OH2 1137   1.424   3.199   1.944 -0.4555 -0.7604 -0.3374
  399TIP3    H1 1138   1.436   3.221   1.851 -0.1867 -2.0914 -0.6481
  399TIP3    H2 1139   1.352   3.254   1.972  0.7029  1.0960 -0.7959
  400TIP3   OH2 1140   0.702   6.138   0.530  0.9106  0.4487  0.4773
  400TIP3    H1 1141   0.744   6.151   0.445  0.3091 -1.7971 -0.2472
  400TIP3    H2 1142   0.652   6.217   0.545 -0.2920  0.2663 -2.0809
  401TIP3   OH2 1143   5.986   5.323   2.499 -0.4649  0.2421  0.6714
  401TIP3    H1 1144   5.900   5.311   2.458 -0.5892 -1.8024  1.4037
  401TIP3    H2 1145   6.045   5.343   2.426 -1.2473 -0.1267 -0.0830
  402TIP3   OH2 1146   5.869   3.172   1.850 -0.0313 -0.0768 -0.3500
  402TIP3    H1 1147   5.804   3.226   1.806 -1.3211 -0.1624  1.3564
  402TIP3    H2 1148   5.879   3.095   1.793 -2.2603 -0.5791 -0.1625
  403TIP3   OH2 1149   5.851   0.298   6.203  0.4276  0.2441  0.2995
  403TIP3    H1 1150   5.934   0.326   6.162  0.7170  1.3956  1.6167
  403TIP3    H2 1151   5.841   0.356   6.278 -1.3333 -0.2371  0.4622
  404TIP3   OH2 1152   1.864   2.604   2.195 -0.4650 -0.3700 -0.1853
  404TIP3    H1 1153   1.810   2.614   2.117  0.5161 -0.2272 -0.8585
  404TIP3    H2 1154   1.815   2.649   2.264 -0.4405  1.1923 -1.1438
  405TIP3   OH2 1155   2.386   1.934   1.587  0.0443 -0.1645  0.3100
  405TIP3    H1 1156   2.433   1.856   1.560  0.2303  0.3612 -0.9330
  405TIP3    H2 1157   2.320   1.948   1.519 -0.0605  0.6939  0.5708
  406TIP3   OH2 1158   4.721   6.503   2.135  0.0568 -0.3325 -0.2400
  406TIP3    H1 1159   4.714   6.449   2.057 -1.8951  0.2068 -0.4788
  406TIP3    H2 1160   4.813   6.529   2.138  0.8579 -2.8962 -0.6029
  407TIP3   OH2 1161   2.383   2.556   2.411 -0.2657  0.1219  0.2658
  407TIP3    H1 1162   2.401   2.563   2.504 -2.4793  1.3246  0.6672
  407TIP3    H2 1163   2.333   2.635   2.389  0.7089  0.1845 -2.0865
  408TIP3   OH2 1164   8.347   0.112   4.386 -0.1064 -0.0877 -0.1805
  408TIP3    H1 1165   8.439   0.122   4.363  0.7662 -1.6070  2.2812
  408TIP3    H2 1166   8.315   0.041   4.330  0.7837 -0.8645  0.2673
  409TIP3   OH2 1167   3.602   5.978   3.638 -0.0573 -0.3346 -0.8777
  409TIP3    H1 1168   3.583   6.069   3.615  2.3720  1.0017  1.7230
  409TIP3    H2 1169   3.564   5.967   3.725  0.9635 -1.2933 -0.5275
  410TIP3   OH2 1170   7.015   1.002   1.793 -0.0113 -0.6278  0.2093
  410TIP3    H1 1171   7.066   1.027   1.716  0.3249 -0.3944  0.5050
  410TIP3    H2 1172   7.028   1.074   1.855  1.0571 -1.5682  1.1220
  411TIP3   OH2 1173   3.488   5.430   6.780 -0.3791  0.1156  0.6702
  411TIP3    H1 1174   3.583   5.428   6.789 -0.1501  2.0974 -0.6427
  411TIP3    H2 1175   3.466   5.348   6.736  0.8175 -0.0366  0.3232
  412TIP3   OH2 1176   5.805   2.671   5.161  0.3071  0.2552 -0.3118
  412TIP3    H1 1177   5.783   2.703   5.073 -0.9516  1.0448  0.2565
  412TIP3    H2 1178   5.897   2.696   5.174  0.6320 -0.2361 -1.5416
  413TIP3   OH2 1179   7.407   1.612   4.241 -0.0438  0.0482 -0.0587
  413TIP3    H1 1180   7.323   1.615   4.196 -1.1031  1.4468  1.8960
  413TIP3    H2 1181   7.464   1.669   4.189 -0.7043  0.2450 -0.5814
  414TIP3   OH2 1182   6.984   2.021   1.766  0.1384  0.5079 -0.8635
  414TIP3    H1 1183   6.900   2.066   1.754 -0.4080 -0.1176  0.4691
  414TIP3    H2 1184   7.024   2.064   1.841 -1.8742 -3.1429  2.6668
  415TIP3   OH2 1185   3.239   1.875   1.149  0.1772  0.2535 -0.0105
  415TIP3    H1 1186   3.305   1.887   1.217  0.1742 -1.9702  0.4516
  415TIP3    H2 1187   3.189   1.956   1.149  1.2849  0.9716  1.4087
  416TIP3   OH2 1188   4.129   2.353   4.865  0.2580  0.2659  0.2253
  416TIP3    H1 1189   4.175   2.354   4.950  2.0538  0.4350 -0.6947
  416TIP3    H2 1190   4.090   2.266   4.860  1.0858 -0.1479  0.7452
  417TIP3   OH2 1191   4.615   4.091   6.129 -0.0372  0.2547  0.1386
  417TIP3    H1 1192   4.677   4.109   6.201 -0.6718  0.8289  0.5575
  417TIP3    H2 1193   4.670   4.090   6.051  0.5337  0.6306  0.5171
  418TIP3   OH2 1194   4.264   1.224   1.277  0.1110 -0.3549  0.2226
  418TIP3    H1 1195   4.329   1.167   1.317 -0.1285 -0.4928  0.4183
  418TIP3    H2 1196   4.262   1.301   1.334  0.8399  0.1044 -0.3509
  419TIP3   OH2 1197   5.658   3.079   1.687 -0.2089 -0.4253 -0.5153
  419TIP3    H1 1198   5.637   3.089   1.594  1.9372  0.3790 -0.9851
  419TIP3    H2 1199   5.713   3.000   1.691 -0.5795 -0.6569  0.1360
  420TIP3   OH2 1200   3.328   0.175   4.153  0.2609  0.0704  0.5991
  420TIP3    H1 1201   3.384   0.248   4.180  3.0517 -1.7850  0.2352
  420TIP3    H2 1202   3.337   0.110   4.223  0.0486 -1.0221 -0.3508
  421TIP3   OH2 1203   4.009   6.119   3.100 -0.0361 -0.4392  0.3873
  421TIP3    H1 1204   3.950   6.133   3.026 -0.0104  1.3368  0.6678
  421TIP3    H2 1205   4.074   6.057   3.067 -1.9877 -2.4361  0.0560
  422TIP3   OH2 1206   6.538   4.930   1.032 -0.3330  0.1020 -0.0306
  422TIP3    H1 1207   6.629   4.959   1.021 -0.5622  0.5414 -0.8289
  422TIP3    H2 1208   6.485   5.005   1.008 -0.9219 -0.7079 -1.3861
  423TIP3   OH2 1209   0.751   5.956   5.604  0.5921 -0.1390  0.2741
  423TIP3    H1 1210   0.780   5.865   5.607  0.4344 -0.1703  0.9255
  423TIP3    H2 1211   0.780   5.988   5.518  1.7334 -0.4340  0.5421
  424TIP3   OH2 1212   4.831   2.463   1.274 -0.0908  0.2044  0.5134
  424TIP3    H1 1213   4.904   2.401   1.273 -0.6319 -0.4494  0.8355
  424TIP3    H2 1214   4.865   2.538   1.322  0.6636  0.2814 -0.1188
  425TIP3   OH2 1215   6.028   3.491   6.626 -0.5511 -0.0616 -0.6188
  425TIP3    H1 1216   5.979   3.573   6.623 -0.4789 -0.0390 -2.5343
  425TIP3    H2 1217   5.960   3.423   6.619 -0.5375 -0.1395 -0.0225
  426TIP3   OH2 1218   4.473   3.028   2.636  0.4481  0.0172  0.4682
  426TIP3    H1 1219   4.534   3.102   2.639  0.2846  0.2370 -1.0200
  426TIP3    H2 1220   4.451   3.019   2.543 -2.2667  0.3545  0.9945
  427TIP3   OH2 1221   4.110   1.508   1.114 -0.0589  0.3188 -0.7621
  427TIP3    H1 1222   4.058   1.511   1.034 -1.5388  1.3228  0.1968
  427TIP3    H2 1223   4.058   1.556   1.178  0.9003 -0.7878  0.9157
  428TIP3   OH2 1224   1.354   4.661   2.290 -0.1069  0.0113  0.7397
  428TIP3    H1 1225   1.277   4.644   2.236  0.0973  1.6485 -0.1441
  428TIP3    H2 1226   1.322   4.713   2.363  0.0685  0.2720  0.6343
  429TIP3   OH2 1227   2.086   2.826   5.014  0.3164 -0.8584  0.4077
  429TIP3    H1 1228   2.033   2.795   4.940  1.7287 -2.0593 -0.1499
  429TIP3    H2 1229   2.157   2.875   4.973  0.0967  0.0524  1.0956
  430TIP3   OH2 1230   4.592   0.683   3.548  0.0158 -0.4340  0.3631
  430TIP3    H1 1231   4.591   0.618   3.477 -0.9250  0.2868 -0.3060
  430TIP3    H2 1232   4.646   0.755   3.515  0.2238 -0.4294  0.7015
  431TIP3   OH2 1233   8.023   1.350   0.092 -0.7080  0.7532  0.0631
  431TIP3    H1 1234   7.965   1.392   0.029 -0.7507  0.6873  0.0587
  431TIP3    H2 1235   7.965   1.300   0.149 -0.6200  0.3620 -0.1880
  432TIP3   OH2 1236   0.694   2.598   3.432 -1.0617 -0.0074 -0.3278
  432TIP3    H1 1237   0.628   2.665   3.449  0.9103  2.0174 -0.1059
  432TIP3    H2 1238   0.671   2.526   3.491 -3.7267  0.0705 -1.1658
  433TIP3   OH2 1239   1.416   6.259   0.057 -0.1730  0.3346 -0.1699
  433TIP3    H1 1240   1.415   6.330  -0.007 -1.3268  0.3080 -0.1969
  433TIP3    H2 1241   1.488   6.203   0.029  0.6391  1.3890 -0.2523
  434TIP3   OH2 1242   6.766   0.789   6.000 -0.0885 -0.4843 -0.0847
  434TIP3    H1 1243   6.727   0.705   5.976 -0.0915 -0.6640  0.5222
  434TIP3    H2 1244   6.691   0.844   6.022 -0.2114  0.2187 -2.0506
  435TIP3   OH2 1245   3.084   1.730   0.425  0.3577  0.6090  0.2797
  435TIP3    H1 1246   3.165   1.693   0.460 -0.2945 -0.4513  0.6884
  435TIP3    H2 1247   3.110   1.816   0.391  1.9166 -0.2085 -0.7225
  436TIP3   OH2 1248   6.539   1.571   0.720 -0.4273 -0.2420 -0.0772
  436TIP3    H1 1249   6.563   1.507   0.653 -1.1531  0.5235 -1.1006
  436TIP3    H2 1250   6.521   1.651   0.671 -0.5509  0.4608  1.0843
  437TIP3   OH2 1251   6.469   7.171   3.023  0.3541  0.2515 -0.3043
  437TIP3    H1 1252   6.502   7.238   2.964  1.9233  1.1456  1.4933
  437TIP3    H2 1253   6.483   7.206   3.111 -1.6050 -1.1520  0.6567
  438TIP3   OH2 1254   5.447   7.863   4.931 -0.0916 -0.5871  0.3857
  438TIP3    H1 1255   5.524   7.821   4.971 -0.5997 -1.2842  0.6548
  438TIP3    H2 1256   5.482   7.906   4.853  0.1629 -3.3219 -1.1462
  439TIP3   OH2 1257   4.447   1.070   6.402 -0.3934 -0.9439  0.2066
  439TIP3    H1 1258   4.519   1.027   6.446  0.5483 -0.0342 -0.3942
  439TIP3    H2 1259   4.458   1.163   6.423 -0.6592 -0.6515 -0.8843
  440TIP3   OH2 1260   6.906   6.673   3.949  0.1519  0.3347 -0.5124
  440TIP3    H1 1261   6.941   6.602   4.002  0.6316 -0.4217 -1.7982
  440TIP3    H2 1262   6.829   6.636   3.906  0.3457  0.6129 -1.1176
  441TIP3   OH2 1263   4.347   5.435   3.630 -0.5235  0.3143 -0.6212
  441TIP3    H1 1264   4.365   5.362   3.689  0.7587  1.1815  0.1240
  441TIP3    H2 1265   4.277   5.404   3.573 -2.1126 -0.4138  1.6205
  442TIP3   OH2 1266   4.001   3.502   1.524 -0.6693 -0.2224  0.1213
  442TIP3    H1 1267   3.999   3.596   1.541  1.9330  0.4114 -2.2594
  442TIP3    H2 1268   3.912   3.480   1.497 -1.2010  1.6567  0.2136
  443TIP3   OH2 1269   5.725   5.164   0.973 -0.2617  0.2589  0.1916
  443TIP3    H1 1270   5.790   5.233   0.991 -0.0119  0.4159 -1.2013
  443TIP3    H2 1271   5.740   5.140   0.882 -1.5702 -0.3488  0.1099
  444TIP3   OH2 1272   8.217   2.868   0.304 -0.4329 -0.1847  0.1578
  444TIP3    H1 1273   8.292   2.915   0.267 -0.5150  2.8220  3.3096
  444TIP3    H2 1274   8.256   2.790   0.346  0.6251  0.2121 -0.0519
  445TIP3   OH2 1275   0.462   3.061   1.195 -0.1270  0.2441 -0.3169
  445TIP3    H1 1276   0.457   3.131   1.130  0.8257  0.2887 -0.3527
  445TIP3    H2 1277   0.538   3.083   1.248 -0.4939 -0.1614  0.3916
  446TIP3   OH2 1278   5.849   2.192   5.934  0.7869 -0.0119 -0.0571
  446TIP3    H1 1279   5.821   2.122   5.993  1.1172 -0.1849 -0.1041
  446TIP3    H2 1280   5.935   2.218   5.965  0.7271  0.2792 -0.1274
  447TIP3   OH2 1281   3.970   2.746   5.566  0.3044  0.0337  0.5758
  447TIP3    H1 1282   4.016   2.704   5.493 -0.8161 -0.3554  0.0828
  447TIP3    H2 1283   3.966   2.678   5.634  0.6466  0.1411  0.7063
  448TIP3   OH2 1284   7.970   0.363   5.590  0.0118  0.1976 -0.0659
  448TIP3    H1 1285   8.013   0.346   5.506 -1.0708  0.5554 -0.7080
  448TIP3    H2 1286   7.877   0.372   5.569 -0.2492  0.5606  1.1362
  449TIP3   OH2 1287   5.835   0.317   2.073  0.2250 -0.0047 -0.0835
  449TIP3    H1 1288   5.807   0.242   2.020  2.6546 -0.7633 -0.4057
  449TIP3    H2 1289   5.805   0.393   2.023 -3.2854 -0.6247  0.7971
  450TIP3   OH2 1290   0.542   0.724   1.585  0.0879 -0.2458  0.1163
  450TIP3    H1 1291   0.542   0.819   1.574  2.2778 -0.3927 -1.7087
  450TIP3    H2 1292   0.462   0.695   1.540  0.2901  0.6045 -0.8269
  451TIP3   OH2 1293   2.248   4.915   2.545 -0.2290 -0.2529  0.1980
  451TIP3    H1 1294   2.285   4.940   2.460 -1.7227 -1.1992 -0.7827
  451TIP3    H2 1295   2.186   4.985   2.565  1.9208  1.3398  1.8476
  452TIP3   OH2 1296   1.074   5.889   4.217 -0.7490  0.0138  0.7112
  452TIP3    H1 1297   1.053   5.796   4.210  0.4791 -0.2191 -0.2559
  452TIP3    H2 1298   1.154   5.891   4.271 -0.7176  0.5051  0.6518
  453TIP3   OH2 1299   5.721   2.791   1.592 -0.4049  0.1003  0.5583
  453TIP3    H1 1300   5.698   2.699   1.608  0.9467 -0.4579 -0.5938
  453TIP3    H2 1301   5.722   2.800   1.497 -1.8355  1.6802  0.6407
  454TIP3   OH2 1302   7.836   1.096   3.015  0.4897 -0.3528  0.1015
  454TIP3    H1 1303   7.864   1.102   2.923  0.7783 -2.5076 -0.0047
  454TIP3    H2 1304   7.879   1.170   3.058  1.3454 -0.0181 -1.2529
  455TIP3   OH2 1305   8.241   1.208   0.020 -0.3795 -0.0326 -0.9449
  455TIP3    H1 1306   8.155   1.243   0.045 -0.9526 -0.4557 -2.2680
  455TIP3    H2 1307   8.295   1.221   0.098 -1.6694  0.1484 -0.0419
  456TIP3   OH2 1308   4.427   0.588   2.140  0.3209 -0.3848  0.6592
  456TIP3    H1 1309   4.369   0.664   2.142 -0.9548 -1.2821 -0.3100
  456TIP3    H2 1310   4.492   0.605   2.208 -0.2435  1.3150  0.8142
  457TIP3   OH2 1311   0.947   1.896   4.294 -0.0898  0.1068  0.2373
  457TIP3    H1 1312   0.969   1.803   4.287 -1.4377 -0.2218  0.0618
  457TIP3    H2 1313   0.852   1.898   4.293 -0.0820  1.4913  0.3930
  458TIP3   OH2 1314   6.635   0.542   1.378  0.5263 -0.0161  0.2393
  458TIP3    H1 1315   6.621   0.619   1.324  0.5149  0.9529  1.5751
  458TIP3    H2 1316   6.616   0.468   1.320  0.5079  0.9742 -1.0553
  459TIP3   OH2 1317   8.411   4.060   3.013  0.4089 -0.0725  0.3277
  459TIP3    H1 1318   8.465   4.088   2.939 -1.0722  2.2824  0.0637
  459TIP3    H2 1319   8.344   4.004   2.974  2.0990 -2.3948  0.5583
  460TIP3   OH2 1320   1.923   6.399   3.503  0.3030 -0.4100  0.6472
  460TIP3    H1 1321   1.946   6.329   3.443 -1.6624 -1.8384  1.4652
  460TIP3    H2 1322   1.905   6.355   3.586 -1.0577  1.0373  1.1762
  461TIP3   OH2 1323   4.304   0.619   3.994  0.5053 -0.0608  0.1993
  461TIP3    H1 1324   4.219   0.648   3.962  1.2536 -0.0040 -1.8424
  461TIP3    H2 1325   4.367   0.659   3.935  1.9791 -0.0079  1.7548
  462TIP3   OH2 1326   7.156   6.967   1.912 -0.0345  0.0648 -0.6203
  462TIP3    H1 1327   7.230   6.907   1.917 -0.3828 -0.2980  0.6047
  462TIP3    H2 1328   7.195   7.053   1.900  0.4877 -0.3312 -2.0266
  463TIP3   OH2 1329   0.496   1.032   4.039  0.5086 -0.0542  0.1772
  463TIP3    H1 1330   0.436   1.040   4.113 -2.5619 -1.4484 -1.9858
  463TIP3    H2 1331   0.525   0.940   4.041  0.0446 -0.2227 -0.5960
  464TIP3   OH2 1332   5.112   1.792   4.673 -0.0067 -0.5431 -0.0207
  464TIP3    H1 1333   5.089   1.768   4.584  1.2467 -0.8776 -0.2700
  464TIP3    H2 1334   5.202   1.822   4.667  0.2212 -0.9372  1.2003
  465TIP3   OH2 1335   1.312   4.437   5.071  0.5884  0.8649  0.0445
  465TIP3    H1 1336   1.395   4.403   5.038  0.5780  0.0509  0.8222
  465TIP3    H2 1337   1.273   4.483   4.996  0.3525 -1.2843 -1.2222
  466TIP3   OH2 1338   4.478   2.375   3.931 -0.0566  0.0939  0.4742
  466TIP3    H1 1339   4.423   2.305   3.896  0.5423  0.2648 -0.8859
  466TIP3    H2 1340   4.530   2.333   4.000 -1.6705 -0.1219  1.6057
  467TIP3   OH2 1341   4.057   4.535   5.860 -0.2398  0.5584 -0.2718
  467TIP3    H1 1342   3.976   4.533   5.912  0.5703  1.7051  1.1280
  467TIP3    H2 1343   4.125   4.554   5.924  0.8940  1.4189 -1.6799
  468TIP3   OH2 1344   5.788   2.932   2.897 -0.1381 -0.4048  0.0791
  468TIP3    H1 1345   5.707   2.974   2.870  0.0823 -0.1309 -0.1671
  468TIP3    H2 1346   5.846   3.004   2.922 -0.7921 -0.7020  2.6401
  469TIP3   OH2 1347   3.037   2.741   2.763  0.0404  0.1543 -0.0981
  469TIP3    H1 1348   2.952   2.767   2.727  0.4504  0.4636 -0.8617
  469TIP3    H2 1349   3.055   2.805   2.832 -0.9181 -0.6509  0.9362
  470TIP3   OH2 1350   5.450   3.101   6.392  0.0702 -0.0360  0.2995
  470TIP3    H1 1351   5.525   3.041   6.384  1.1070  1.1360  0.8210
  470TIP3    H2 1352   5.462   3.164   6.320  0.0715  0.6557  0.8935
  471TIP3   OH2 1353   1.043   3.935   2.746  0.2520  0.3532 -0.5542
  471TIP3    H1 1354   0.999   4.014   2.778  0.1264  0.2772 -0.5346
  471TIP3    H2 1355   0.982   3.864   2.768 -0.3236  0.4025 -1.8693
  472TIP3   OH2 1356   2.909   0.403   1.503 -0.8788 -0.0316  0.1978
  472TIP3    H1 1357   2.940   0.493   1.517 -1.3884  0.2153 -0.2087
  472TIP3    H2 1358   2.935   0.382   1.414 -2.3598  0.4073 -0.3823
  473TIP3   OH2 1359   5.792   4.504   1.535  0.3592 -0.3593  0.7900
  473TIP3    H1 1360   5.697   4.502   1.528  0.3205  0.9642  0.7008
  473TIP3    H2 1361   5.814   4.422   1.578 -0.4885 -2.4243 -2.3752
  474TIP3   OH2 1362   6.721   3.247   5.748 -0.2826  0.3519 -0.1728
  474TIP3    H1 1363   6.659   3.244   5.822  1.3260  0.1390  1.2388
  474TIP3    H2 1364   6.716   3.337   5.717  0.2026  0.9369  1.3234
  475TIP3   OH2 1365   4.099   2.192   3.321  0.4213 -0.1834 -0.0921
  475TIP3    H1 1366   4.124   2.145   3.241  2.6085  0.7660 -0.0303
  475TIP3    H2 1367   4.036   2.258   3.291  0.9884 -0.0341 -1.0018
  476TIP3   OH2 1368   6.756   0.388   1.653 -0.2463  0.2313  0.2470
  476TIP3    H1 1369   6.828   0.447   1.672 -0.3345  0.5604 -0.4315
  476TIP3    H2 1370   6.793   0.323   1.593 -0.7467  0.9704 -0.9054
  477TIP3   OH2 1371   4.172   1.336   5.959 -0.0907  0.4704  0.3377
  477TIP3    H1 1372   4.086   1.364   5.929  0.6772  1.9108 -0.6491
  477TIP3    H2 1373   4.166   1.336   6.054 -1.0198  1.1320  0.2879
  478TIP3   OH2 1374   7.716   3.019   1.150  0.4430  0.6139 -0.5224
  478TIP3    H1 1375   7.806   3.018   1.180 -0.3959  0.4059  2.2323
  478TIP3    H2 1376   7.679   2.936   1.181 -1.6568  2.3132  1.9338
  479TIP3   OH2 1377   6.812   0.606   4.837  0.0671  1.2392  0.6256
  479TIP3    H1 1378   6.906   0.620   4.846  0.5348 -0.1829 -1.4621
  479TIP3    H2 1379   6.773   0.684   4.878  2.0592  1.3334  2.5802
  480TIP3   OH2 1380   6.842   3.557   3.212  0.1618 -0.0205 -0.3051
  480TIP3    H1 1381   6.779   3.547   3.141  1.8720  0.9282 -2.0295
  480TIP3    H2 1382   6.871   3.468   3.231 -0.2912 -0.2845 -0.8224
  481TIP3   OH2 1383   0.945   6.994   3.759 -0.2515 -0.5326 -0.1554
  481TIP3    H1 1384   0.895   6.919   3.728  2.5609 -2.6510  0.0205
  481TIP3    H2 1385   0.986   7.030   3.680 -0.6557  0.1115 -0.0816
  482TIP3   OH2 1386   1.815   5.025   1.226  0.0924  0.3192  0.1346
  482TIP3    H1 1387   1.771   5.048   1.307 -0.5267 -0.6684  0.1011
  482TIP3    H2 1388   1.908   5.021   1.249  0.0547  1.3223  0.4747
  483TIP3   OH2 1389   1.316   1.874   0.571  0.5475 -0.0078  0.7184
  483TIP3    H1 1390   1.314   1.962   0.609  0.0636  0.4655 -0.3855
  483TIP3    H2 1391   1.224   1.847   0.568  0.4428  0.4755 -1.2608
  484TIP3   OH2 1392   7.573   0.148   3.453 -0.1942  0.3485 -0.0970
  484TIP3    H1 1393   7.633   0.085   3.414  0.3507 -0.9755  2.6386
  484TIP3    H2 1394   7.620   0.232   3.449  1.5941 -0.5153  1.2580
  485TIP3   OH2 1395   0.860   0.191   2.515 -0.4008 -0.4152 -0.2634
  485TIP3    H1 1396   0.892   0.102   2.497 -0.0658  0.1285 -2.6441
  485TIP3    H2 1397   0.773   0.178   2.553 -0.3248 -1.7607 -0.4859
  486TIP3   OH2 1398   1.628   2.302   5.732 -0.0363  0.5066 -0.1916
  486TIP3    H1 1399   1.572   2.227   5.749  1.8275 -1.1719 -0.9863
  486TIP3    H2 1400   1.682   2.275   5.657  1.0781  2.4267 -0.1438
  487TIP3   OH2 1401   6.936   6.920   2.068  0.0848 -0.1186  0.3802
  487TIP3    H1 1402   6.999   6.945   2.000  0.2900 -1.2535  0.1282
  487TIP3    H2 1403   6.929   6.825   2.060 -0.2747 -0.2126  1.6212
  488TIP3   OH2 1404   1.225   1.703   6.444 -0.3617 -0.0429 -0.1646
  488TIP3    H1 1405   1.130   1.704   6.450 -0.5830 -0.4468 -2.4723
  488TIP3    H2 1406   1.251   1.794   6.459 -1.2648  0.3573 -0.8831
  489TIP3   OH2 1407   0.015   5.604   5.812 -0.0232  0.3768  0.0879
  489TIP3    H1 1408   0.041   5.665   5.743  0.5918  0.3741  0.3067
  489TIP3    H2 1409   0.037   5.649   5.894 -1.0080  0.4940  0.2920
  490TIP3   OH2 1410   7.358   7.726   5.445 -0.5154 -0.1648  0.1130
  490TIP3    H1 1411   7.324   7.651   5.396  1.1959 -0.3469 -0.8636
  490TIP3    H2 1412   7.453   7.715   5.443 -0.2803  1.4357  0.9366
  491TIP3   OH2 1413   4.493   5.793   6.482  0.3277  0.3899 -0.6817
  491TIP3    H1 1414   4.456   5.843   6.555 -1.3396 -1.0519 -0.4561
  491TIP3    H2 1415   4.421   5.737   6.453  1.5998 -0.6243 -2.0380
  492TIP3   OH2 1416   4.723   1.149   0.209  0.4124  0.0777 -0.1578
  492TIP3    H1 1417   4.636   1.160   0.169  0.7189  2.1974 -0.3516
  492TIP3    H2 1418   4.704   1.138   0.303 -0.0787  0.4473 -0.2049
  493TIP3   OH2 1419   0.835   4.640   0.795  0.1356  0.0993 -0.2415
  493TIP3    H1 1420   0.767   4.657   0.860  0.3701 -0.4814  0.1704
  493TIP3    H2 1421   0.909   4.605   0.846 -0.0330 -1.3175 -0.9199
  494TIP3   OH2 1422   3.035   1.484   4.243 -0.1384  0.0809  0.1296
  494TIP3    H1 1423   3.072   1.489   4.155 -0.4386 -1.3773 -0.1015
  494TIP3    H2 1424   3.013   1.575   4.265 -0.4408  0.4193 -1.4595
  495TIP3   OH2 1425   6.356   1.557   5.683  0.0675  0.0904  0.6264
  495TIP3    H1 1426   6.364   1.493   5.754  0.1289 -3.0951 -1.9886
  495TIP3    H2 1427   6.433   1.541   5.628 -1.2992  0.4575 -1.5277
  496TIP3   OH2 1428   2.669   1.612   3.163 -0.3155  0.4620  0.6523
  496TIP3    H1 1429   2.591   1.645   3.118 -0.6549  0.3460  1.1454
  496TIP3    H2 1430   2.637   1.583   3.248  0.3206  0.6821  0.9738
  497TIP3   OH2 1431   2.022   6.801   5.535  0.5739 -0.0365  0.1531
  497TIP3    H1 1432   2.062   6.714   5.536 -0.0676 -0.3382  0.3100
  497TIP3    H2 1433   2.057   6.842   5.456  0.1931 -0.7729 -0.4119
  498TIP3   OH2 1434   7.673   7.903   3.254 -0.1392 -0.3234 -0.1118
  498TIP3    H1 1435   7.719   7.850   3.320 -0.2941 -2.1267 -1.3620
  498TIP3    H2 1436   7.644   7.839   3.188 -1.3772  1.2068 -1.1298
  499TIP3   OH2 1437   1.798   1.859   6.480  0.2500  0.5486 -0.3414
  499TIP3    H1 1438   1.849   1.900   6.411 -0.4636  0.4707 -0.9189
  499TIP3    H2 1439   1.714   1.839   6.440 -0.0268  0.1198  0.4295
  500TIP3   OH2 1440   7.194   3.567   3.836  0.1967  0.2464 -0.2656
  500TIP3    H1 1441   7.136   3.546   3.909  2.3176 -0.3557  1.3418
  500TIP3    H2 1442   7.138   3.560   3.758 -2.2769  1.4897  1.2854
  501TIP3   OH2 1443   2.834   2.437   4.630  0.3052  0.6294  0.2242
  501TIP3    H1 1444   2.849   2.398   4.716  1.3529  1.7105  0.5649
  501TIP3    H2 1445   2.895   2.510   4.626  0.9939  0.0346 -1.8251
  502TIP3   OH2 1446   0.819   1.399   2.071  0.2368  0.1909 -0.0274
  502TIP3    H1 1447   0.873   1.433   2.000 -1.0519 -0.8813 -1.6053
  502TIP3    H2 1448   0.773   1.325   2.032 -1.4867  0.3477  1.5863
  503TIP3   OH2 1449   4.352   2.260   3.412  0.0446 -0.3985  0.1712
  503TIP3    H1 1450   4.326   2.347   3.440 -0.3874 -0.3580 -0.3520
  503TIP3    H2 1451   4.270   2.214   3.395  0.2830 -0.3147 -1.3581
  504TIP3   OH2 1452   3.852   2.243   2.102 -0.3254  0.3338  0.4005
  504TIP3    H1 1453   3.912   2.278   2.168  0.7562  0.2973 -0.5309
  504TIP3    H2 1454   3.856   2.148   2.114  0.5820  0.2671 -0.2783
  505TIP3   OH2 1455   5.706   6.551   3.926 -0.6572  0.5426  0.1256
  505TIP3    H1 1456   5.777   6.563   3.990  0.2026 -0.0836 -0.6839
  505TIP3    H2 1457   5.686   6.640   3.897  0.5708  0.6620 -0.4367
  506TIP3   OH2 1458   0.361   7.872   4.887  0.7539 -1.1135  0.0445
  506TIP3    H1 1459   0.389   7.805   4.950  0.9101 -0.6230  0.5053
  506TIP3    H2 1460   0.332   7.945   4.942  1.3487 -0.4929 -0.4541
  507TIP3   OH2 1461   0.117   5.576   0.382  0.5051  0.1014 -0.0856
  507TIP3    H1 1462   0.053   5.515   0.418  0.2902  0.2452 -0.2164
  507TIP3    H2 1463   0.179   5.521   0.334  0.8720 -0.1070  0.6032
  508TIP3   OH2 1464   2.351   4.604   0.190 -0.4196  0.9928 -0.6852
  508TIP3    H1 1465   2.395   4.680   0.152 -1.5748  1.8953 -0.2899
  508TIP3    H2 1466   2.368   4.611   0.284  1.1454 -0.3760 -0.8387
  509TIP3   OH2 1467   2.206   2.484   5.278 -0.2952 -0.0348 -0.4926
  509TIP3    H1 1468   2.203   2.431   5.358 -0.9320 -0.3136 -0.6913
  509TIP3    H2 1469   2.118   2.522   5.271 -0.4646 -0.5725 -1.4214
  510TIP3   OH2 1470   2.765   0.337   0.740 -0.5370 -0.0933 -0.2410
  510TIP3    H1 1471   2.753   0.356   0.833 -0.7328 -1.6414  0.0912
  510TIP3    H2 1472   2.697   0.387   0.695 -0.1473  1.0269  0.3903
  511TIP3   OH2 1473   5.045   6.585   0.829  0.5617 -0.1533  0.2196
  511TIP3    H1 1474   5.137   6.573   0.851  0.6263  1.3410  0.8815
  511TIP3    H2 1475   5.046   6.621   0.741  0.4669 -2.3248 -0.7436
  512TIP3   OH2 1476   3.156   1.293   2.227  0.1930 -0.2157 -0.4253
  512TIP3    H1 1477   3.176   1.381   2.194 -0.7080 -0.4218 -1.5918
  512TIP3    H2 1478   3.240   1.248   2.229  0.8842  1.0464  1.4202
  513TIP3   OH2 1479   4.968   6.297   1.220 -0.1825 -0.1455 -1.0605
  513TIP3    H1 1480   4.925   6.212   1.229 -0.7476  0.1769 -0.6683
  513TIP3    H2 1481   5.051   6.287   1.266 -1.8418  0.6322  2.4424
  514TIP3   OH2 1482   2.408   3.352   1.544 -0.2862  0.0178  0.1064
  514TIP3    H1 1483   2.326   3.359   1.496 -0.2868  1.5532  0.2673
  514TIP3    H2 1484   2.475   3.379   1.482  0.5217 -3.7506 -0.8894
  515TIP3   OH2 1485   7.100   0.975   6.605 -0.0407 -0.6777  0.3414
  515TIP3    H1 1486   7.174   0.971   6.545 -1.1357  3.1689 -1.6219
  515TIP3    H2 1487   7.026   0.943   6.552 -0.3046 -1.7798  1.3348
  516TIP3   OH2 1488   6.705   7.271   5.044  0.6680 -0.1256 -0.7647
  516TIP3    H1 1489   6.694   7.213   5.120 -0.5953 -2.0781 -2.3114
  516TIP3    H2 1490   6.646   7.234   4.978  1.4281  1.7251 -2.5707
  517TIP3   OH2 1491   7.555   1.373   0.674 -0.1932 -0.2112  0.0744
  517TIP3    H1 1492   7.622   1.314   0.709 -0.4115 -0.5062  0.0002
  517TIP3    H2 1493   7.573   1.377   0.580  0.2750  0.4301  0.1817
  518TIP3   OH2 1494   1.334   5.921   3.028 -0.1635 -0.1231 -0.3690
  518TIP3    H1 1495   1.376   5.843   2.991 -0.7171 -0.1523 -0.9540
  518TIP3    H2 1496   1.262   5.887   3.081 -0.2240 -0.0167 -0.3840
  519TIP3   OH2 1497   4.275   4.008   1.773  0.7374 -0.1054 -0.0045
  519TIP3    H1 1498   4.229   3.934   1.812 -2.2761  1.6820  0.2182
  519TIP3    H2 1499   4.246   4.009   1.682  0.2993  1.0294  0.1220
  520TIP3   OH2 1500   0.031   1.098   3.851  0.1593  0.0432 -0.0544
  520TIP3    H1 1501   0.053   1.015   3.893  0.2844 -0.1393 -0.4727
  520TIP3    H2 1502   0.071   1.164   3.906  2.8415 -0.3138 -1.3860
  521TIP3   OH2 1503   0.371   1.806   0.048 -0.3473 -0.4841 -1.1908
  521TIP3    H1 1504   0.436   1.738   0.063  1.5824  1.2162 -1.4987
  521TIP3    H2 1505   0.339   1.829   0.135  1.0728  0.1478 -0.8143
  522TIP3   OH2 1506   1.329   7.603   1.933 -0.1708 -0.3290  0.0295
  522TIP3    H1 1507   1.269   7.543   1.978  1.2369 -1.9045 -0.0922
  522TIP3    H2 1508   1.334   7.679   1.989 -0.0567 -1.3989  1.5219
  523TIP3   OH2 1509   3.500   5.100   2.330  0.2450  0.3790  0.1050
  523TIP3    H1 1510   3.492   5.155   2.409 -1.2407  0.4794 -0.0774
  523TIP3    H2 1511   3.504   5.163   2.258 -1.7453  0.3236 -0.1291
  524TIP3   OH2 1512   3.216   7.883   4.126  0.3433  0.0749  0.4598
  524TIP3    H1 1513   3.225   7.923   4.039  1.7426  0.0561  0.5771
  524TIP3    H2 1514   3.213   7.958   4.186  1.5329  0.0709  0.5560
  525TIP3   OH2 1515   0.426   7.832   0.824  0.1370 -0.1597  0.0695
  525TIP3    H1 1516   0.383   7.878   0.752 -1.2988  0.4249  1.2526
  525TIP3    H2 1517   0.413   7.739   0.805 -2.8931 -0.0338  1.0116
  526TIP3   OH2 1518   2.073   3.367   5.000 -0.5377  0.0675 -0.3254
  526TIP3    H1 1519   2.169   3.361   5.001 -0.5556 -0.6770  1.3732
  526TIP3    H2 1520   2.051   3.395   4.911  1.3760  2.3985 -0.1549
  527TIP3   OH2 1521   3.868   3.637   0.207  0.6919  0.3704  0.4387
  527TIP3    H1 1522   3.924   3.639   0.285  1.6822 -0.9064 -0.2032
  527TIP3    H2 1523   3.883   3.722   0.165  3.2506 -0.4171 -0.4108
  528TIP3   OH2 1524   7.538   7.695   3.141  0.0044  0.1748 -0.4244
  528TIP3    H1 1525   7.456   7.663   3.178  0.3447 -1.4497 -1.0071
  528TIP3    H2 1526   7.598   7.621   3.145  1.8214  1.6093  0.9304
  529TIP3   OH2 1527   8.059   0.529   3.188 -0.3187  0.0781  0.2499
  529TIP3    H1 1528   8.013   0.556   3.109 -0.0660 -1.5441 -0.4847
  529TIP3    H2 1529   8.150   0.517   3.161 -0.1501 -0.1182  0.8775
  530TIP3   OH2 1530   8.309   5.831   2.231  0.2210 -0.6685 -0.0859
  530TIP3    H1 1531   8.260   5.888   2.171 -0.3858 -0.3675  0.6892
  530TIP3    H2 1532   8.254   5.753   2.241  0.0665 -0.4854  0.5032
  531TIP3   OH2 1533   6.409   4.842   1.700 -0.2631  0.0386 -0.2260
  531TIP3    H1 1534   6.478   4.879   1.644  0.8078 -0.0545  0.9696
  531TIP3    H2 1535   6.336   4.826   1.641  0.2613  1.3795 -1.3053
  532TIP3   OH2 1536   7.825   6.255   4.875 -0.0659 -0.1844  0.4149
  532TIP3    H1 1537   7.806   6.204   4.796 -1.7464 -0.1021  0.7238
  532TIP3    H2 1538   7.912   6.225   4.903  1.1536  0.7031 -2.1301
  533TIP3   OH2 1539   3.492   7.473   5.411  0.0058  0.1042  0.2155
  533TIP3    H1 1540   3.522   7.558   5.445 -1.4752 -0.4019  3.0768
  533TIP3    H2 1541   3.445   7.496   5.330 -0.0976  1.9815  0.7530
  534TIP3   OH2 1542   0.251   3.460   2.421  0.2918  0.2878  0.4093
  534TIP3    H1 1543   0.337   3.424   2.399  1.0646  1.7995  0.8458
  534TIP3    H2 1544   0.259   3.485   2.513 -0.1873  1.6303  0.0984
  535TIP3   OH2 1545   3.166   1.894   6.243  0.5271 -0.0578 -0.0817
  535TIP3    H1 1546   3.239   1.934   6.289  1.7170  0.6807 -2.4221
  535TIP3    H2 1547   3.207   1.828   6.186 -0.8280 -0.7688 -0.2714
  536TIP3   OH2 1548   5.784   1.375   6.578  1.0577  0.0799  0.2558
  536TIP3    H1 1549   5.807   1.293   6.622  0.9095 -0.1472 -0.0788
  536TIP3    H2 1550   5.707   1.407   6.627 -0.1755 -1.0501 -0.8475
  537TIP3   OH2 1551   4.960   5.870   5.616  1.1686 -0.4110 -0.6589
  537TIP3    H1 1552   4.896   5.931   5.581 -0.7217 -2.4312 -0.9546
  537TIP3    H2 1553   4.999   5.829   5.538  2.7662  0.6746 -0.4807
  538TIP3   OH2 1554   1.425   1.114   0.605  0.1760 -0.0961  0.0140
  538TIP3    H1 1555   1.454   1.206   0.609  1.1977 -0.4153  0.2141
  538TIP3    H2 1556   1.378   1.100   0.686  2.7326 -0.6059  1.5227
  539TIP3   OH2 1557   6.847   4.356   1.070 -0.0234 -0.1392  0.3150
  539TIP3    H1 1558   6.852   4.383   1.162 -1.9224  0.4764  0.2810
  539TIP3    H2 1559   6.800   4.272   1.073 -1.2263  0.5012 -0.1668
  540TIP3   OH2 1560   8.378   5.694   2.558  0.7539  0.0699  0.3527
  540TIP3    H1 1561   8.368   5.693   2.654  0.7127  1.1510  0.3779
  540TIP3    H2 1562   8.310   5.755   2.528 -0.8472 -2.0673 -0.6033
  541TIP3   OH2 1563   7.560   1.647   5.753 -0.3150  0.3221 -0.0681
  541TIP3    H1 1564   7.475   1.649   5.710  0.1469 -0.8003 -1.0728
  541TIP3    H2 1565   7.600   1.564   5.726  1.3540  1.0869 -0.1049
  542TIP3   OH2 1566   0.121   6.425   1.082  0.1295  0.5275  0.2474
  542TIP3    H1 1567   0.114   6.511   1.124 -0.6802  1.8182 -2.3554
  542TIP3    H2 1568   0.030   6.398   1.067  0.3936 -0.1698 -0.1378
  543TIP3   OH2 1569   4.988   5.278   3.350  0.1899  0.1473 -0.5980
  543TIP3    H1 1570   4.953   5.365   3.367 -1.0674 -0.8564  2.7372
  543TIP3    H2 1571   4.911   5.222   3.337  0.8588 -0.8429 -0.4435
  544TIP3   OH2 1572   1.805   7.147   0.705  0.4021  0.1477  0.1660
  544TIP3    H1 1573   1.712   7.133   0.689  0.9631 -2.5070 -1.3161
  544TIP3    H2 1574   1.837   7.193   0.627  0.7943 -1.4564 -0.6608
  545TIP3   OH2 1575   1.802   4.623   1.232 -0.3706 -0.6154 -0.2642
  545TIP3    H1 1576   1.758   4.668   1.160  1.3992 -1.2848 -1.8595
  545TIP3    H2 1577   1.734   4.570   1.273 -1.9285  1.5009  0.0415
  546TIP3   OH2 1578   6.213   2.763   1.689  0.1995 -0.3642  0.3384
  546TIP3    H1 1579   6.197   2.747   1.782  0.4918 -0.9032  0.3009
  546TIP3    H2 1580   6.172   2.688   1.645 -0.9423  0.4595 -0.0520
  547TIP3   OH2 1581   0.664   2.308   2.934  0.2199 -0.5938  0.1026
  547TIP3    H1 1582   0.593   2.264   2.980 -0.1544 -0.3017 -0.1828
  547TIP3    H2 1583   0.629   2.396   2.915  0.4669 -0.6189 -0.4843
  548TIP3   OH2 1584   0.152   6.244   0.077 -0.1338 -0.1769 -0.0591
  548TIP3    H1 1585   0.157   6.305   0.003  1.9671 -1.5522 -1.1450
  548TIP3    H2 1586   0.221   6.180   0.060 -0.9054 -1.6889  2.1028
  549TIP3   OH2 1587   3.939   2.519   6.247  0.4254  0.0497  0.1505
  549TIP3    H1 1588   3.868   2.583   6.253  0.0118 -0.4523  0.7222
  549TIP3    H2 1589   3.954   2.509   6.153 -2.3496 -2.0823 -0.1921
  550TIP3   OH2 1590   2.071   7.419   2.176  0.7055 -0.2235 -0.4428
  550TIP3    H1 1591   1.990   7.389   2.217 -0.8413  1.1752 -2.2933
  550TIP3    H2 1592   2.112   7.475   2.241 -0.7555  0.4788 -0.0922
  551TIP3   OH2 1593   0.217   4.715   2.432 -0.3238  0.0041 -0.1349
  551TIP3    H1 1594   0.223   4.800   2.475  2.5147  0.9192 -2.0844
  551TIP3    H2 1595   0.130   4.715   2.390 -1.0336  1.1926  1.2706
  552TIP3   OH2 1596   2.037   3.172   5.883  0.2987 -0.5301 -0.0410
  552TIP3    H1 1597   2.103   3.238   5.905  0.3046 -0.4704 -0.2374
  552TIP3    H2 1598   1.964   3.191   5.942 -0.1327  0.3340 -0.8200
  553TIP3   OH2 1599   2.075   7.852   3.144  0.1527  0.7222  0.1926
  553TIP3    H1 1600   2.035   7.766   3.131 -0.4748  0.6135  2.3486
  553TIP3    H2 1601   2.039   7.907   3.074  1.1067 -0.8985 -1.6457
  554TIP3   OH2 1602   2.759   2.456   2.626 -0.3437  0.2372  0.1431
  554TIP3    H1 1603   2.707   2.447   2.547 -1.4255 -0.5863  0.9236
  554TIP3    H2 1604   2.696   2.453   2.698  0.6641  0.3710  1.0726
  555TIP3   OH2 1605   0.922   2.134   4.577  0.0190  0.8073 -0.4997
  555TIP3    H1 1606   0.906   2.215   4.626 -0.6537  0.5615 -0.2966
  555TIP3    H2 1607   1.006   2.103   4.609 -0.5529  0.4740  0.7767
  556TIP3   OH2 1608   7.053   1.031   2.439 -0.3587 -0.0074 -0.2646
  556TIP3    H1 1609   7.062   0.936   2.448 -0.7250 -0.0048  0.1201
  556TIP3    H2 1610   7.066   1.047   2.345  2.4774 -0.1341 -0.0041
  557TIP3   OH2 1611   0.841   7.302   5.841  0.1484  0.1962 -0.1504
  557TIP3    H1 1612   0.766   7.340   5.795 -0.6361 -1.4677 -0.3278
  557TIP3    H2 1613   0.889   7.256   5.772 -0.2953 -1.1868  0.4271
  558TIP3   OH2 1614   7.787   5.711   2.441 -0.0748 -0.2895  0.0376
  558TIP3    H1 1615   7.708   5.694   2.493 -1.5020  1.9485 -1.2687
  558TIP3    H2 1616   7.766   5.676   2.354 -1.2134  3.3610 -1.3509
  559TIP3   OH2 1617   3.315   3.165   5.707  0.4286  0.4832  0.0074
  559TIP3    H1 1618   3.276   3.246   5.739  1.4799  0.5317  1.2141
  559TIP3    H2 1619   3.396   3.194   5.663  0.0533  0.2147 -0.8842
  560TIP3   OH2 1620   2.138   0.434   2.716  0.2637  0.4404 -0.6863
  560TIP3    H1 1621   2.182   0.518   2.702  3.2797 -0.8530  0.1910
  560TIP3    H2 1622   2.130   0.427   2.811  2.3577 -1.2483 -0.5686
  561TIP3   OH2 1623   1.683   1.167   2.455  0.1837  0.1892 -0.4325
  561TIP3    H1 1624   1.631   1.211   2.388 -0.3067  1.2392  0.5912
  561TIP3    H2 1625   1.769   1.209   2.450  0.2483  0.0322 -0.6311
  562TIP3   OH2 1626   2.716   0.607   5.262  0.2865  0.2866 -0.6096
  562TIP3    H1 1627   2.756   0.658   5.333 -0.3267  0.5903 -0.4693
  562TIP3    H2 1628   2.769   0.528   5.255 -0.8479 -0.7756  1.6331
  563TIP3   OH2 1629   5.158   7.615   2.982  0.2416 -0.1410 -0.1233
  563TIP3    H1 1630   5.080   7.560   2.988  0.5625 -0.4882  1.0564
  563TIP3    H2 1631   5.225   7.558   2.944 -0.4686  0.6314 -2.7662
  564TIP3   OH2 1632   5.648   7.508   1.351  0.4492 -0.1833 -0.3548
  564TIP3    H1 1633   5.742   7.509   1.333  0.7706 -0.1683  1.2090
  564TIP3    H2 1634   5.638   7.559   1.431 -0.6375 -1.7992  0.5926
  565TIP3   OH2 1635   4.763   0.465   0.131  0.3581  0.0236 -0.0423
  565TIP3    H1 1636   4.801   0.515   0.203 -0.1187 -0.8535  0.8344
  565TIP3    H2 1637   4.780   0.519   0.053  1.6926  0.5576  0.5829
  566TIP3   OH2 1638   0.966   6.264   0.866  0.1388  0.7662  0.4772
  566TIP3    H1 1639   0.871   6.256   0.857  0.0834  0.2067  1.4009
  566TIP3    H2 1640   0.985   6.355   0.846 -0.2600  0.3447 -2.3427
  567TIP3   OH2 1641   7.940   3.243   0.342  0.2501 -0.0646  0.5271
  567TIP3    H1 1642   8.003   3.313   0.359  0.3374  0.3621 -1.2939
  567TIP3    H2 1643   7.887   3.276   0.269 -0.7540 -1.2516  0.6817
  568TIP3   OH2 1644   0.969   0.041   2.278 -0.6310  0.0069 -0.2255
  568TIP3    H1 1645   0.985   0.037   2.184  1.2921  1.4513 -0.0086
  568TIP3    H2 1646   0.880   0.076   2.286 -0.4512  0.7914 -1.4870
  569TIP3   OH2 1647   3.287   0.010   1.498  0.1770 -0.1912 -0.1451
  569TIP3    H1 1648   3.242   0.043   1.576  1.8310  0.7887  0.4353
  569TIP3    H2 1649   3.355   0.075   1.481 -0.0600 -0.4587 -2.3464
  570TIP3   OH2 1650   0.288   7.047   4.479  0.8417  0.5912 -0.3746
  570TIP3    H1 1651   0.241   6.996   4.412 -0.0209  0.4697  0.3076
  570TIP3    H2 1652   0.271   7.000   4.561 -0.3372  2.1734  0.3366
  571TIP3   OH2 1653   6.810   0.865   5.220  0.4009  0.1506  0.0574
  571TIP3    H1 1654   6.781   0.892   5.307  0.9903  2.1901 -0.3380
  571TIP3    H2 1655   6.763   0.922   5.160  2.0130  0.6376 -0.8059
  572TIP3   OH2 1656   6.458   6.012   2.640 -0.7874 -0.7072  0.2797
  572TIP3    H1 1657   6.390   5.962   2.595 -1.3561 -1.0602  1.4795
  572TIP3    H2 1658   6.415   6.094   2.664 -0.2596 -0.1971 -0.4842
  573TIP3   OH2 1659   5.398   3.104   1.795 -0.1347 -0.4491  0.0201
  573TIP3    H1 1660   5.487   3.102   1.759 -0.2425 -1.3315 -0.2309
  573TIP3    H2 1661   5.409   3.080   1.887 -0.3220 -3.2631 -0.5736
  574TIP3   OH2 1662   4.847   4.597   3.166  0.2649  0.4652 -0.0794
  574TIP3    H1 1663   4.854   4.689   3.141 -0.8166  0.8641  0.9837
  574TIP3    H2 1664   4.937   4.567   3.173  0.6306  1.4646 -0.3561
  575TIP3   OH2 1665   4.278   4.161   6.363 -0.1624  0.0653  0.5847
  575TIP3    H1 1666   4.309   4.221   6.296 -0.9824  0.4780  0.5683
  575TIP3    H2 1667   4.242   4.087   6.315  1.1957 -0.6449  0.6073
  576TIP3   OH2 1668   4.284   6.926   4.346 -0.6258  0.2454 -0.2649
  576TIP3    H1 1669   4.196   6.888   4.346 -0.8407  0.6262 -2.2012
  576TIP3    H2 1670   4.284   6.986   4.421 -1.8161 -0.2034  0.1175
  577TIP3   OH2 1671   6.299   6.432   1.254 -0.2195  0.0442  0.1795
  577TIP3    H1 1672   6.236   6.360   1.250 -0.9996  0.6084  1.4939
  577TIP3    H2 1673   6.259   6.495   1.314  1.5646  0.4772  0.9704
  578TIP3   OH2 1674   1.250   1.419   6.348 -0.5924  0.5801  0.1689
  578TIP3    H1 1675   1.244   1.495   6.406  1.3804 -0.5147  1.9222
  578TIP3    H2 1676   1.216   1.346   6.401  0.1285 -0.2348 -0.4701
  579TIP3   OH2 1677   3.244   1.153   5.402  0.1857  0.1162  0.0524
  579TIP3    H1 1678   3.300   1.118   5.332  0.2937 -1.0817  0.7174
  579TIP3    H2 1679   3.155   1.128   5.376  0.1931 -0.0289  0.1644
  580TIP3   OH2 1680   4.102   5.018   5.275  0.7926  0.3617 -0.2927
  580TIP3    H1 1681   4.026   5.048   5.225 -0.1876 -3.0735 -1.1537
  580TIP3    H2 1682   4.169   5.003   5.209  1.2996  0.7573  0.1270
  581TIP3   OH2 1683   2.996   2.024   3.740 -0.0343  0.8130  0.5292
  581TIP3    H1 1684   2.911   1.984   3.756  0.9360 -1.9583 -0.5711
  581TIP3    H2 1685   2.984   2.078   3.662 -0.1707 -2.2953 -1.7977
  582TIP3   OH2 1686   3.585   2.689   5.052  0.0265 -0.1120  0.2837
  582TIP3    H1 1687   3.576   2.760   5.116 -1.0421  0.3053 -0.3251
  582TIP3    H2 1688   3.669   2.707   5.009 -0.1105  0.6284  0.3108
  583TIP3   OH2 1689   2.752   7.558   6.680  0.3995  0.3641  0.5020
  583TIP3    H1 1690   2.676   7.544   6.624 -1.4150  0.9949  2.6528
  583TIP3    H2 1691   2.777   7.471   6.709  1.2717  0.0452 -1.1069
  584TIP3   OH2 1692   5.343   4.166   2.612 -0.5731 -0.2391 -0.3123
  584TIP3    H1 1693   5.311   4.221   2.684 -3.3157  0.9340 -2.2301
  584TIP3    H2 1694   5.416   4.215   2.574 -0.5606  0.2216  0.2943
  585TIP3   OH2 1695   1.865   6.606   3.032  0.3535 -0.4667  0.0664
  585TIP3    H1 1696   1.948   6.647   3.055 -0.0828  0.8506 -0.5889
  585TIP3    H2 1697   1.828   6.577   3.116  0.5659  0.7374  0.5946
  586TIP3   OH2 1698   2.533   6.516   0.486  0.2979  0.0621 -0.4655
  586TIP3    H1 1699   2.496   6.550   0.404 -0.4428 -0.0003 -0.1642
  586TIP3    H2 1700   2.479   6.439   0.506  1.5400 -0.9452 -0.8034
  587TIP3   OH2 1701   1.195   5.445   3.550 -0.1952 -0.3760  0.3200
  587TIP3    H1 1702   1.280   5.431   3.509 -0.4360 -2.8436  0.5267
  587TIP3    H2 1703   1.145   5.366   3.530 -1.6068 -0.0479  2.2375
  588TIP3   OH2 1704   6.440   0.361   5.836 -0.2492  0.4512 -0.1051
  588TIP3    H1 1705   6.360   0.314   5.815  0.4176 -0.4155 -0.7792
  588TIP3    H2 1706   6.474   0.318   5.914  0.3783 -0.2368 -0.7405
  589TIP3   OH2 1707   1.812   3.890   3.809 -0.3786 -0.2839 -0.3004
  589TIP3    H1 1708   1.771   3.835   3.876  2.2422  0.0138  1.7097
  589TIP3    H2 1709   1.820   3.976   3.850  1.8936 -0.2677 -0.6696
  590TIP3   OH2 1710   7.784   5.312   0.594  0.3611  0.5324  0.1041
  590TIP3    H1 1711   7.826   5.229   0.576  0.7111  0.3765  1.5256
  590TIP3    H2 1712   7.738   5.334   0.513 -1.4379 -2.0455  0.2984
  591TIP3   OH2 1713   4.342   3.611   2.997  0.0686  0.5245  0.2892
  591TIP3    H1 1714   4.262   3.560   2.982  0.6693 -0.5337  0.5924
  591TIP3    H2 1715   4.362   3.650   2.912 -0.4140  0.2851  0.0610
  592TIP3   OH2 1716   0.900   6.692   2.497  0.4669 -0.1845 -0.4752
  592TIP3    H1 1717   0.842   6.741   2.554  2.4866  0.7893  0.8736
  592TIP3    H2 1718   0.915   6.749   2.422 -0.8078 -0.7321 -1.1753
  593TIP3   OH2 1719   2.356   6.185   0.934  0.4181  0.1228  0.3758
  593TIP3    H1 1720   2.350   6.271   0.893  1.0406  0.3547  0.7526
  593TIP3    H2 1721   2.388   6.203   1.023 -2.3857 -0.1998  1.5499
  594TIP3   OH2 1722   0.492   6.273   4.063  0.6148 -0.5528  0.4453
  594TIP3    H1 1723   0.426   6.206   4.080 -1.6430  0.9900 -1.6910
  594TIP3    H2 1724   0.501   6.320   4.146 -0.7935 -0.9504  0.8403
  595TIP3   OH2 1725   5.479   6.105   1.410 -0.0801 -0.1899  0.0132
  595TIP3    H1 1726   5.548   6.059   1.361  0.8458 -0.4631  1.5161
  595TIP3    H2 1727   5.527   6.161   1.471 -1.1792 -0.6694  1.3628
  596TIP3   OH2 1728   6.844   5.720   0.662 -0.5759 -0.1819  0.0799
  596TIP3    H1 1729   6.908   5.776   0.617 -1.3037 -0.1095 -0.8899
  596TIP3    H2 1730   6.886   5.699   0.745  0.6265  0.0331 -0.4471
  597TIP3   OH2 1731   2.694   1.758   5.343  0.1432  0.0496  0.0302
  597TIP3    H1 1732   2.614   1.710   5.323  0.4183 -0.3860 -0.0440
  597TIP3    H2 1733   2.763   1.692   5.337  0.3879  0.1831  1.1579
  598TIP3   OH2 1734   1.949   1.437   4.557 -0.1246 -0.2692 -0.3157
  598TIP3    H1 1735   1.940   1.355   4.510 -0.0152 -0.1023 -0.6322
  598TIP3    H2 1736   2.040   1.462   4.546 -0.1162 -0.1876 -0.0809
  599TIP3   OH2 1737   3.167   4.106   6.060  0.7112  0.1623  0.7871
  599TIP3    H1 1738   3.163   4.198   6.034 -0.1652 -0.5597 -2.0096
  599TIP3    H2 1739   3.246   4.073   6.017 -1.6588 -1.4708 -2.8405
  600TIP3   OH2 1740   6.468   0.619   6.013 -0.1430 -0.0045 -0.1511
  600TIP3    H1 1741   6.394   0.615   6.073  1.6421 -1.4112  2.1705
  600TIP3    H2 1742   6.500   0.528   6.010  1.2257  0.4857 -1.3782
  601TIP3   OH2 1743   8.084   5.899   6.457 -0.2733  0.1564  0.6774
  601TIP3    H1 1744   8.128   5.851   6.527  3.1103  0.8110 -0.8122
  601TIP3    H2 1745   7.994   5.912   6.490 -0.2705 -3.6701  2.7539
  602TIP3   OH2 1746   4.035   4.637   5.603 -0.6908  0.0337  0.1900
  602TIP3    H1 1747   4.092   4.713   5.591 -0.2574 -0.4163 -0.6344
  602TIP3    H2 1748   4.031   4.627   5.698 -0.0383  0.5534  0.2878
  603TIP3   OH2 1749   2.477   4.216   5.782 -0.0705  0.7332  0.3588
  603TIP3    H1 1750   2.543   4.147   5.789  0.4269  1.2531  0.9064
  603TIP3    H2 1751   2.395   4.169   5.770  0.1415  0.0145  1.6206
  604TIP3   OH2 1752   4.375   0.111   5.442 -0.0839 -0.1524 -0.3400
  604TIP3    H1 1753   4.335   0.154   5.517  1.4356  1.4194 -0.3759
  604TIP3    H2 1754   4.432   0.044   5.480 -0.9412 -0.8085 -0.1966
  605TIP3   OH2 1755   8.000   1.878   5.168  0.2983 -0.1972  0.6011
  605TIP3    H1 1756   8.049   1.879   5.085  0.9189 -1.4084  0.9208
  605TIP3    H2 1757   8.048   1.938   5.225  0.6150 -0.3185  0.4676
  606TIP3   OH2 1758   2.236   0.057   6.077 -0.0617  0.2845  0.0221
  606TIP3    H1 1759   2.268   0.122   6.140 -1.5341 -0.7278  1.9010
  606TIP3    H2 1760   2.148   0.036   6.107 -0.7929 -0.3393 -2.3597
  607TIP3   OH2 1761   5.133   2.436   4.251 -0.6099  0.0703  0.1527
  607TIP3    H1 1762   5.157   2.514   4.301 -1.5067 -0.0388  0.7656
  607TIP3    H2 1763   5.059   2.464   4.197 -0.5094 -0.1827 -0.1184
  608TIP3   OH2 1764   7.270   3.446   6.843  0.3074  0.4603 -0.0450
  608TIP3    H1 1765   7.229   3.450   6.756  1.6097 -2.2978 -0.9112
  608TIP3    H2 1766   7.343   3.507   6.838  1.4938 -0.9750 -1.6511
  609TIP3   OH2 1767   2.231   7.669   5.198  0.4862 -0.1605 -0.0816
  609TIP3    H1 1768   2.219   7.754   5.239  0.1473  1.1347 -2.6891
  609TIP3    H2 1769   2.170   7.669   5.124 -0.0676 -2.9885  0.2587
  610TIP3   OH2 1770   6.930   4.372   6.644  0.2912  0.2932  0.0551
  610TIP3    H1 1771   6.884   4.452   6.668  0.5807 -0.1200  2.2003
  610TIP3    H2 1772   7.023   4.392   6.658  0.5752  0.2269 -1.5096
  611TIP3   OH2 1773   3.851   7.926   0.230  0.0940 -0.8432  0.3876
  611TIP3    H1 1774   3.760   7.903   0.212 -0.0873  1.1015 -1.6726
  611TIP3    H2 1775   3.902   7.862   0.181 -0.2219 -0.9850  0.2407
  612TIP3   OH2 1776   1.633   0.384   1.047  0.0307 -0.1897  0.2885
  612TIP3    H1 1777   1.670   0.354   0.964  0.6878  1.1594  0.0778
  612TIP3    H2 1778   1.707   0.421   1.095 -1.0339  3.2689 -0.4605
  613TIP3   OH2 1779   5.323   5.025   5.667  0.5203  0.7884 -0.1183
  613TIP3    H1 1780   5.402   5.074   5.691  2.1615 -1.9435  0.5069
  613TIP3    H2 1781   5.287   4.994   5.750  0.6706 -0.6452 -0.5518
  614TIP3   OH2 1782   0.495   2.559   1.924  0.0976 -0.1150  0.7576
  614TIP3    H1 1783   0.464   2.632   1.978 -0.9655 -1.2229  1.6897
  614TIP3    H2 1784   0.423   2.540   1.865 -0.0777 -1.1223  1.2753
  615TIP3   OH2 1785   5.797   7.714   4.021 -0.3143 -0.0738 -0.2151
  615TIP3    H1 1786   5.813   7.784   3.958  2.7972  0.2746  0.7778
  615TIP3    H2 1787   5.884   7.676   4.037 -1.3608 -1.7577  1.9915
  616TIP3   OH2 1788   3.881   0.978   2.150  0.1519 -0.2276 -0.1651
  616TIP3    H1 1789   3.942   1.040   2.111  0.7627 -0.2181  0.7716
  616TIP3    H2 1790   3.852   0.923   2.077 -0.7656  1.4179 -1.1143
  617TIP3   OH2 1791   1.598   3.509   4.536  0.1488 -0.4220  0.0174
  617TIP3    H1 1792   1.563   3.590   4.501  0.2242 -0.5847 -0.4413
  617TIP3    H2 1793   1.531   3.444   4.519  1.1844 -1.0267 -2.1113
  618TIP3   OH2 1794   1.145   6.966   4.079 -0.4866  0.0930  0.4679
  618TIP3    H1 1795   1.122   6.878   4.109 -0.7167  0.3751  1.1468
  618TIP3    H2 1796   1.061   7.010   4.070 -0.2906  1.2149  3.2057
  619TIP3   OH2 1797   7.418   0.129   1.063 -0.0228 -0.4566 -0.1012
  619TIP3    H1 1798   7.361   0.104   0.990  0.9699 -1.2364 -0.6324
  619TIP3    H2 1799   7.444   0.219   1.044  1.2990 -1.0749 -1.4629
  620TIP3   OH2 1800   3.917   3.350   3.958 -0.0977  0.4568  0.3825
  620TIP3    H1 1801   3.915   3.444   3.939  1.0721  0.6221  0.9810
  620TIP3    H2 1802   4.010   3.331   3.973 -0.0390 -1.2275 -1.7948
  621TIP3   OH2 1803   2.348   3.412   1.802 -0.4993 -0.3517  0.6306
  621TIP3    H1 1804   2.374   3.399   1.711  0.3313 -0.2284  0.8387
  621TIP3    H2 1805   2.342   3.324   1.839  0.5333 -0.3719  0.8072
  622TIP3   OH2 1806   6.162   5.053   2.434  0.0990 -0.1726 -0.0798
  622TIP3    H1 1807   6.197   5.122   2.378  2.0656 -0.8143  0.2762
  622TIP3    H2 1808   6.189   5.078   2.522 -1.9187  0.2029  0.4881
  623TIP3   OH2 1809   2.275   4.565   4.575 -0.3332 -0.0828  0.5825
  623TIP3    H1 1810   2.240   4.552   4.663 -0.2790 -0.4508  0.5529
  623TIP3    H2 1811   2.279   4.477   4.538  0.4796 -0.0364  0.5371
  624TIP3   OH2 1812   4.469   2.972   3.266  0.0877  0.0950 -0.2875
  624TIP3    H1 1813   4.537   3.033   3.293 -1.3334  1.2627  0.7851
  624TIP3    H2 1814   4.512   2.886   3.268  2.1510  0.9772 -1.8923
  625TIP3   OH2 1815   0.414   4.374   3.665 -0.8501  0.3280 -0.0879
  625TIP3    H1 1816   0.323   4.353   3.688 -0.3865  0.4397  1.9860
  625TIP3    H2 1817   0.407   4.416   3.580 -2.7367  0.2470 -0.0254
  626TIP3   OH2 1818   6.784   4.367   5.042 -0.2587 -0.4404 -0.1253
  626TIP3    H1 1819   6.838   4.446   5.031  2.7297 -2.1781  0.9756
  626TIP3    H2 1820   6.795   4.318   4.961  0.3827 -1.1124  0.3576
  627TIP3   OH2 1821   5.776   2.094   5.434 -0.3083  0.0405 -0.0537
  627TIP3    H1 1822   5.774   2.129   5.523  0.5338 -0.6116  0.2300
  627TIP3    H2 1823   5.869   2.084   5.414 -0.4964  0.0015 -0.9366
  628TIP3   OH2 1824   0.536   0.044   0.933  0.3925  0.0969 -0.0693
  628TIP3    H1 1825   0.521   0.048   1.027  0.9157 -0.9541  0.0775
  628TIP3    H2 1826   0.532  -0.049   0.912  1.5552  0.1965 -0.8561
  629TIP3   OH2 1827   8.284   4.510   6.040 -0.0211 -0.2214  0.0815
  629TIP3    H1 1828   8.190   4.506   6.055 -0.2156  0.2464 -0.9207
  629TIP3    H2 1829   8.305   4.603   6.042 -0.0268 -0.1262 -2.1337
  630TIP3   OH2 1830   3.607   0.717   1.666 -0.2781 -0.1508  0.4688
  630TIP3    H1 1831   3.690   0.759   1.645 -0.6833  0.6614  0.4363
  630TIP3    H2 1832   3.545   0.790   1.672 -0.9867 -0.7496  0.4735
  631TIP3   OH2 1833   3.224   0.395   0.148  0.2521 -0.3907 -0.2151
  631TIP3    H1 1834   3.202   0.392   0.241 -2.7196 -4.2106 -0.7746
  631TIP3    H2 1835   3.310   0.352   0.143  0.9190  0.7596  0.7969
  632TIP3   OH2 1836   1.467   2.155   5.094  0.2879  0.7427  0.2214
  632TIP3    H1 1837   1.537   2.184   5.153  0.0017  0.1519  0.8616
  632TIP3    H2 1838   1.496   2.184   5.007  1.6107  0.0387  0.3894
  633TIP3   OH2 1839   2.757   5.404   2.141 -0.2813  0.2514 -0.0380
  633TIP3    H1 1840   2.811   5.465   2.191 -1.8322  2.0464 -0.4645
  633TIP3    H2 1841   2.715   5.349   2.207 -2.1350  2.4498  0.7106
  634TIP3   OH2 1842   6.961   0.283   3.082 -0.3051  0.1280 -0.1361
  634TIP3    H1 1843   6.998   0.349   3.140  1.2573 -0.9359  0.1639
  634TIP3    H2 1844   7.001   0.201   3.111 -0.5061 -0.6204 -1.8565
  635TIP3   OH2 1845   0.325   2.914   0.661  0.1527  0.4721  0.6820
  635TIP3    H1 1846   0.388   2.860   0.613 -0.1753 -1.7721  2.5706
  635TIP3    H2 1847   0.242   2.900   0.616  0.2147 -0.0338  0.7155
  636TIP3   OH2 1848   6.296   4.177   1.561 -0.7647 -0.3581  0.6533
  636TIP3    H1 1849   6.293   4.246   1.628  1.8045  0.6788 -0.1670
  636TIP3    H2 1850   6.295   4.096   1.611 -1.1917  0.3425  1.8217
  637TIP3   OH2 1851   7.584   7.508   6.446  0.8009 -0.3435 -0.3897
  637TIP3    H1 1852   7.571   7.562   6.368  0.7783 -0.8029 -0.7082
  637TIP3    H2 1853   7.676   7.481   6.441  0.8626 -0.1944 -0.1344
  638TIP3   OH2 1854   7.281   3.706   5.840 -0.5143 -0.0964  0.5001
  638TIP3    H1 1855   7.338   3.637   5.807  0.5176  1.4721 -1.2417
  638TIP3    H2 1856   7.241   3.670   5.918  0.7861 -2.2544  0.2377
  639TIP3   OH2 1857   7.402   6.008   0.968  0.5493 -0.3937 -0.3791
  639TIP3    H1 1858   7.312   6.040   0.957  0.6904  0.4263  0.6980
  639TIP3    H2 1859   7.448   6.038   0.890  0.5853  1.7622  0.4081
  640TIP3   OH2 1860   8.351   4.610   5.400  0.1454 -0.4408 -0.1622
  640TIP3    H1 1861   8.355   4.667   5.476 -2.9204 -1.7546  1.1432
  640TIP3    H2 1862   8.411   4.538   5.421  0.1500 -0.2374  0.5305
  641TIP3   OH2 1863   6.063   3.324   5.700  0.5376  0.2948  0.3019
  641TIP3    H1 1864   6.061   3.262   5.773  0.5626  0.9483  0.8680
  641TIP3    H2 1865   6.089   3.407   5.740 -0.5406  0.9212 -0.2549
  642TIP3   OH2 1866   6.629   5.141   4.635  0.4635  0.1458 -0.2968
  642TIP3    H1 1867   6.553   5.137   4.578 -0.5191 -0.2856  0.9865
  642TIP3    H2 1868   6.695   5.086   4.593  0.1501  0.6867 -1.5273
  643TIP3   OH2 1869   5.594   4.450   5.015  0.0828 -0.0846 -0.5584
  643TIP3    H1 1870   5.676   4.487   5.049 -0.2981 -0.8458  1.2844
  643TIP3    H2 1871   5.538   4.527   5.001  0.8769  0.3894 -1.2441
  644TIP3   OH2 1872   3.784   0.144   5.809 -0.4292 -0.1105 -0.1244
  644TIP3    H1 1873   3.873   0.175   5.825 -0.4463 -0.0038 -0.2351
  644TIP3    H2 1874   3.795   0.060   5.766 -0.3335 -2.1655  3.5449
  645TIP3   OH2 1875   5.153   2.280   5.648  0.3348  0.1562 -0.1596
  645TIP3    H1 1876   5.072   2.319   5.680 -1.1261 -2.6603 -0.0838
  645TIP3    H2 1877   5.186   2.227   5.721  0.7190 -0.8754 -1.0389
  646TIP3   OH2 1878   1.492   4.950   5.265  0.2588  0.2520 -0.2870
  646TIP3    H1 1879   1.451   4.874   5.224 -0.6617  0.8453 -0.4928
  646TIP3    H2 1880   1.586   4.940   5.246  0.1619 -0.8585 -0.2451
  647TIP3   OH2 1881   2.232   6.480   2.555  0.4919  0.2852  0.2811
  647TIP3    H1 1882   2.156   6.455   2.504  0.7232 -0.3034  0.2188
  647TIP3    H2 1883   2.278   6.544   2.500  1.7961 -1.7861 -1.1458
  648TIP3   OH2 1884   3.981   3.299   0.186 -0.1887  0.4843  0.4282
  648TIP3    H1 1885   4.041   3.259   0.123  0.2861  0.4101  0.9108
  648TIP3    H2 1886   3.897   3.256   0.171 -0.2276  0.8786 -0.5350
  649TIP3   OH2 1887   4.228   5.460   6.719  0.4020 -0.2779  0.0928
  649TIP3    H1 1888   4.234   5.367   6.739  1.0299 -0.4253 -0.7089
  649TIP3    H2 1889   4.274   5.503   6.791 -0.2288 -0.5514  0.6683
  650TIP3   OH2 1890   6.314   5.549   6.363  0.0187 -0.2704 -0.0595
  650TIP3    H1 1891   6.282   5.606   6.294 -0.1303  1.4288  1.3544
  650TIP3    H2 1892   6.381   5.495   6.321 -2.0839 -1.3895 -2.2014
  651TIP3   OH2 1893   3.817   4.951   4.735 -0.7636  0.3716 -0.4344
  651TIP3    H1 1894   3.871   4.875   4.714 -1.6785 -0.0321 -1.4184
  651TIP3    H2 1895   3.797   4.941   4.828 -0.1693 -0.1284 -0.3546
  652TIP3   OH2 1896   4.839   2.247   6.380  0.8260 -0.1028  0.1922
  652TIP3    H1 1897   4.898   2.210   6.314 -0.6436 -1.5885 -0.3547
  652TIP3    H2 1898   4.757   2.199   6.369 -0.4239  1.6874  1.1216
  653TIP3   OH2 1899   3.323   0.910   6.310 -0.0322 -0.1460  0.0641
  653TIP3    H1 1900   3.353   1.001   6.308 -0.2690 -0.0438  0.8539
  653TIP3    H2 1901   3.374   0.870   6.380 -1.4699 -0.0579  1.2099
  654TIP3   OH2 1902   2.221   7.218   2.699 -0.1457 -0.3053  0.0498
  654TIP3    H1 1903   2.188   7.292   2.647 -2.9011  0.4641  2.6533
  654TIP3    H2 1904   2.263   7.259   2.774  0.7793 -1.4216  0.1608
  655TIP3   OH2 1905   2.909   3.517   0.688  0.2530  0.2276 -0.3771
  655TIP3    H1 1906   2.926   3.535   0.596  0.0140  0.2369 -0.4194
  655TIP3    H2 1907   2.862   3.434   0.688  0.4854  0.0940 -0.2462
  656TIP3   OH2 1908   7.540   4.491   6.131  0.3509  0.2973 -0.6641
  656TIP3    H1 1909   7.553   4.486   6.037  0.4199  2.6950 -0.8415
  656TIP3    H2 1910   7.628   4.485   6.169  0.7234  2.8198 -1.0117
  657TIP3   OH2 1911   2.571   2.939   2.840 -0.5711 -0.7411  0.3895
  657TIP3    H1 1912   2.622   2.874   2.793 -0.6992 -0.8947  0.4626
  657TIP3    H2 1913   2.541   2.894   2.919  1.4310  0.1157  1.7135
  658TIP3   OH2 1914   2.179   6.306   3.278  0.2282 -0.3026 -0.0159
  658TIP3    H1 1915   2.207   6.310   3.370  1.8473 -0.5946 -0.4705
  658TIP3    H2 1916   2.087   6.280   3.283 -0.8861  3.2416  1.6523
  659TIP3   OH2 1917   5.677   7.467   6.548 -0.4920  0.2402  0.6288
  659TIP3    H1 1918   5.622   7.392   6.530 -1.1675  0.6688  0.8882
  659TIP3    H2 1919   5.761   7.429   6.575 -0.3598 -0.4111 -0.6260
  660TIP3   OH2 1920   3.433   3.240   2.679 -0.1355  0.4478 -0.0792
  660TIP3    H1 1921   3.378   3.206   2.749 -0.4455  0.0647 -0.5028
  660TIP3    H2 1922   3.522   3.226   2.709 -0.2490 -0.8161 -0.2585
  661TIP3   OH2 1923   3.946   2.143   5.521  0.1597 -0.4796  0.2929
  661TIP3    H1 1924   3.920   2.082   5.590 -0.2449 -1.5713 -0.7811
  661TIP3    H2 1925   4.042   2.149   5.529  0.5468 -3.2587 -1.0953
  662TIP3   OH2 1926   3.288   2.706   4.047 -0.0317 -0.5000 -0.6869
  662TIP3    H1 1927   3.309   2.734   4.136 -0.9468 -1.6659 -0.0890
  662TIP3    H2 1928   3.373   2.688   4.007  0.3488 -0.7442  0.2166
  663TIP3   OH2 1929   0.367   1.313   4.332 -0.7452 -0.3063 -0.1407
  663TIP3    H1 1930   0.295   1.297   4.394 -0.3365 -2.3826 -0.1345
  663TIP3    H2 1931   0.343   1.262   4.255  0.5248 -0.6913 -0.2912
  664TIP3   OH2 1932   1.312   4.447   1.145  0.0027  0.9238  0.5943
  664TIP3    H1 1933   1.405   4.438   1.122  0.0217  0.0058  0.9987
  664TIP3    H2 1934   1.310   4.524   1.202  0.1651  2.3159 -1.1887
  665TIP3   OH2 1935   7.986   3.439   4.664  0.4826  0.4136  0.5464
  665TIP3    H1 1936   7.939   3.521   4.675 -1.6746 -0.7862  0.7926
  665TIP3    H2 1937   8.078   3.465   4.660 -0.1913  2.9327 -0.6478
  666TIP3   OH2 1938   4.916   0.559   5.534 -0.1328  0.0605 -0.5246
  666TIP3    H1 1939   4.999   0.586   5.494  0.1868 -0.5117 -0.2639
  666TIP3    H2 1940   4.912   0.464   5.519  0.0051 -0.1779  0.8071
  667TIP3   OH2 1941   6.838   3.945   5.627 -0.2524  0.2930  0.1759
  667TIP3    H1 1942   6.908   3.883   5.607  1.7365  2.0784  1.2442
  667TIP3    H2 1943   6.814   3.925   5.718  0.4024  1.0516  0.5275
  668TIP3   OH2 1944   6.496   5.427   6.194  0.6880  0.4073 -0.1090
  668TIP3    H1 1945   6.509   5.365   6.266 -1.5777  0.4035  0.3616
  668TIP3    H2 1946   6.583   5.435   6.154  0.8925 -4.1396 -1.0980
  669TIP3   OH2 1947   7.981   2.971   2.122  0.2015  0.1792 -0.2842
  669TIP3    H1 1948   7.906   2.920   2.154  0.8997 -1.1120 -0.6405
  669TIP3    H2 1949   8.050   2.906   2.107  1.3056  1.3080 -0.2497
  670TIP3   OH2 1950   2.793   5.019   2.608  0.2389  0.3017  0.4400
  670TIP3    H1 1951   2.812   5.107   2.642  0.5011  0.3693  0.1278
  670TIP3    H2 1952   2.861   5.004   2.542 -0.6564  0.4595 -0.5501
  671TIP3   OH2 1953   7.254   5.163   1.398  0.4073  0.3351  0.3022
  671TIP3    H1 1954   7.201   5.150   1.477  0.4566 -0.2116  0.2543
  671TIP3    H2 1955   7.196   5.138   1.326  1.7653 -4.0657  0.4201
  672TIP3   OH2 1956   1.327   3.027   5.932 -0.1402  0.3846  0.3578
  672TIP3    H1 1957   1.302   2.952   5.878  2.5936 -0.0224 -0.4620
  672TIP3    H2 1958   1.274   3.018   6.011 -1.1824 -1.3752 -0.4720
  673TIP3   OH2 1959   3.992   2.904   1.994 -0.2262  0.0128 -0.9052
  673TIP3    H1 1960   4.023   2.840   1.929 -0.1740  0.9294 -1.8061
  673TIP3    H2 1961   3.927   2.856   2.045  1.6703 -1.5549  0.1857
  674TIP3   OH2 1962   2.633   3.557   4.674 -0.8393 -0.1337 -0.0887
  674TIP3    H1 1963   2.580   3.626   4.634  1.2177  1.4536 -0.2339
  674TIP3    H2 1964   2.599   3.551   4.764 -0.2286  2.0614  0.3510
  675TIP3   OH2 1965   6.030   1.163   0.351  0.0722 -0.2138 -0.2116
  675TIP3    H1 1966   6.078   1.122   0.279  0.6603  0.2925 -0.1235
  675TIP3    H2 1967   6.095   1.171   0.421  0.5817  2.6138 -0.8760
  676TIP3   OH2 1968   7.629   0.042   1.388 -0.1325  0.7484 -0.0323
  676TIP3    H1 1969   7.552   0.042   1.445 -0.6567 -0.2117 -0.7048
  676TIP3    H2 1970   7.699   0.079   1.441 -1.3123  2.7481  0.2327
  677TIP3   OH2 1971   6.712   6.109   2.946 -0.3548  0.0252 -0.2029
  677TIP3    H1 1972   6.723   6.059   2.865 -0.2634  0.2748 -0.3440
  677TIP3    H2 1973   6.796   6.152   2.960 -0.8010  1.1164 -0.7387
  678TIP3   OH2 1974   4.450   6.072   5.614 -0.1672  0.3921  0.0578
  678TIP3    H1 1975   4.428   6.046   5.704 -0.8895  0.2768 -0.1392
  678TIP3    H2 1976   4.442   5.991   5.564  0.9854  0.2982  0.0091
  679TIP3   OH2 1977   0.270   4.446   5.769  0.2627 -0.0855  0.2329
  679TIP3    H1 1978   0.277   4.522   5.711  0.0794 -0.4011 -0.2076
  679TIP3    H2 1979   0.180   4.450   5.803 -0.6648 -1.5377 -1.8281
  680TIP3   OH2 1980   1.491   0.546   5.140  0.2280 -0.1573  0.2641
  680TIP3    H1 1981   1.423   0.541   5.073  0.3089  0.0861  0.1630
  680TIP3    H2 1982   1.479   0.467   5.192  0.0403 -0.2509  0.0807
  681TIP3   OH2 1983   5.359   4.510   0.437  0.5666 -0.8801  0.0753
  681TIP3    H1 1984   5.404   4.467   0.510 -0.8928 -1.5686  0.6037
  681TIP3    H2 1985   5.370   4.449   0.364  1.3999 -0.5294 -0.1120
  682TIP3   OH2 1986   5.912   7.536   5.834  0.5226  0.1306  0.0839
  682TIP3    H1 1987   5.943   7.623   5.808  1.2532 -0.3025 -0.5265
  682TIP3    H2 1988   5.887   7.494   5.752 -1.5852  0.3845  0.5275
  683TIP3   OH2 1989   6.549   6.379   5.993  0.4779  0.1769  0.5402
  683TIP3    H1 1990   6.519   6.455   6.043 -2.5204 -0.2311 -0.4452
  683TIP3    H2 1991   6.469   6.332   5.970  2.1425 -2.8077  0.2925
  684TIP3   OH2 1992   3.578   6.911   1.265 -0.1082  0.1482  0.4364
  684TIP3    H1 1993   3.515   6.976   1.295  0.6813  0.8052  0.7328
  684TIP3    H2 1994   3.619   6.878   1.346  0.3526  0.1839  0.2227
  685TIP3   OH2 1995   6.119   1.453   6.585  0.0656  0.1603 -0.4121
  685TIP3    H1 1996   6.091   1.432   6.496 -0.2972  1.0178 -0.5154
  685TIP3    H2 1997   6.201   1.406   6.597 -1.1565 -2.0716 -0.2676
  686TIP3   OH2 1998   7.776   6.881   5.147  0.3000 -0.1730 -0.1236
  686TIP3    H1 1999   7.690   6.866   5.187  0.2381 -0.2263 -0.2718
  686TIP3    H2 2000   7.757   6.884   5.053  0.9386 -4.0668 -0.5774
  687TIP3   OH2 2001   2.526   0.671   1.388  0.2309  0.2240  0.0276
  687TIP3    H1 2002   2.530   0.685   1.482 -0.8046  2.4902 -0.2044
  687TIP3    H2 2003   2.432   0.676   1.367  0.3485 -1.2126 -1.0170
  688TIP3   OH2 2004   2.947   0.613   0.433 -0.1141 -0.5887  0.2673
  688TIP3    H1 2005   2.993   0.658   0.362  0.5085  0.3031  1.2130
  688TIP3    H2 2006   2.927   0.527   0.397 -0.5066  0.1007 -1.2598
  689TIP3   OH2 2007   5.042   4.626   1.954  0.3578 -0.0811 -0.0179
  689TIP3    H1 2008   4.981   4.663   2.017  0.8653 -0.1185  0.5038
  689TIP3    H2 2009   5.034   4.683   1.877  0.0385  0.2149  0.2306
  690TIP3   OH2 2010   7.314   7.034   5.829 -0.0204  0.4172 -0.0234
  690TIP3    H1 2011   7.346   7.096   5.895 -0.4585 -1.3123  1.9156
  690TIP3    H2 2012   7.229   7.070   5.802 -0.2117  0.7452  0.9734
  691TIP3   OH2 2013   2.889   3.152   5.354  0.8012 -0.1650 -0.3827
  691TIP3    H1 2014   2.916   3.062   5.334  0.8402  0.0122 -1.1341
  691TIP3    H2 2015   2.971   3.202   5.355  0.9460 -0.3721  1.3934
  692TIP3   OH2 2016   7.552   1.925   3.260 -0.3707 -0.0968 -0.1356
  692TIP3    H1 2017   7.526   1.853   3.317  0.0894  0.6980  1.1287
  692TIP3    H2 2018   7.591   1.883   3.184  0.1152 -1.1914  0.6845
  693TIP3   OH2 2019   4.131   0.754   1.303 -0.0384 -0.1966  0.9068
  693TIP3    H1 2020   4.209   0.733   1.354  0.1736 -0.7839  0.3536
  693TIP3    H2 2021   4.108   0.843   1.330  1.6353  0.5355  0.0759
  694TIP3   OH2 2022   2.262   7.373   6.601  0.0712  0.3992  0.1787
  694TIP3    H1 2023   2.250   7.278   6.597  0.2275  0.3282  1.0859
  694TIP3    H2 2024   2.209   7.400   6.676  0.5486  0.9371  0.3238
  695TIP3   OH2 2025   1.647   1.855   2.497 -0.0177  0.3863 -0.2794
  695TIP3    H1 2026   1.628   1.764   2.472  0.6751  0.2850 -0.4553
  695TIP3    H2 2027   1.578   1.906   2.456 -0.2772 -0.0345 -0.3769
  696TIP3   OH2 2028   5.378   1.770   6.364 -0.0231 -0.1380  0.4007
  696TIP3    H1 2029   5.396   1.815   6.282 -0.3155 -0.8102 -0.0382
  696TIP3    H2 2030   5.285   1.747   6.360 -0.1541  0.2197  1.1202
  697TIP3   OH2 2031   4.128   6.635   2.077  0.8819  0.0204  0.3488
  697TIP3    H1 2032   4.186   6.598   2.143  0.2276 -0.5146  0.6231
  697TIP3    H2 2033   4.095   6.560   2.028  1.2147  0.3922 -0.4766
  698TIP3   OH2 2034   6.676   6.482   5.188 -0.5429 -0.1060  0.3453
  698TIP3    H1 2035   6.585   6.487   5.159 -0.3896  1.8840  0.1145
  698TIP3    H2 2036   6.690   6.389   5.206 -2.6536 -0.4327  0.5211
  699TIP3   OH2 2037   1.809   7.862   5.801  0.0617 -0.4563  0.0859
  699TIP3    H1 2038   1.889   7.814   5.780  0.3507 -0.1706  0.5295
  699TIP3    H2 2039   1.838   7.938   5.850 -0.5390 -0.7592  0.9489
  700TIP3   OH2 2040   7.417   2.777   2.515 -0.0366  0.0848  0.0303
  700TIP3    H1 2041   7.369   2.859   2.498  0.2278  0.1693 -0.3017
  700TIP3    H2 2042   7.437   2.781   2.609  0.2677  0.5588 -0.0516
  701TIP3   OH2 2043   0.814   0.730   2.527 -0.5846 -0.3238  0.3528
  701TIP3    H1 2044   0.838   0.797   2.464 -3.1471  0.4277  0.1006
  701TIP3    H2 2045   0.883   0.664   2.519 -0.0458  0.4618 -2.1241
  702TIP3   OH2 2046   3.599   2.785   0.466  0.1060 -0.4399  0.3330
  702TIP3    H1 2047   3.528   2.842   0.494 -0.1033 -1.3165  1.7212
  702TIP3    H2 2048   3.557   2.701   0.447  0.4767 -0.3252 -1.1337
  703TIP3   OH2 2049   8.086   5.835   4.503 -0.3157 -0.1835  0.4512
  703TIP3    H1 2050   7.992   5.839   4.521 -0.3953  1.2089 -0.1987
  703TIP3    H2 2051   8.092   5.803   4.414 -0.2406  0.9755  0.0249
  704TIP3   OH2 2052   6.778   4.884   4.277 -0.0045 -0.3739 -0.0811
  704TIP3    H1 2053   6.780   4.932   4.359  0.9804 -0.9359  0.2348
  704TIP3    H2 2054   6.685   4.877   4.255 -0.1855  3.1479 -1.0245
  705TIP3   OH2 2055   7.071   5.758   3.368  0.5795  0.1363 -0.6445
  705TIP3    H1 2056   6.992   5.773   3.420  0.1036  0.2329 -1.3713
  705TIP3    H2 2057   7.060   5.670   3.331  0.9307  0.0496 -0.5500
  706TIP3   OH2 2058   0.502   2.430   6.420 -0.4523  0.0124  0.1820
  706TIP3    H1 2059   0.556   2.484   6.478  0.9285 -1.6317  0.5330
  706TIP3    H2 2060   0.519   2.464   6.332  0.9925 -0.2925  0.3156
  707TIP3   OH2 2061   2.336   1.395   3.787 -0.6766  0.0710 -0.2693
  707TIP3    H1 2062   2.382   1.384   3.704 -0.7974  2.1090 -0.6707
  707TIP3    H2 2063   2.405   1.401   3.853 -0.5439 -0.7220 -0.3356
  708TIP3   OH2 2064   3.602   7.829   0.176 -0.2530  0.3851  0.3838
  708TIP3    H1 2065   3.546   7.797   0.247  0.8790  0.5219  1.3722
  708TIP3    H2 2066   3.598   7.760   0.110 -0.9207  0.0106  0.7997
  709TIP3   OH2 2067   6.571   2.269   2.163  0.0114  0.3687  0.3358
  709TIP3    H1 2068   6.633   2.280   2.235  3.3729  2.3951 -2.5425
  709TIP3    H2 2069   6.542   2.357   2.143 -0.3223 -0.0653 -1.1893
  710TIP3   OH2 2070   2.799   7.908   2.073  0.4728  0.0012 -0.0036
  710TIP3    H1 2071   2.716   7.937   2.111  0.0968  0.8002 -1.3680
  710TIP3    H2 2072   2.776   7.833   2.018  0.7845 -0.2520  0.2051
  711TIP3   OH2 2073   7.612   3.865   4.292 -0.1562  0.1016 -0.1787
  711TIP3    H1 2074   7.581   3.943   4.244  1.9693  1.3815  0.4090
  711TIP3    H2 2075   7.563   3.866   4.374 -0.0535  0.9194 -0.1197
  712TIP3   OH2 2076   3.206   2.451   3.223 -0.4597  0.1706  0.0960
  712TIP3    H1 2077   3.183   2.391   3.152 -1.0019  1.3933 -0.8028
  712TIP3    H2 2078   3.293   2.423   3.250 -0.5970 -0.8647 -0.4624
  713TIP3   OH2 2079   4.204   5.101   1.819  0.4498 -0.0872  0.4265
  713TIP3    H1 2080   4.217   5.087   1.913  0.1674 -3.0768  0.1328
  713TIP3    H2 2081   4.203   5.013   1.782  0.1082  0.9812 -2.3494
  714TIP3   OH2 2082   4.397   7.799   5.698  0.2168  0.0533 -0.1598
  714TIP3    H1 2083   4.382   7.742   5.772  1.0810 -0.9587 -0.7335
  714TIP3    H2 2084   4.459   7.865   5.730 -0.3445  0.3366  0.3457
  715TIP3   OH2 2085   3.104   3.346   1.210 -0.2409 -0.0370  0.1846
  715TIP3    H1 2086   3.022   3.317   1.170 -1.1550  1.1588  1.1209
  715TIP3    H2 2087   3.164   3.357   1.136 -1.2978  0.2348 -0.6651
  716TIP3   OH2 2088   0.039   2.737   6.755 -0.0599 -0.0358  0.5464
  716TIP3    H1 2089   0.056   2.777   6.670  0.9492  1.1918  1.2814
  716TIP3    H2 2090   0.066   2.804   6.818 -0.1144 -1.1832  1.8303
  717TIP3   OH2 2091   6.462   5.439   1.773 -0.0201  0.2440 -0.2846
  717TIP3    H1 2092   6.536   5.421   1.832  0.9571  0.2735 -1.4505
  717TIP3    H2 2093   6.428   5.353   1.750 -0.1131  0.2124 -0.0240
  718TIP3   OH2 2094   4.504   3.525   2.567  0.0149 -0.1683  0.0801
  718TIP3    H1 2095   4.570   3.490   2.508 -0.1180 -1.0215  0.4222
  718TIP3    H2 2096   4.463   3.447   2.606  0.3119  0.3720  1.5283
  719TIP3   OH2 2097   6.480   6.907   3.365 -0.5380 -0.1943  0.2208
  719TIP3    H1 2098   6.483   6.814   3.388 -1.6886  0.2707  2.4937
  719TIP3    H2 2099   6.464   6.952   3.447 -0.6129  1.9998 -0.9158
  720TIP3   OH2 2100   1.213   4.673   3.788 -0.8145 -0.2156 -0.4272
  720TIP3    H1 2101   1.166   4.725   3.853  1.0870  1.3508 -0.2250
  720TIP3    H2 2102   1.246   4.598   3.837 -1.1045 -0.1052 -0.0575
  721TIP3   OH2 2103   3.469   7.346   0.829  0.9882  0.4215 -0.8742
  721TIP3    H1 2104   3.496   7.436   0.846 -2.1526  1.0037  2.1893
  721TIP3    H2 2105   3.506   7.295   0.902 -1.1003  0.2389  0.1525
  722TIP3   OH2 2106   6.625   1.344   0.505  0.3887 -0.0850  0.1593
  722TIP3    H1 2107   6.632   1.249   0.510  1.4996 -0.0451 -0.4142
  722TIP3    H2 2108   6.700   1.371   0.451 -0.8226  0.9743 -1.0768
  723TIP3   OH2 2109   3.018   1.128   4.885 -0.0125  0.1745 -0.1945
  723TIP3    H1 2110   3.020   1.160   4.795  1.0655  2.0040  0.4150
  723TIP3    H2 2111   2.993   1.205   4.937 -1.8418 -1.1369  0.9802
  724TIP3   OH2 2112   0.145   3.451   0.566  0.6319  0.3375  0.6455
  724TIP3    H1 2113   0.133   3.420   0.656  1.9044  0.6936  0.9551
  724TIP3    H2 2114   0.058   3.482   0.540  0.0320 -0.6145  1.4145
  725TIP3   OH2 2115   2.622   5.368   0.488  0.4871 -0.5793  0.0057
  725TIP3    H1 2116   2.556   5.414   0.540 -1.8036 -3.0984 -0.4348
  725TIP3    H2 2117   2.638   5.424   0.413 -0.2514  0.6456  0.7360
  726TIP3   OH2 2118   6.647   2.722   2.976 -1.0644 -0.4564  0.0796
  726TIP3    H1 2119   6.650   2.808   2.934 -0.9655 -0.4845  0.0289
  726TIP3    H2 2120   6.639   2.741   3.069  0.3320 -0.3761  0.1970
  727TIP3   OH2 2121   1.257   0.795   6.432 -0.6038 -0.0813  0.0225
  727TIP3    H1 2122   1.276   0.887   6.451 -1.8527  0.1415  0.2787
  727TIP3    H2 2123   1.243   0.755   6.518  1.8258 -0.9991  0.0731
  728TIP3   OH2 2124   4.282   1.201   0.636  0.2469 -0.7080 -0.3650
  728TIP3    H1 2125   4.289   1.254   0.715 -1.9934 -2.1817  0.9369
  728TIP3    H2 2126   4.350   1.134   0.647  1.3879  0.3498 -0.7903
  729TIP3   OH2 2127   2.102   6.264   5.490  0.3647  0.4180 -0.2513
  729TIP3    H1 2128   2.192   6.232   5.495  0.2632  0.2067  0.2241
  729TIP3    H2 2129   2.078   6.283   5.580  0.0948  0.9307 -0.4286
  730TIP3   OH2 2130   5.282   4.619   4.604  0.2185  0.5510  0.3909
  730TIP3    H1 2131   5.198   4.647   4.639  0.5022  0.3863  1.2199
  730TIP3    H2 2132   5.297   4.677   4.529 -0.6593  0.5324  0.1892
  731TIP3   OH2 2133   5.219   0.349   5.845  0.0912 -0.3335  0.4735
  731TIP3    H1 2134   5.176   0.269   5.817 -1.1815 -0.4034  2.4234
  731TIP3    H2 2135   5.291   0.320   5.902  0.4401 -0.1243  0.1424
  732TIP3   OH2 2136   0.815   2.319   5.146 -0.6316  0.2733  0.1094
  732TIP3    H1 2137   0.836   2.376   5.072  0.0482 -0.8162 -0.5642
  732TIP3    H2 2138   0.786   2.379   5.214 -1.4694  1.2932 -1.0915
  733TIP3   OH2 2139   8.009   4.351   5.957 -0.4920  0.2444  0.0168
  733TIP3    H1 2140   7.937   4.298   5.922 -1.7039  0.5399  1.8995
  733TIP3    H2 2141   8.078   4.288   5.976 -0.9473 -0.3093 -0.1273
  734TIP3   OH2 2142   4.183   5.907   0.008 -0.2094  0.0480  0.0089
  734TIP3    H1 2143   4.100   5.936   0.045 -0.2848  1.3473 -1.0947
  734TIP3    H2 2144   4.171   5.813  -0.006 -1.8133  0.3367 -0.8590
  735TIP3   OH2 2145   2.041   6.775   1.795  0.8430 -0.5142  0.5853
  735TIP3    H1 2146   2.016   6.714   1.726 -0.7658  1.2136 -0.4524
  735TIP3    H2 2147   1.963   6.785   1.848  1.2446  0.2349  1.0553
  736TIP3   OH2 2148   2.740   3.841   3.478  0.2780 -0.4108  0.1220
  736TIP3    H1 2149   2.734   3.771   3.413 -0.3728 -0.5314  0.3073
  736TIP3    H2 2150   2.691   3.914   3.440  0.1408 -0.3820  0.3507
  737TIP3   OH2 2151   4.737   2.988   5.308 -0.6027 -0.5056  0.4687
  737TIP3    H1 2152   4.666   2.925   5.321 -0.4548 -1.0652 -1.1640
  737TIP3    H2 2153   4.747   2.993   5.213 -1.1578  2.6547  0.4870
  738TIP3   OH2 2154   3.277   5.817   3.760  0.0091  0.1715  0.4997
  738TIP3    H1 2155   3.189   5.839   3.790 -0.1205 -1.5164  1.4644
  738TIP3    H2 2156   3.335   5.876   3.808 -0.4287 -0.4172  1.7838
  739TIP3   OH2 2157   6.896   5.425   0.906 -0.4809  0.2745  0.3571
  739TIP3    H1 2158   6.918   5.515   0.881  1.8335 -0.0970  0.9137
  739TIP3    H2 2159   6.960   5.402   0.973 -0.6078 -2.0117 -0.2431
  740TIP3   OH2 2160   1.212   0.456   4.236 -0.4600  0.4386 -0.2529
  740TIP3    H1 2161   1.249   0.537   4.272 -1.6138  0.4366  1.0121
  740TIP3    H2 2162   1.119   0.474   4.226 -0.8686 -0.9579  0.7608
  741TIP3   OH2 2163   4.699   3.304   6.529  0.0665  0.5166  0.4088
  741TIP3    H1 2164   4.739   3.272   6.448  1.6578 -0.1407  1.4048
  741TIP3    H2 2165   4.605   3.293   6.516  0.3752 -0.8878 -0.8095
  742TIP3   OH2 2166   7.255   7.183   4.575 -0.4245  0.6114 -0.1427
  742TIP3    H1 2167   7.280   7.091   4.584 -0.0535  0.6344 -0.9121
  742TIP3    H2 2168   7.294   7.211   4.493 -2.2520  0.8945 -0.9748
  743TIP3   OH2 2169   1.142   1.408   1.768 -0.2553  0.3247  0.8403
  743TIP3    H1 2170   1.133   1.496   1.804  0.8802  0.4779  0.7850
  743TIP3    H2 2171   1.236   1.396   1.758 -0.4647 -0.2675 -0.7073
  744TIP3   OH2 2172   7.651   3.984   6.818  0.4754 -0.2852  0.3392
  744TIP3    H1 2173   7.625   4.070   6.785 -0.2676  0.4880  2.7025
  744TIP3    H2 2174   7.743   3.975   6.794  0.1587  0.4717 -1.2602
  745TIP3   OH2 2175   7.365   3.261   1.058  0.4485 -0.2554  0.1641
  745TIP3    H1 2176   7.413   3.242   1.138  1.8299 -0.3150 -0.6422
  745TIP3    H2 2177   7.343   3.175   1.022  0.2817 -0.2316  0.2054
  746TIP3   OH2 2178   5.674   6.450   3.475  0.8885  0.5310 -0.7347
  746TIP3    H1 2179   5.658   6.356   3.487  1.1884  0.3953 -1.3514
  746TIP3    H2 2180   5.588   6.487   3.456 -0.1805  1.1833  3.9516
  747TIP3   OH2 2181   2.971   0.678   1.596 -0.3128 -0.1581  0.4504
  747TIP3    H1 2182   2.954   0.731   1.518 -0.6332  0.4587  0.9325
  747TIP3    H2 2183   2.984   0.742   1.666 -3.7619 -0.6709  1.7472
  748TIP3   OH2 2184   0.020   1.052   5.002  0.6756  0.2799 -0.1477
  748TIP3    H1 2185   0.074   1.048   5.081 -0.8106 -0.6115  0.8751
  748TIP3    H2 2186   0.042   0.972   4.954  0.4999  0.0693  0.1182
  749TIP3   OH2 2187   1.596   3.070   0.620  0.3707  0.2044  0.1950
  749TIP3    H1 2188   1.673   3.125   0.632  0.1991  0.8170 -1.3201
  749TIP3    H2 2189   1.535   3.124   0.569 -0.2975 -0.9308 -0.2486
  750TIP3   OH2 2190   5.923   3.899   0.895  0.1779  0.5574  0.7219
  750TIP3    H1 2191   5.904   3.943   0.978  0.2291  3.5517 -0.6954
  750TIP3    H2 2192   5.857   3.933   0.835 -0.2752 -2.0422 -0.3789
  751TIP3   OH2 2193   8.299   0.569   2.028  0.8499 -0.7872 -0.0185
  751TIP3    H1 2194   8.328   0.545   1.940 -1.3821  0.9932 -1.3515
  751TIP3    H2 2195   8.263   0.488   2.065 -1.4302 -0.8720 -2.1911
  752TIP3   OH2 2196   6.079   2.986   4.225 -0.7483 -0.6051 -0.2275
  752TIP3    H1 2197   6.074   3.079   4.204 -0.3625 -0.5333 -0.0059
  752TIP3    H2 2198   6.031   2.977   4.307  0.0531 -0.4265  0.2814
  753TIP3   OH2 2199   8.091   2.852   3.473  0.3762 -0.1636  0.3252
  753TIP3    H1 2200   8.172   2.888   3.437 -0.5990 -0.2573 -2.1643
  753TIP3    H2 2201   8.024   2.918   3.453 -0.4461 -0.8441  0.7729
  754TIP3   OH2 2202   3.177   5.098   3.962 -0.1768  0.4976  0.4061
  754TIP3    H1 2203   3.097   5.049   3.943  0.6050 -0.3539 -0.8035
  754TIP3    H2 2204   3.203   5.068   4.049  0.8863 -2.1521 -0.7404
  755TIP3   OH2 2205   0.873   3.523   3.502  0.3800  0.3191 -0.5799
  755TIP3    H1 2206   0.895   3.613   3.478 -1.5773  0.7584 -0.9240
  755TIP3    H2 2207   0.905   3.471   3.429  1.8574  0.6579 -0.2123
  756TIP3   OH2 2208   8.161   7.359   4.981 -0.5553  0.3146  0.1491
  756TIP3    H1 2209   8.089   7.308   5.018  0.7155 -1.0198  0.8726
  756TIP3    H2 2210   8.179   7.427   5.046 -2.2949  1.8396 -0.8462
  757TIP3   OH2 2211   5.402   3.523   5.848 -0.2701 -0.5644 -0.0173
  757TIP3    H1 2212   5.350   3.445   5.865 -0.0098 -0.7735 -0.1715
  757TIP3    H2 2213   5.418   3.561   5.934  0.1072 -1.0056  0.1086
  758TIP3   OH2 2214   1.964   5.173   0.000 -0.1129  0.4976 -0.2938
  758TIP3    H1 2215   2.002   5.131   0.078  2.3264  0.5045 -1.3942
  758TIP3    H2 2216   1.870   5.174   0.018 -0.1054 -3.1485  0.9069
  759TIP3   OH2 2217   0.947   0.751   2.966 -0.0006  0.1181  0.0364
  759TIP3    H1 2218   1.012   0.683   2.985 -0.9442 -0.2676  2.1415
  759TIP3    H2 2219   0.904   0.767   3.050 -2.2756  0.7354 -1.1742
  760TIP3   OH2 2220   7.901   3.796   3.880 -0.8164  0.3549 -0.3841
  760TIP3    H1 2221   7.926   3.847   3.957 -0.3653 -0.2328 -0.1337
  760TIP3    H2 2222   7.985   3.771   3.840 -1.0453  0.5797 -1.0179
  761TIP3   OH2 2223   2.565   0.534   0.621  0.3041 -0.0727  0.1708
  761TIP3    H1 2224   2.485   0.482   0.617 -1.0565  1.8626  0.7648
  761TIP3    H2 2225   2.583   0.559   0.531  0.0152 -0.1967  0.0797
  762TIP3   OH2 2226   6.193   7.124   6.237 -0.1166  0.4397 -0.5494
  762TIP3    H1 2227   6.110   7.168   6.258 -0.3902 -0.0546 -0.5592
  762TIP3    H2 2228   6.261   7.186   6.262 -0.4826  0.6543 -0.0692
  763TIP3   OH2 2229   7.524   5.076   2.869  0.5864  0.0883 -0.3825
  763TIP3    H1 2230   7.528   4.997   2.815 -1.0811  0.6399 -1.3912
  763TIP3    H2 2231   7.584   5.058   2.942  1.5137 -1.4158 -1.4458
  764TIP3   OH2 2232   2.386   0.240   5.188  0.4650 -0.2518 -0.0728
  764TIP3    H1 2233   2.293   0.253   5.172  0.6916  0.8419 -0.5787
  764TIP3    H2 2234   2.428   0.321   5.159  1.6963 -1.1322 -0.8838
  765TIP3   OH2 2235   1.632   2.566   3.352  0.3121 -0.0570  0.2989
  765TIP3    H1 2236   1.688   2.516   3.293  1.3643  2.3064 -0.8748
  765TIP3    H2 2237   1.641   2.657   3.322 -2.0524  0.7764  1.8096
  766TIP3   OH2 2238   6.712   7.699   2.693  0.4704  0.5536  0.0969
  766TIP3    H1 2239   6.705   7.616   2.646  1.2726  0.2106  0.5545
  766TIP3    H2 2240   6.625   7.738   2.687 -0.4066 -1.0870  1.3006
  767TIP3   OH2 2241   3.142   2.610   3.714  0.5315 -0.1048  0.1564
  767TIP3    H1 2242   3.165   2.526   3.754  2.6456  0.2868 -0.1095
  767TIP3    H2 2243   3.145   2.594   3.620  3.2459  0.7074  0.0096
  768TIP3   OH2 2244   1.664   1.522   2.134  0.0539  0.4142  0.1864
  768TIP3    H1 2245   1.577   1.537   2.172  0.9979  0.9069  2.3162
  768TIP3    H2 2246   1.680   1.429   2.148 -0.9435 -0.1722 -2.1591
  769TIP3   OH2 2247   1.182   3.294   2.843  0.8653 -0.2437 -0.1181
  769TIP3    H1 2248   1.253   3.355   2.865 -0.1623  0.5168  1.2524
  769TIP3    H2 2249   1.102   3.340   2.871 -0.2587 -0.7679 -2.2605
  770TIP3   OH2 2250   7.664   1.357   3.284  0.3957  0.0148 -0.0338
  770TIP3    H1 2251   7.682   1.381   3.193  0.9316 -1.2962 -0.3031
  770TIP3    H2 2252   7.710   1.274   3.296  0.3181  0.1631  1.4373
  771TIP3   OH2 2253   3.144   5.690   3.102  0.6327  0.4295 -0.4167
  771TIP3    H1 2254   3.212   5.624   3.094 -0.9294 -1.2465 -0.5506
  771TIP3    H2 2255   3.143   5.734   3.017 -0.2202 -1.3791 -1.3927
  772TIP3   OH2 2256   0.829   1.878   3.396  0.1769 -0.1573  0.4054
  772TIP3    H1 2257   0.791   1.901   3.311 -2.1574 -0.5593  1.2553
  772TIP3    H2 2258   0.808   1.785   3.407 -1.7855  0.4352  2.4181
  773TIP3   OH2 2259   1.739   2.195   6.104 -0.4765  0.4960 -0.0826
  773TIP3    H1 2260   1.691   2.123   6.062 -1.5861  1.5944 -0.7566
  773TIP3    H2 2261   1.800   2.151   6.163 -0.9227 -1.0105 -0.6836
  774TIP3   OH2 2262   3.464   4.416   1.504  0.0606  0.5210  0.7374
  774TIP3    H1 2263   3.454   4.511   1.506 -1.4528  0.4906 -1.4205
  774TIP3    H2 2264   3.374   4.382   1.506  0.5534 -0.8446  0.9832
  775TIP3   OH2 2265   5.635   6.799   2.199 -0.0655 -0.0520 -0.2403
  775TIP3    H1 2266   5.625   6.845   2.116  0.8205  1.3667  0.4037
  775TIP3    H2 2267   5.667   6.865   2.260  1.7134 -1.5997  0.6241
  776TIP3   OH2 2268   0.314   5.842   2.802  0.1125 -0.3193 -0.2562
  776TIP3    H1 2269   0.272   5.785   2.866  1.4944 -1.4794 -0.3233
  776TIP3    H2 2270   0.370   5.784   2.751 -0.3753  0.6965 -2.0463
  777TIP3   OH2 2271   3.605   1.936   2.318 -0.4648  0.0942 -0.2505
  777TIP3    H1 2272   3.518   1.936   2.279 -0.7511 -0.1598  0.3706
  777TIP3    H2 2273   3.621   2.028   2.341 -0.5841  0.1349 -0.3274
  778TIP3   OH2 2274   1.761   3.711   3.003 -0.1801  0.0327  0.1949
  778TIP3    H1 2275   1.689   3.752   2.955  1.1698  1.3577 -0.8323
  778TIP3    H2 2276   1.840   3.740   2.956  1.0562 -0.9095  1.5915
  779TIP3   OH2 2277   5.428   2.367   3.836  0.6988 -0.2888 -0.2253
  779TIP3    H1 2278   5.431   2.419   3.916 -0.3977  0.0944 -0.4095
  779TIP3    H2 2279   5.448   2.278   3.863  1.6129  0.0504  0.2568
  780TIP3   OH2 2280   6.388   3.312   3.123 -0.5168 -0.0131 -0.4727
  780TIP3    H1 2281   6.405   3.400   3.091  0.2031 -0.5111 -1.5154
  780TIP3    H2 2282   6.370   3.260   3.044  2.8920 -1.6354 -0.3511
  781TIP3   OH2 2283   7.600   5.157   4.197 -0.3921 -0.0937  0.0304
  781TIP3    H1 2284   7.657   5.206   4.255 -0.8074  0.0761  0.2976
  781TIP3    H2 2285   7.517   5.204   4.199 -0.4519 -0.1607 -0.5972
  782TIP3   OH2 2286   1.285   2.750   0.445 -0.5414 -0.4480 -0.4586
  782TIP3    H1 2287   1.352   2.817   0.433 -0.5065 -0.5241 -0.6913
  782TIP3    H2 2288   1.334   2.670   0.464 -0.4701 -0.9249 -2.4971
  783TIP3   OH2 2289   4.533   3.678   4.716 -0.0668 -0.0918 -0.4554
  783TIP3    H1 2290   4.536   3.638   4.629  1.8457  0.5046 -0.7082
  783TIP3    H2 2291   4.609   3.640   4.762 -1.2127 -0.6280  1.0785
  784TIP3   OH2 2292   7.612   6.261   2.997 -0.0546 -0.2851  0.6196
  784TIP3    H1 2293   7.644   6.172   3.009 -1.1109 -0.7455  0.2170
  784TIP3    H2 2294   7.545   6.272   3.065  1.1260  0.7586  1.6444
  785TIP3   OH2 2295   1.416   2.390   0.723 -0.2935 -0.2863  0.2315
  785TIP3    H1 2296   1.510   2.372   0.718 -0.2763 -0.8487  1.9496
  785TIP3    H2 2297   1.398   2.443   0.646  1.2972 -0.7539 -0.5058
  786TIP3   OH2 2298   7.462   0.556   0.770  0.2824 -0.4491 -0.2266
  786TIP3    H1 2299   7.468   0.643   0.729 -0.5996 -0.0008  0.5531
  786TIP3    H2 2300   7.370   0.547   0.793  0.2729 -1.8144 -0.7322
  787TIP3   OH2 2301   1.595   1.285   3.071 -0.5252 -0.0195 -0.3923
  787TIP3    H1 2302   1.680   1.301   3.030 -0.2133 -0.9066 -0.1305
  787TIP3    H2 2303   1.547   1.366   3.060  0.4671  0.6057 -0.2824
  788TIP3   OH2 2304   0.266   5.834   6.069  0.1912  0.0444 -0.1749
  788TIP3    H1 2305   0.231   5.865   5.986 -0.3182 -0.2919 -0.0913
  788TIP3    H2 2306   0.359   5.821   6.053  0.0795 -0.1173 -0.7239
  789TIP3   OH2 2307   3.637   3.877   6.290 -0.1121 -0.1268 -0.0560
  789TIP3    H1 2308   3.686   3.946   6.333 -1.4158  1.0512 -0.3737
  789TIP3    H2 2309   3.667   3.878   6.199 -0.2358  0.1402 -0.0955
  790TIP3   OH2 2310   1.622   5.373   5.013  0.2364 -0.0557  0.4366
  790TIP3    H1 2311   1.558   5.437   4.982 -0.3051 -0.2829  1.0638
  790TIP3    H2 2312   1.576   5.289   5.010  1.0612 -0.5102 -0.7612
  791TIP3   OH2 2313   4.602   5.267   1.583 -0.1770  0.7711  0.0482
  791TIP3    H1 2314   4.592   5.337   1.649  0.1543  0.1720  0.7503
  791TIP3    H2 2315   4.676   5.215   1.614 -2.1350 -1.5659  1.1209
  792TIP3   OH2 2316   4.819   3.388   6.194 -0.0649  0.3237  0.4762
  792TIP3    H1 2317   4.808   3.468   6.143  2.5646  0.3216 -0.2375
  792TIP3    H2 2318   4.839   3.320   6.129 -0.5637 -0.5693  1.2191
  793TIP3   OH2 2319   4.787   3.902   2.708  0.3250 -0.0047 -0.0174
  793TIP3    H1 2320   4.789   3.832   2.644 -0.8188 -1.1286  1.1243
  793TIP3    H2 2321   4.846   3.969   2.672  0.5525 -1.0414 -1.6788
  794TIP3   OH2 2322   7.711   5.130   5.767  0.2336  0.0434  0.4888
  794TIP3    H1 2323   7.630   5.109   5.720  0.1713  2.5789 -0.6551
  794TIP3    H2 2324   7.772   5.060   5.743 -0.6328 -0.1642 -1.1990
  795TIP3   OH2 2325   6.725   5.251   5.472 -0.6308 -0.3849 -0.4826
  795TIP3    H1 2326   6.722   5.231   5.378 -1.4348 -1.3297 -0.2690
  795TIP3    H2 2327   6.803   5.305   5.482 -0.3692 -0.5128 -1.6515
  796TIP3   OH2 2328   7.041   2.845   2.016  0.3048 -0.2432  0.1297
  796TIP3    H1 2329   7.010   2.772   1.962  0.2995  0.1032 -0.3396
  796TIP3    H2 2330   7.135   2.846   2.003  0.5040 -1.0783  1.2888
  797TIP3   OH2 2331   6.821   7.700   6.648 -0.9612 -0.0458  0.2625
  797TIP3    H1 2332   6.902   7.703   6.597 -0.2227 -0.7005  1.3506
  797TIP3    H2 2333   6.778   7.620   6.619 -0.1346 -0.8651  1.2240
  798TIP3   OH2 2334   0.913   5.155   6.375 -0.5179 -0.1718  0.0993
  798TIP3    H1 2335   0.837   5.204   6.406  0.7718  1.1752  1.3228
  798TIP3    H2 2336   0.979   5.222   6.359  0.3984 -1.2987 -1.0345
  799TIP3   OH2 2337   5.843   5.008   6.185 -0.1816 -0.0692  0.3510
  799TIP3    H1 2338   5.926   4.980   6.223 -0.5557 -1.3831  0.2162
  799TIP3    H2 2339   5.859   5.008   6.090 -0.1249  0.3968  0.3563
  800TIP3   OH2 2340   2.515   1.575   5.655 -0.5244 -0.1176  0.2924
  800TIP3    H1 2341   2.579   1.534   5.713 -0.3897  1.1784  1.0823
  800TIP3    H2 2342   2.546   1.553   5.567 -0.1053 -1.1553  0.6794
  801TIP3   OH2 2343   3.955   1.509   5.443  0.3310  0.1536  0.2445
  801TIP3    H1 2344   3.947   1.428   5.393 -1.8255  0.6322 -0.3084
  801TIP3    H2 2345   3.866   1.525   5.476  0.9865  1.6213  1.4378
  802TIP3   OH2 2346   0.028   0.815   6.498  0.5623 -0.2774  0.4356
  802TIP3    H1 2347   0.099   0.851   6.445 -1.3954  1.0290 -1.4592
  802TIP3    H2 2348   0.072   0.775   6.573  3.4035 -1.4473 -1.7059
  803TIP3   OH2 2349   7.616   7.573   2.349 -0.6222  0.7231  0.6285
  803TIP3    H1 2350   7.640   7.656   2.308  0.9222  0.5926  1.2155
  803TIP3    H2 2351   7.634   7.507   2.282  1.1160  0.5890  1.1886
  804TIP3   OH2 2352   5.479   1.635   2.764  0.3979 -0.4088  0.0857
  804TIP3    H1 2353   5.384   1.630   2.748  0.3764  1.2978 -0.5934
  804TIP3    H2 2354   5.488   1.700   2.834  1.0121 -1.4835  1.0215
  805TIP3   OH2 2355   0.952   1.898   6.366 -0.8606 -0.4336 -0.6238
  805TIP3    H1 2356   0.860   1.917   6.345 -0.7457  1.5644  0.4202
  805TIP3    H2 2357   0.947   1.840   6.442 -1.3157  0.6812  0.2389
  806TIP3   OH2 2358   2.394   4.243   6.124 -0.3367  0.6570 -0.2713
  806TIP3    H1 2359   2.468   4.185   6.106 -0.9737  0.2233 -1.5900
  806TIP3    H2 2360   2.396   4.255   6.219  1.1150  0.2482 -0.2213
  807TIP3   OH2 2361   6.376   7.387   4.526 -0.3454 -0.2495  0.0550
  807TIP3    H1 2362   6.290   7.385   4.567  0.0177 -3.2784  0.8589
  807TIP3    H2 2363   6.418   7.306   4.552  2.6471  0.9189 -0.6493
  808TIP3   OH2 2364   5.015   1.240   5.754  0.4248 -0.1612  0.0093
  808TIP3    H1 2365   5.068   1.161   5.742  0.2213 -0.3497  0.3491
  808TIP3    H2 2366   4.957   1.241   5.678  0.0628 -0.6296  0.2719
  809TIP3   OH2 2367   5.988   7.017   1.020 -0.8541 -0.0315  0.0483
  809TIP3    H1 2368   6.042   7.045   1.094 -1.1392 -3.3171  1.7106
  809TIP3    H2 2369   5.900   7.011   1.055 -1.6380  1.4113 -1.5275
  810TIP3   OH2 2370   4.143   1.736   0.280 -0.0798 -1.0379  0.2775
  810TIP3    H1 2371   4.103   1.652   0.257 -0.8872 -0.6561  0.2570
  810TIP3    H2 2372   4.195   1.718   0.358 -1.7249 -1.1780  1.3738
  811TIP3   OH2 2373   4.047   0.382   6.776 -0.4569  0.3588  0.0527
  811TIP3    H1 2374   3.973   0.438   6.800 -0.4111 -0.2399  1.7610
  811TIP3    H2 2375   4.117   0.442   6.752 -1.2349  0.9475 -0.8140
  812TIP3   OH2 2376   1.789   4.700   4.121 -0.1960 -0.0391 -0.0911
  812TIP3    H1 2377   1.698   4.729   4.119  0.0881  0.9703  0.8419
  812TIP3    H2 2378   1.799   4.647   4.042 -1.4126  0.3821 -0.5467
  813TIP3   OH2 2379   4.109   1.766   2.989  0.1398 -0.9113 -0.1814
  813TIP3    H1 2380   4.037   1.711   3.020 -1.1467  1.3028  1.0194
  813TIP3    H2 2381   4.179   1.753   3.053 -0.5807 -0.3177  0.7426
  814TIP3   OH2 2382   1.120   4.741   5.198  0.4669 -0.3256  0.2426
  814TIP3    H1 2383   1.058   4.681   5.240  0.8748 -0.3451  0.8280
  814TIP3    H2 2384   1.082   4.757   5.112  0.0154 -0.9068  0.3221
  815TIP3   OH2 2385   7.719   1.628   5.100 -0.6410 -0.1455 -0.3450
  815TIP3    H1 2386   7.769   1.605   5.178 -1.6948  0.0559  0.4048
  815TIP3    H2 2387   7.628   1.630   5.129 -0.9268  1.3196 -1.2573
  816TIP3   OH2 2388   6.328   7.213   5.262 -0.3864 -0.1553 -0.1131
  816TIP3    H1 2389   6.367   7.299   5.248 -2.2351  0.8179  0.4535
  816TIP3    H2 2390   6.234   7.227   5.251 -0.7693 -1.9824  0.5269
  817TIP3   OH2 2391   6.490   4.664   5.370 -0.0486 -0.4145  0.5834
  817TIP3    H1 2392   6.581   4.637   5.384  0.8702  1.7282 -0.8199
  817TIP3    H2 2393   6.439   4.585   5.389  1.9055 -1.2041  3.1606
  818TIP3   OH2 2394   4.476   6.622   0.856 -0.0067  0.2760 -0.1796
  818TIP3    H1 2395   4.505   6.532   0.870  2.6295  1.1801  0.7386
  818TIP3    H2 2396   4.552   6.666   0.820 -1.0493  2.3179 -0.0172
  819TIP3   OH2 2397   8.118   5.760   0.159 -0.3733  0.0916 -0.1283
  819TIP3    H1 2398   8.059   5.778   0.086 -1.2285  0.1937  0.5683
  819TIP3    H2 2399   8.085   5.678   0.196 -0.3004  0.3395  0.4893
  820TIP3   OH2 2400   0.124   6.171   3.250  0.4271 -0.1634 -0.0207
  820TIP3    H1 2401   0.083   6.086   3.266  1.9824 -0.8957  0.1593
  820TIP3    H2 2402   0.050   6.231   3.245 -0.6629 -1.3718  0.7184
  821TIP3   OH2 2403   5.133   5.077   4.458  0.0906 -0.5212 -0.1309
  821TIP3    H1 2404   5.102   5.156   4.503  1.5930 -0.4231  0.7704
  821TIP3    H2 2405   5.169   5.110   4.375 -1.2298 -0.5344 -0.7483
  822TIP3   OH2 2406   4.562   0.422   5.855 -0.3872 -0.3023  0.5219
  822TIP3    H1 2407   4.513   0.495   5.818  1.7702 -0.2117 -2.5613
  822TIP3    H2 2408   4.629   0.464   5.910 -0.1995 -0.0683  0.1153
  823TIP3   OH2 2409   3.216   3.339   4.322 -0.1949  0.2264  0.2163
  823TIP3    H1 2410   3.162   3.366   4.248  0.8972  0.9324 -0.3555
  823TIP3    H2 2411   3.302   3.321   4.283  0.7840  1.9641  1.4761
  824TIP3   OH2 2412   4.227   0.399   2.108  0.1281  0.3070 -0.4001
  824TIP3    H1 2413   4.292   0.470   2.107 -0.3814  0.8112  0.6572
  824TIP3    H2 2414   4.277   0.322   2.135  0.3838  0.6081  0.0178
  825TIP3   OH2 2415   4.034   4.418   3.674  0.4737 -0.0626 -0.3352
  825TIP3    H1 2416   3.944   4.400   3.648  0.6820 -0.3837 -0.8376
  825TIP3    H2 2417   4.044   4.375   3.759 -0.0264  0.4925  0.0224
  826TIP3   OH2 2418   5.426   7.107   2.067  0.5046  0.1771 -0.2050
  826TIP3    H1 2419   5.394   7.017   2.073 -0.7340  0.5685 -0.6747
  826TIP3    H2 2420   5.351   7.157   2.038  0.6393  1.6715  1.7883
  827TIP3   OH2 2421   2.934   2.675   5.504  0.3238 -0.0749 -0.0720
  827TIP3    H1 2422   3.022   2.676   5.467 -0.7401  0.3318 -2.9172
  827TIP3    H2 2423   2.915   2.767   5.525  0.4875 -0.1322  0.3350
  828TIP3   OH2 2424   2.097   0.115   2.930 -0.7707 -0.4579  0.7537
  828TIP3    H1 2425   2.176   0.110   2.984 -1.0423 -0.0932  1.1969
  828TIP3    H2 2426   2.074   0.208   2.930 -0.7413 -0.4447 -0.0491
  829TIP3   OH2 2427   0.146   4.364   6.336  0.7221  0.1021  0.1913
  829TIP3    H1 2428   0.076   4.336   6.394  0.9130  0.1760  0.4609
  829TIP3    H2 2429   0.177   4.447   6.374  2.2913 -0.9073  1.2487
  830TIP3   OH2 2430   3.387   4.180   0.092  0.1315 -0.5130 -0.3128
  830TIP3    H1 2431   3.419   4.219   0.173  0.0082 -2.5668  0.8044
  830TIP3    H2 2432   3.466   4.145   0.050 -0.1005 -2.3279  0.6203
  831TIP3   OH2 2433   1.511   2.900   6.627  0.3076  0.3494  0.4892
  831TIP3    H1 2434   1.499   2.819   6.578 -0.0609  0.4322  0.4397
  831TIP3    H2 2435   1.582   2.881   6.688 -0.5150 -0.3728  1.2536
  832TIP3   OH2 2436   3.164   2.757   0.606 -0.2058 -0.3699 -0.1825
  832TIP3    H1 2437   3.148   2.720   0.519 -1.5781  1.6446 -0.8595
  832TIP3    H2 2438   3.241   2.710   0.638  1.9547  0.4845 -3.5338
  833TIP3   OH2 2439   5.055   3.399   6.615  0.1742  0.2549  0.0434
  833TIP3    H1 2440   5.066   3.304   6.623  0.8772  0.1277 -1.8136
  833TIP3    H2 2441   5.059   3.415   6.521  0.2755  2.1592  0.3391
  834TIP3   OH2 2442   3.638   0.131   1.326 -0.2988  0.3523 -0.1049
  834TIP3    H1 2443   3.713   0.103   1.377 -1.1178  0.5305  1.2438
  834TIP3    H2 2444   3.594   0.049   1.300  0.7014  0.2169 -1.4962
  835TIP3   OH2 2445   5.956   4.263   4.024  0.1909 -0.2201 -0.1890
  835TIP3    H1 2446   5.952   4.287   3.931 -1.2168 -1.4204 -0.4756
  835TIP3    H2 2447   5.880   4.305   4.063 -0.1353 -1.0305  0.0756
  836TIP3   OH2 2448   6.719   4.596   2.181  0.2671  0.3623 -0.5944
  836TIP3    H1 2449   6.640   4.647   2.161  0.9362  1.7518  0.1633
  836TIP3    H2 2450   6.711   4.518   2.127 -4.0398 -2.0252  2.7186
  837TIP3   OH2 2451   6.495   6.545  -0.017 -0.2877 -0.1269 -1.0252
  837TIP3    H1 2452   6.428   6.603  -0.054 -0.5648 -0.6226 -1.3158
  837TIP3    H2 2453   6.481   6.550   0.077 -0.3693  0.2076 -1.0533
  838TIP3   OH2 2454   3.217   6.210   1.774 -0.2859  0.7614  0.1175
  838TIP3    H1 2455   3.277   6.137   1.787  2.0362  2.4639 -0.4852
  838TIP3    H2 2456   3.135   6.169   1.746  1.1516 -1.5890 -0.9458
  839TIP3   OH2 2457   7.725   2.828   4.454  0.4988 -0.1478 -0.0508
  839TIP3    H1 2458   7.730   2.732   4.459  1.8330 -0.0730  0.7234
  839TIP3    H2 2459   7.752   2.857   4.541  3.2560  0.9727 -1.1586
  840TIP3   OH2 2460   4.462   1.409   0.622  0.4827  0.2044  0.2549
  840TIP3    H1 2461   4.420   1.466   0.687  2.0773  0.2128  1.3230
  840TIP3    H2 2462   4.404   1.334   0.615 -0.4200  0.8474  0.6215
  841TIP3   OH2 2463   4.253   4.176   3.242  0.2028 -0.0896 -0.5688
  841TIP3    H1 2464   4.334   4.219   3.271  0.4706  0.4793 -2.0593
  841TIP3    H2 2465   4.282   4.094   3.202 -0.1643 -0.8867  0.7375
  842TIP3   OH2 2466   3.669   7.348   4.781 -0.1878 -0.4035  0.3666
  842TIP3    H1 2467   3.675   7.391   4.867 -0.0002 -0.5956  0.4545
  842TIP3    H2 2468   3.710   7.409   4.720 -0.8873  0.0044  0.3082
  843TIP3   OH2 2469   2.177   4.331   2.917  0.0619  0.2003 -0.4286
  843TIP3    H1 2470   2.176   4.239   2.944  0.1599  0.1480 -0.6061
  843TIP3    H2 2471   2.154   4.329   2.825 -1.3512  0.4642 -0.1042
  844TIP3   OH2 2472   6.904   3.017   0.083 -0.1708 -0.3292 -0.1736
  844TIP3    H1 2473   6.848   3.004   0.006  2.4179 -2.7840 -1.8277
  844TIP3    H2 2474   6.881   2.947   0.143 -0.4176  0.0219  0.1431
  845TIP3   OH2 2475   0.420   5.724   1.047 -0.1515 -0.2298  1.1041
  845TIP3    H1 2476   0.454   5.701   0.961 -0.8928 -0.7141  0.9290
  845TIP3    H2 2477   0.365   5.801   1.031  0.9923  0.6920  1.4215
  846TIP3   OH2 2478   2.584   0.099   5.760  0.2860 -0.4750 -0.2677
  846TIP3    H1 2479   2.510   0.149   5.794  0.9326  0.1824  0.1828
  846TIP3    H2 2480   2.630   0.159   5.702 -0.2041 -1.2552 -1.5093
  847TIP3   OH2 2481   1.976   3.473   4.775 -0.5981 -0.0509 -0.4410
  847TIP3    H1 2482   1.959   3.443   4.685 -1.4106 -0.8504 -0.0366
  847TIP3    H2 2483   1.896   3.519   4.800  0.8766  3.3056 -1.3150
  848TIP3   OH2 2484   1.535   0.775   6.251 -0.1730 -0.6647 -0.1380
  848TIP3    H1 2485   1.482   0.795   6.174 -0.2827  2.0233  0.5563
  848TIP3    H2 2486   1.473   0.767   6.323  0.2254  2.4635  0.6722
  849TIP3   OH2 2487   7.679   2.553   4.423  0.2182  0.3719  0.5098
  849TIP3    H1 2488   7.641   2.541   4.510  1.0506  4.0926  1.5660
  849TIP3    H2 2489   7.765   2.510   4.429 -0.4158 -0.9013  0.8902
  850TIP3   OH2 2490   7.000   2.165   5.623 -0.6186 -0.1253 -0.2600
  850TIP3    H1 2491   6.969   2.080   5.655 -1.8477  1.1850  2.3040
  850TIP3    H2 2492   6.926   2.201   5.574 -0.3168 -0.2382 -0.8129
  851TIP3   OH2 2493   0.457   6.353   4.332  0.4946  0.5686  0.0895
  851TIP3    H1 2494   0.522   6.321   4.395 -0.8350 -1.9644  0.2867
  851TIP3    H2 2495   0.413   6.425   4.378  0.4417 -0.3750  1.5863
  852TIP3   OH2 2496   0.231   0.478   1.386  0.7634 -0.5903  0.3936
  852TIP3    H1 2497   0.308   0.507   1.338  1.4160 -2.1727  0.4365
  852TIP3    H2 2498   0.227   0.536   1.462  1.3147  0.1545 -0.1316
  853TIP3   OH2 2499   6.401   1.418   0.931 -0.2571  0.2987  0.5400
  853TIP3    H1 2500   6.344   1.356   0.887 -2.0671  0.7969  2.0858
  853TIP3    H2 2501   6.401   1.495   0.874  0.2635 -0.2981 -0.2932
  854TIP3   OH2 2502   4.049   5.529   0.503  0.6665  0.5433 -0.3489
  854TIP3    H1 2503   4.069   5.622   0.514 -0.5532  0.8110 -0.2635
  854TIP3    H2 2504   3.979   5.512   0.566  0.1936 -0.1879 -1.0563
  855TIP3   OH2 2505   4.786   5.202   6.084 -0.0326 -0.2584  0.3313
  855TIP3    H1 2506   4.786   5.254   6.164  2.4766 -1.0147  0.9298
  855TIP3    H2 2507   4.710   5.145   6.092 -1.1968  1.3112  0.9866
  856TIP3   OH2 2508   4.058   0.759   1.877 -0.3787 -0.1586  0.3613
  856TIP3    H1 2509   4.030   0.668   1.874  1.0542 -0.6194 -1.5827
  856TIP3    H2 2510   4.153   0.755   1.866 -0.4067  1.5929 -0.9939
  857TIP3   OH2 2511   8.269   2.184   5.659  0.0812 -0.2594  1.0468
  857TIP3    H1 2512   8.190   2.180   5.605  1.2514  1.7955 -0.9501
  857TIP3    H2 2513   8.313   2.101   5.644  0.5494  0.3765 -1.5666
  858TIP3   OH2 2514   7.069   2.775   2.622  0.2207  0.7041 -0.2972
  858TIP3    H1 2515   7.154   2.789   2.663  0.4636 -2.3812  0.4479
  858TIP3    H2 2516   7.006   2.793   2.692  0.3599  0.8647 -0.2123
  859TIP3   OH2 2517   0.964   3.398   3.296  0.2372 -0.2137  0.5124
  859TIP3    H1 2518   1.005   3.320   3.333 -1.5687 -1.9020 -0.8632
  859TIP3    H2 2519   0.972   3.387   3.201  0.5315  1.6271  0.2942
  860TIP3   OH2 2520   0.901   5.563   5.861 -0.4920  0.0575  0.1934
  860TIP3    H1 2521   0.897   5.468   5.850 -1.1736 -0.0753  1.4257
  860TIP3    H2 2522   0.862   5.598   5.781  0.5990 -0.6610 -0.6762
  861TIP3   OH2 2523   7.326   2.739   5.206 -0.1680 -0.5480  0.0368
  861TIP3    H1 2524   7.291   2.718   5.293  0.5797  0.2320  0.5387
  861TIP3    H2 2525   7.370   2.659   5.178  0.5437 -0.4645  0.8674
  862TIP3   OH2 2526   5.303   1.876   2.006  0.0023  0.5123 -0.0572
  862TIP3    H1 2527   5.348   1.853   2.087  0.5136 -0.2223 -0.5402
  862TIP3    H2 2528   5.362   1.848   1.937 -2.2273 -2.8974 -0.7885
  863TIP3   OH2 2529   2.833   2.340   0.069  0.3835 -0.0410  0.1205
  863TIP3    H1 2530   2.863   2.429   0.048  1.1462 -0.7517 -2.0896
  863TIP3    H2 2531   2.777   2.316  -0.004  0.6501 -1.6013  0.4013
  864TIP3   OH2 2532   6.606   7.806   5.189 -0.3397  0.0628 -0.6254
  864TIP3    H1 2533   6.617   7.713   5.169  0.8162 -0.6428  2.5360
  864TIP3    H2 2534   6.532   7.809   5.250 -0.0187  1.1143 -0.2534
  865TIP3   OH2 2535   3.672   0.510   5.184 -0.3074 -0.0782  0.2480
  865TIP3    H1 2536   3.723   0.544   5.257  0.3448 -0.0591 -0.2075
  865TIP3    H2 2537   3.694   0.417   5.179  1.1844  0.2914 -1.1131
  866TIP3   OH2 2538   3.561   1.776   0.425 -0.2147  0.0398 -0.1709
  866TIP3    H1 2539   3.624   1.815   0.365 -0.0657 -2.3187 -1.6865
  866TIP3    H2 2540   3.599   1.788   0.511  1.2434  0.5717 -0.8557
  867TIP3   OH2 2541   0.860   4.722   0.077  0.9598  0.4171 -0.1067
  867TIP3    H1 2542   0.882   4.738  -0.015  0.3691 -1.0371 -0.5309
  867TIP3    H2 2543   0.765   4.710   0.077  0.9983  0.0410  0.6364
  868TIP3   OH2 2544   3.943   4.406   6.506 -0.7963 -0.2875 -0.3954
  868TIP3    H1 2545   3.915   4.496   6.524  1.0729  0.1765  0.4586
  868TIP3    H2 2546   3.952   4.403   6.411  0.8370  1.0389 -0.3427
  869TIP3   OH2 2547   1.926   7.380   1.937  0.8605 -0.5759 -0.0908
  869TIP3    H1 2548   1.838   7.400   1.969  0.6225  0.4894 -1.3146
  869TIP3    H2 2549   1.983   7.394   2.013  0.2413  1.2049  0.0931
  870TIP3   OH2 2550   7.532   7.015   0.489  0.2134  0.3537  0.1825
  870TIP3    H1 2551   7.532   7.054   0.402  1.3378  2.0039  0.8800
  870TIP3    H2 2552   7.503   7.084   0.547 -0.1464 -0.6075  1.1809
  871TIP3   OH2 2553   3.671   4.467   1.679  1.1849  0.5177  0.0437
  871TIP3    H1 2554   3.641   4.512   1.758  1.2785 -0.1377  0.4638
  871TIP3    H2 2555   3.592   4.456   1.626  0.7693 -0.6304  0.8569
  872TIP3   OH2 2556   1.867   0.666   2.742  0.4534 -0.0398 -0.3698
  872TIP3    H1 2557   1.957   0.636   2.749  0.2096 -0.5139  1.1499
  872TIP3    H2 2558   1.868   0.754   2.781  0.8059  1.2689 -3.1132
  873TIP3   OH2 2559   3.241   0.303   6.158 -0.7404  0.0565 -0.2840
  873TIP3    H1 2560   3.267   0.317   6.249  0.3898 -3.2222  0.0404
  873TIP3    H2 2561   3.147   0.288   6.162 -0.3736 -2.4419  0.8097
  874TIP3   OH2 2562   2.782   6.726   1.570  0.1833  0.3453 -0.1485
  874TIP3    H1 2563   2.714   6.717   1.503  0.2216 -0.0454 -0.1368
  874TIP3    H2 2564   2.804   6.819   1.570 -1.6113  0.8245  1.0798
  875TIP3   OH2 2565   3.330   2.612   0.737 -0.2258  0.2509 -0.0850
  875TIP3    H1 2566   3.414   2.569   0.721  0.4682  0.6622  2.1390
  875TIP3    H2 2567   3.306   2.586   0.826 -1.5824  1.5887 -0.0180
  876TIP3   OH2 2568   3.904   7.221   2.940 -0.1184  0.4292  0.5059
  876TIP3    H1 2569   3.828   7.173   2.909  0.0027 -0.0570  0.9503
  876TIP3    H2 2570   3.906   7.206   3.035  0.0414  1.1373  0.6201
  877TIP3   OH2 2571   0.463   5.113   6.618  0.0398 -0.4319 -0.2820
  877TIP3    H1 2572   0.450   5.173   6.691 -1.1659 -0.6742 -0.2786
  877TIP3    H2 2573   0.407   5.147   6.548  2.5639  0.8710 -1.8023
  878TIP3   OH2 2574   0.131   7.560   4.938  0.3122 -0.0541 -0.5096
  878TIP3    H1 2575   0.083   7.594   4.862  0.0006 -0.8998 -0.7067
  878TIP3    H2 2576   0.119   7.626   5.006 -0.6561  0.0204 -0.7388
  879TIP3   OH2 2577   6.881   6.079   2.526 -0.2754  0.1083 -0.0095
  879TIP3    H1 2578   6.840   6.165   2.537  0.0684  0.2623  0.0973
  879TIP3    H2 2579   6.972   6.099   2.502 -0.4651 -0.2228 -1.0595
  880TIP3   OH2 2580   0.570   3.068   6.071  0.3108 -0.2423 -0.0854
  880TIP3    H1 2581   0.537   3.158   6.066 -0.3689 -0.5501 -2.0056
  880TIP3    H2 2582   0.628   3.068   6.148 -1.1027  1.3278  1.0604
  881TIP3   OH2 2583   4.954   4.837   3.035 -0.0073  0.2606 -0.1303
  881TIP3    H1 2584   4.964   4.926   3.070  1.0034 -0.4917  1.6771
  881TIP3    H2 2585   5.040   4.817   2.997  0.6056 -0.7413  1.6307
  882TIP3   OH2 2586   2.400   4.631   0.773 -0.2897 -0.1672 -0.0827
  882TIP3    H1 2587   2.416   4.595   0.861  2.0613  0.8222 -0.0313
  882TIP3    H2 2588   2.424   4.560   0.714 -0.7211 -0.4302  0.0520
  883TIP3   OH2 2589   4.340   3.385   1.682 -0.7405  0.5254 -0.2873
  883TIP3    H1 2590   4.424   3.351   1.652  0.1674 -0.7757  3.2062
  883TIP3    H2 2591   4.276   3.320   1.653  0.0368 -0.5210  0.2677
  884TIP3   OH2 2592   2.385   4.540   1.614 -0.1166  0.0900 -0.3300
  884TIP3    H1 2593   2.447   4.523   1.684  1.7989  0.0986 -1.9332
  884TIP3    H2 2594   2.433   4.594   1.551 -1.6397 -0.1508 -1.7918
  885TIP3   OH2 2595   2.668   7.907   5.560 -0.4876 -0.0149  0.6423
  885TIP3    H1 2596   2.762   7.903   5.546 -0.3433 -0.9275  1.7261
  885TIP3    H2 2597   2.657   7.965   5.635 -0.7103 -0.6393  1.0991
  886TIP3   OH2 2598   6.224   3.639   1.883  0.1247  0.2614  0.1176
  886TIP3    H1 2599   6.146   3.636   1.938  0.7175  0.5670  0.9942
  886TIP3    H2 2600   6.292   3.674   1.940  1.2087 -1.1429 -0.2547
  887TIP3   OH2 2601   2.949   4.202   5.396 -0.3510 -0.2369  0.1141
  887TIP3    H1 2602   3.002   4.217   5.474 -1.3086 -0.5206  0.8333
  887TIP3    H2 2603   3.013   4.187   5.327  0.5134 -0.1506  0.8711
  888TIP3   OH2 2604   1.620   1.795   0.948  0.3763  0.6804 -0.2527
  888TIP3    H1 2605   1.559   1.855   0.990 -0.2837  0.9763 -1.5780
  888TIP3    H2 2606   1.602   1.709   0.987  0.7975  1.1831  1.0924
  889TIP3   OH2 2607   0.055   4.642   5.156  0.0256  0.5772  0.1850
  889TIP3    H1 2608   0.124   4.581   5.181  0.2335  1.6944  2.6887
  889TIP3    H2 2609   0.006   4.656   5.237 -1.8191  1.4580 -1.0323
  890TIP3   OH2 2610   6.324   6.533   4.594  0.6691  0.7156  0.0691
  890TIP3    H1 2611   6.379   6.608   4.615  1.3267  0.3893 -0.4439
  890TIP3    H2 2612   6.254   6.536   4.658  0.6961  1.7582  0.0744
  891TIP3   OH2 2613   3.677   3.510   6.146  0.3972 -0.2673 -0.0701
  891TIP3    H1 2614   3.726   3.428   6.147 -0.7153 -0.9509  0.7969
  891TIP3    H2 2615   3.593   3.489   6.186 -0.0362  1.2343 -0.1016
  892TIP3   OH2 2616   6.153   2.759   6.278 -0.1484  0.5405 -0.0002
  892TIP3    H1 2617   6.180   2.717   6.196  3.4786 -1.9306  2.1737
  892TIP3    H2 2618   6.194   2.846   6.274 -1.0481  0.9475 -1.2186
  893TIP3   OH2 2619   7.934   7.824   0.908  0.2660 -0.0559  0.1232
  893TIP3    H1 2620   7.883   7.744   0.921 -1.3533  0.7705 -0.7832
  893TIP3    H2 2621   7.990   7.829   0.985 -1.7559 -0.5159  1.7179
  894TIP3   OH2 2622   6.608   2.844   3.222  0.9043 -0.4010  0.1105
  894TIP3    H1 2623   6.686   2.893   3.246  0.9971 -0.6458  0.3023
  894TIP3    H2 2624   6.559   2.835   3.304  0.2826  0.4459 -0.1435
  895TIP3   OH2 2625   8.005   6.123   5.608 -0.7260 -0.2204 -0.0021
  895TIP3    H1 2626   7.912   6.130   5.587 -0.9371  0.6164  1.0782
  895TIP3    H2 2627   8.050   6.133   5.525 -1.4670  3.5642 -0.1286
  896TIP3   OH2 2628   7.948   0.737   1.169 -0.2315  0.3647  0.1811
  896TIP3    H1 2629   7.990   0.803   1.225 -2.2006  2.0872 -0.2236
  896TIP3    H2 2630   7.888   0.691   1.227  0.8964 -0.9011  0.3864
  897TIP3   OH2 2631   1.731   1.865   3.705  0.2484 -0.3024  0.1145
  897TIP3    H1 2632   1.710   1.837   3.794 -1.4018  0.6220  0.0469
  897TIP3    H2 2633   1.662   1.827   3.650 -1.0422  2.3034 -0.2077
  898TIP3   OH2 2634   6.165   2.170   5.045 -0.5869 -0.0166 -0.0709
  898TIP3    H1 2635   6.074   2.176   5.074 -0.4001  1.8531  0.2595
  898TIP3    H2 2636   6.180   2.251   4.996  0.8633 -0.3431 -0.2101
  899TIP3   OH2 2637   2.417   3.772   2.623  0.1191 -0.1832  0.0155
  899TIP3    H1 2638   2.397   3.708   2.691  1.0405 -0.1788  0.3088
  899TIP3    H2 2639   2.376   3.737   2.544  2.3227 -2.2586 -0.3401
  900TIP3   OH2 2640   3.840   7.281   4.429 -0.2470 -0.1275 -0.0446
  900TIP3    H1 2641   3.838   7.376   4.443  1.0837 -0.0357 -0.3231
  900TIP3    H2 2642   3.799   7.268   4.344  0.1056  0.2701 -0.2816
  901TIP3   OH2 2643   1.765   4.443   4.839  0.5312  0.0454  0.4030
  901TIP3    H1 2644   1.806   4.529   4.851  2.7960 -0.7771 -0.8357
  901TIP3    H2 2645   1.839   4.383   4.828 -1.0110 -1.5408 -2.0475
  902TIP3   OH2 2646   2.945   7.909   4.414  0.0295 -0.0802  0.7220
  902TIP3    H1 2647   2.952   7.827   4.463 -3.0552 -0.0790  1.3434
  902TIP3    H2 2648   2.892   7.888   4.338 -0.7448  1.3185  0.8413
  903TIP3   OH2 2649   0.462   7.886   6.469  0.0347 -0.5807  0.8244
  903TIP3    H1 2650   0.495   7.803   6.503  1.4159 -0.4934 -0.2398
  903TIP3    H2 2651   0.526   7.913   6.404 -1.2102  0.5428  0.0072
  904TIP3   OH2 2652   0.004   3.234   2.106 -0.5580 -0.0675 -0.2606
  904TIP3    H1 2653  -0.030   3.212   2.192 -1.4313  1.4014 -0.2013
  904TIP3    H2 2654   0.097   3.253   2.121 -0.9606  1.4011  0.6201
  905TIP3   OH2 2655   8.316   0.664   2.839 -0.5575 -0.6002  0.2230
  905TIP3    H1 2656   8.403   0.655   2.802 -1.0588 -0.3191 -1.0730
  905TIP3    H2 2657   8.310   0.755   2.866 -0.8310 -0.3382 -0.7071
  906TIP3   OH2 2658   7.805   3.767   0.328 -0.0343  0.0498  0.3073
  906TIP3    H1 2659   7.837   3.736   0.413 -0.1055  0.3732  0.4542
  906TIP3    H2 2660   7.885   3.787   0.279  0.0080 -0.1588  0.2883
  907TIP3   OH2 2661   1.756   1.168   1.776  0.6443  0.3642 -0.6799
  907TIP3    H1 2662   1.802   1.245   1.744 -1.1043  0.8227 -2.2302
  907TIP3    H2 2663   1.670   1.200   1.801  0.1425 -0.9723 -0.6081
  908TIP3   OH2 2664   7.264   6.585   1.557  0.0045  0.4385 -0.5166
  908TIP3    H1 2665   7.344   6.614   1.603  0.0564 -0.8690  0.2530
  908TIP3    H2 2666   7.285   6.498   1.525  0.1640  1.5212 -3.6237
  909TIP3   OH2 2667   4.959   0.154   1.719  0.8713 -0.0402 -0.2153
  909TIP3    H1 2668   4.865   0.140   1.708  1.2062 -2.0401 -0.9327
  909TIP3    H2 2669   4.965   0.229   1.778 -1.1810 -0.2788  0.3792
  910TIP3   OH2 2670   5.739   6.759   6.120 -0.4859 -0.0599  0.0210
  910TIP3    H1 2671   5.825   6.801   6.128 -0.8078  0.8244 -0.9474
  910TIP3    H2 2672   5.677   6.826   6.149 -0.9524 -0.1555 -0.7334
  911TIP3   OH2 2673   5.956   2.828   4.672  0.1315  0.1536 -0.1921
  911TIP3    H1 2674   5.979   2.787   4.588 -0.1399  0.6956 -0.5384
  911TIP3    H2 2675   5.938   2.919   4.650  0.7613  0.4752  0.5779
  912TIP3   OH2 2676   5.399   6.002   6.293  0.0505  0.4794 -0.3488
  912TIP3    H1 2677   5.369   5.995   6.383 -1.5677  2.9175 -0.6203
  912TIP3    H2 2678   5.485   6.044   6.299 -0.0111  0.5428  0.0624
  913TIP3   OH2 2679   1.627   5.208   3.594 -0.8502 -0.5324  0.1936
  913TIP3    H1 2680   1.619   5.115   3.616 -0.7276 -0.1907  1.8772
  913TIP3    H2 2681   1.542   5.245   3.618 -1.5566 -0.4927 -2.2120
  914TIP3   OH2 2682   6.501   0.755   5.077  0.0349  0.3414 -0.0510
  914TIP3    H1 2683   6.586   0.712   5.072 -0.4740 -0.8639  1.2026
  914TIP3    H2 2684   6.509   0.829   5.017  2.0460  0.4133  0.2185
  915TIP3   OH2 2685   7.910   4.488   6.335 -0.2229  0.1168 -0.0703
  915TIP3    H1 2686   7.990   4.510   6.384  0.4813  0.0048 -1.1404
  915TIP3    H2 2687   7.839   4.504   6.397  0.4414  2.4893  0.1902
  916TIP3   OH2 2688   7.768   3.304   4.752  0.1463  0.3167  0.2831
  916TIP3    H1 2689   7.822   3.377   4.724  2.5450 -1.3155  0.4043
  916TIP3    H2 2690   7.827   3.245   4.799 -1.6075 -1.8177  0.0245
  917TIP3   OH2 2691   1.020   6.658   1.861 -0.2234 -0.4015 -0.2169
  917TIP3    H1 2692   0.929   6.636   1.840 -0.9625  0.0042  2.1691
  917TIP3    H2 2693   1.069   6.579   1.839 -1.2559 -0.8753 -0.9160
  918TIP3   OH2 2694   3.945   7.278   3.280 -0.0897 -0.1430 -0.1017
  918TIP3    H1 2695   3.945   7.182   3.272 -0.8610 -0.0536 -1.4653
  918TIP3    H2 2696   4.020   7.306   3.227 -1.1479  0.0873 -1.5606
  919TIP3   OH2 2697   2.352   6.937   3.584 -0.5816 -0.1443 -0.2499
  919TIP3    H1 2698   2.399   7.007   3.628 -0.1550  0.4315 -1.5823
  919TIP3    H2 2699   2.297   6.898   3.653  0.6672  0.1713  0.9598
  920TIP3   OH2 2700   3.827   7.352   5.833 -0.2395 -0.2315  0.1043
  920TIP3    H1 2701   3.801   7.362   5.741 -0.0027  0.7750  0.1362
  920TIP3    H2 2702   3.797   7.432   5.875 -0.8950 -0.9567  1.0500
  921TIP3   OH2 2703   4.727   7.919   0.747  0.4879 -0.1197  0.4267
  921TIP3    H1 2704   4.764   7.833   0.766 -0.5889 -0.8058 -0.4437
  921TIP3    H2 2705   4.744   7.932   0.653  0.5812  0.6035  0.5351
  922TIP3   OH2 2706   3.877   6.527   0.274 -0.1335  0.1346 -0.9654
  922TIP3    H1 2707   3.963   6.488   0.258  0.1101  0.2713 -0.0400
  922TIP3    H2 2708   3.890   6.586   0.348 -1.2952 -0.8124  0.0425
  923TIP3   OH2 2709   6.776   5.198   6.541  0.1055 -0.1761 -0.1618
  923TIP3    H1 2710   6.862   5.197   6.583 -0.1458  0.5580  0.3907
  923TIP3    H2 2711   6.726   5.132   6.589 -0.0387  0.3356  0.4009
  924TIP3   OH2 2712   2.949   5.399   2.407  0.6339  0.2158 -0.3042
  924TIP3    H1 2713   2.874   5.457   2.413 -0.8678 -1.6917  0.1467
  924TIP3    H2 2714   2.944   5.343   2.485  3.4632  1.0640  0.6173
  925TIP3   OH2 2715   1.707   6.467   4.864  0.3506  0.9576 -0.2227
  925TIP3    H1 2716   1.773   6.520   4.909  1.5439 -0.3285 -0.3598
  925TIP3    H2 2717   1.639   6.451   4.929  1.2178  0.5504  0.5984
  926TIP3   OH2 2718   8.013   4.956   2.351  0.3180  0.0940  0.2741
  926TIP3    H1 2719   7.983   5.028   2.408  1.1120  0.1082  0.6890
  926TIP3    H2 2720   8.107   4.973   2.339  0.5392 -0.9187  0.4535
  927TIP3   OH2 2721   6.375   3.946   5.243 -0.1105 -0.4088  0.7921
  927TIP3    H1 2722   6.280   3.933   5.243 -0.0063 -1.2381  1.4067
  927TIP3    H2 2723   6.403   3.915   5.157 -0.2000 -1.8592  1.2544
  928TIP3   OH2 2724   1.277   4.586   0.844  0.3881  0.1889  0.7054
  928TIP3    H1 2725   1.361   4.540   0.832 -0.6887 -1.7495  0.0548
  928TIP3    H2 2726   1.302   4.673   0.875  2.6092 -0.5590  1.2768
  929TIP3   OH2 2727   1.469   4.653   6.369  0.1791 -0.6013  0.2518
  929TIP3    H1 2728   1.560   4.681   6.361  1.1003 -3.0778  0.9476
  929TIP3    H2 2729   1.445   4.675   6.459  0.6362 -1.2713  0.5499
  930TIP3   OH2 2730   6.769   4.000   3.471  0.0315  0.2180 -0.1827
  930TIP3    H1 2731   6.711   4.021   3.398 -1.6078 -1.0992  0.6602
  930TIP3    H2 2732   6.842   3.951   3.432 -1.1056 -0.9530 -0.8973
  931TIP3   OH2 2733   6.647   7.414   2.885  0.1487 -0.0551  0.2811
  931TIP3    H1 2734   6.665   7.408   2.791  0.2440  0.6011  0.2509
  931TIP3    H2 2735   6.561   7.456   2.890  0.1439 -0.0891  0.4859
  932TIP3   OH2 2736   3.840   5.722   1.564 -0.2958  0.6706 -0.1461
  932TIP3    H1 2737   3.907   5.782   1.598  1.2915 -0.9360 -0.3402
  932TIP3    H2 2738   3.815   5.668   1.640  0.0280 -0.0013 -0.5149
  933TIP3   OH2 2739   5.995   1.441   3.751  0.1875  0.2179 -0.3068
  933TIP3    H1 2740   6.084   1.445   3.785 -0.8135  0.6338  2.4964
  933TIP3    H2 2741   5.952   1.373   3.804 -2.1403  2.6195  1.1522
  934TIP3   OH2 2742   8.205   5.594   3.302 -0.2843 -0.8974 -0.5326
  934TIP3    H1 2743   8.272   5.655   3.333  1.8174 -3.1167 -0.4008
  934TIP3    H2 2744   8.166   5.559   3.382 -1.4992  0.2192 -0.6079
  935TIP3   OH2 2745   6.062   0.507   0.112 -0.3263 -0.6033 -0.2441
  935TIP3    H1 2746   6.136   0.519   0.053  0.0946  0.1352  0.4161
  935TIP3    H2 2747   6.023   0.424   0.085  0.2041 -0.5627 -1.1732
  936TIP3   OH2 2748   3.396   3.238   3.167  0.6448 -0.0748  0.0994
  936TIP3    H1 2749   3.460   3.278   3.107  0.6502 -0.9637 -0.5047
  936TIP3    H2 2750   3.449   3.205   3.240  0.8910 -0.8674 -0.4315
  937TIP3   OH2 2751   1.959   0.108   6.466 -0.7615 -0.1282 -0.3890
  937TIP3    H1 2752   1.914   0.076   6.545 -0.6586  1.0492  0.1625
  937TIP3    H2 2753   2.042   0.061   6.466 -0.5193  0.2678  0.5349
  938TIP3   OH2 2754   0.454   2.697   2.563 -0.3043  0.2831 -0.4390
  938TIP3    H1 2755   0.524   2.760   2.548 -0.3805  0.3203 -0.6438
  938TIP3    H2 2756   0.479   2.620   2.512 -0.2024  0.1384 -0.1756
  939TIP3   OH2 2757   3.118   5.963   1.077  0.1971  0.0531 -0.1828
  939TIP3    H1 2758   3.126   6.057   1.061 -0.5930 -0.0297 -1.1185
  939TIP3    H2 2759   3.190   5.925   1.026  0.3710  0.1272  0.0041
  940TIP3   OH2 2760   7.000   5.707   0.176  0.0296 -0.0963 -0.0397
  940TIP3    H1 2761   7.018   5.688   0.268  0.1857 -0.5185 -0.1536
  940TIP3    H2 2762   6.918   5.662   0.158 -0.8515  1.3099  0.3108
  941TIP3   OH2 2763   6.539   3.577   4.033  0.6806  0.0453  0.1926
  941TIP3    H1 2764   6.593   3.618   4.102 -1.1557  0.2639  1.5906
  941TIP3    H2 2765   6.534   3.485   4.059 -0.5860  0.2623  0.7853
  942TIP3   OH2 2766   2.287   1.122   4.637 -0.5253  0.7476 -0.4723
  942TIP3    H1 2767   2.210   1.147   4.689  0.4999  1.2798  0.8332
  942TIP3    H2 2768   2.339   1.202   4.630  1.3297 -0.2120  1.2087
  943TIP3   OH2 2769   0.557   7.176   4.932  0.1515 -0.0345  0.2551
  943TIP3    H1 2770   0.596   7.242   4.873 -0.2405  1.1640  1.3027
  943TIP3    H2 2771   0.463   7.180   4.913  0.0724  0.0624  0.6588
  944TIP3   OH2 2772   6.298   7.512   3.092  0.1766 -0.0281 -0.0302
  944TIP3    H1 2773   6.366   7.505   3.158  1.5727  0.6806 -1.3306
  944TIP3    H2 2774   6.335   7.570   3.025 -1.6628  0.2971 -0.8386
  945TIP3   OH2 2775   8.084   3.876   6.539 -0.1896  0.1759 -0.3922
  945TIP3    H1 2776   8.095   3.876   6.444 -1.1379  1.2059 -0.5133
  945TIP3    H2 2777   8.147   3.941   6.571  0.7692 -0.8015 -0.2053
  946TIP3   OH2 2778   0.356   3.505   1.632 -0.4468  0.4354 -0.4605
  946TIP3    H1 2779   0.349   3.583   1.577 -0.4115 -0.8753 -2.4264
  946TIP3    H2 2780   0.269   3.466   1.631 -0.1385 -0.2687 -0.6348
  947TIP3   OH2 2781   7.290   4.250   6.872 -0.0274  0.0373  0.1172
  947TIP3    H1 2782   7.231   4.221   6.803 -0.3732  0.0798  0.3925
  947TIP3    H2 2783   7.284   4.346   6.870  1.0576  0.1141 -0.7441
  948TIP3   OH2 2784   5.275   4.143   6.132 -0.3525 -0.1826 -0.4802
  948TIP3    H1 2785   5.363   4.125   6.098  0.6520  2.2467  0.5324
  948TIP3    H2 2786   5.289   4.209   6.201 -3.0434  1.0023 -0.9193
  949TIP3   OH2 2787   2.259   5.024   3.449 -0.3197  0.0490 -0.0578
  949TIP3    H1 2788   2.293   4.984   3.529  0.9532  0.9639 -0.1026
  949TIP3    H2 2789   2.228   5.110   3.477  1.3819  0.9344 -0.7275
  950TIP3   OH2 2790   6.155   0.456   5.774 -0.2298 -0.3997 -0.3992
  950TIP3    H1 2791   6.227   0.516   5.754  1.8281 -2.9990 -1.5105
  950TIP3    H2 2792   6.137   0.412   5.690 -2.2178 -0.7413  0.1667
  951TIP3   OH2 2793   1.492   7.161   6.291  1.0620  0.1141 -0.1320
  951TIP3    H1 2794   1.464   7.243   6.250  1.1395 -0.3135 -1.0728
  951TIP3    H2 2795   1.411   7.115   6.310  1.0313  0.2512  0.0782
  952TIP3   OH2 2796   7.845   6.612   2.638  0.0042  0.2120 -0.5473
  952TIP3    H1 2797   7.802   6.558   2.704 -0.8647  0.6099 -0.7687
  952TIP3    H2 2798   7.832   6.702   2.668 -0.7618  0.4238 -1.4411
  953TIP3   OH2 2799   3.489   4.326   6.569 -0.2429  0.0720  0.5288
  953TIP3    H1 2800   3.467   4.235   6.550 -2.0111  0.5106  0.2699
  953TIP3    H2 2801   3.467   4.337   6.662  0.5612  0.0823  0.7244
  954TIP3   OH2 2802   5.722   3.437   1.481 -0.2603  0.3107 -0.3815
  954TIP3    H1 2803   5.797   3.476   1.525  0.7761 -1.9612 -0.0112
  954TIP3    H2 2804   5.758   3.400   1.400 -0.6528 -1.8629  0.3652
  955TIP3   OH2 2805   4.200   3.438   3.523 -1.0685 -0.3770  0.0871
  955TIP3    H1 2806   4.222   3.442   3.430 -2.0654  1.1471 -0.1174
  955TIP3    H2 2807   4.162   3.351   3.535  0.0743 -1.0082 -0.6736
  956TIP3   OH2 2808   3.410   2.880   6.524  0.0741 -0.5439  0.2636
  956TIP3    H1 2809   3.326   2.886   6.568  0.6380  1.3823  1.1993
  956TIP3    H2 2810   3.389   2.874   6.431 -1.0949 -1.7420  0.5805
  957TIP3   OH2 2811   4.780   0.531   3.910  0.4209  0.3827 -0.0288
  957TIP3    H1 2812   4.820   0.616   3.889  0.0143  0.8760  1.1086
  957TIP3    H2 2813   4.778   0.529   4.006  0.8014 -1.0967 -0.0265
  958TIP3   OH2 2814   0.389   2.941   4.082  0.4028  0.1656 -0.2654
  958TIP3    H1 2815   0.362   3.030   4.106 -1.3252  0.3978 -2.7155
  958TIP3    H2 2816   0.454   2.953   4.013  1.5592 -0.5012  0.6686
  959TIP3   OH2 2817   7.002   4.277   3.908 -0.6471  0.6206  0.4168
  959TIP3    H1 2818   6.953   4.293   3.988 -0.1712  1.4921  0.5454
  959TIP3    H2 2819   6.970   4.192   3.877  0.0391 -0.3325  2.1662
  960TIP3   OH2 2820   2.576   0.291   1.468 -0.1995  0.5692 -0.8191
  960TIP3    H1 2821   2.571   0.335   1.553 -2.3550  1.4235 -1.3340
  960TIP3    H2 2822   2.628   0.212   1.485 -2.7752 -0.7087  1.9336
  961TIP3   OH2 2823   6.443   2.895   0.281  0.5245 -0.5393 -0.3389
  961TIP3    H1 2824   6.497   2.818   0.265  0.0956 -0.6335 -1.4094
  961TIP3    H2 2825   6.399   2.911   0.198  0.4357  0.7335 -0.0663
  962TIP3   OH2 2826   1.740   0.139   4.868  0.0656  0.6416 -0.5710
  962TIP3    H1 2827   1.760   0.048   4.845 -0.8362  0.8737 -2.5464
  962TIP3    H2 2828   1.820   0.173   4.907  0.5903 -0.8445 -0.2908
  963TIP3   OH2 2829   5.466   6.859   0.714  0.4594  0.9021 -0.3490
  963TIP3    H1 2830   5.489   6.769   0.691  0.1022  1.0830 -1.4791
  963TIP3    H2 2831   5.536   6.912   0.675  1.5853  1.0297  1.7312
  964TIP3   OH2 2832   3.183   3.360   0.588  0.8388 -0.2554 -0.4451
  964TIP3    H1 2833   3.183   3.306   0.509  1.6672  0.7526 -1.1569
  964TIP3    H2 2834   3.168   3.449   0.557 -1.4392 -0.1377  0.7987
  965TIP3   OH2 2835   1.031   5.647   5.501  0.0902 -0.1575 -1.1188
  965TIP3    H1 2836   0.966   5.602   5.555  0.8367  0.7965  0.6640
  965TIP3    H2 2837   1.079   5.577   5.457  0.3611 -1.0805  0.5681
  966TIP3   OH2 2838   8.098   5.646   2.172  0.0530  0.2939 -0.8192
  966TIP3    H1 2839   8.114   5.553   2.159 -2.0711 -0.1370 -0.5800
  966TIP3    H2 2840   8.095   5.682   2.083  1.1082  0.1995 -0.9046
  967TIP3   OH2 2841   1.360   0.372   3.003 -0.0454  0.2217 -0.3135
  967TIP3    H1 2842   1.411   0.449   2.979 -0.8561  1.2131  1.0166
  967TIP3    H2 2843   1.327   0.392   3.091 -0.6439 -1.4586 -0.1228
  968TIP3   OH2 2844   2.428   2.683   5.152  0.2031  0.4701  0.2463
  968TIP3    H1 2845   2.500   2.740   5.126  0.7629 -0.4068 -0.1805
  968TIP3    H2 2846   2.363   2.693   5.083  0.5461  0.1719 -0.1287
  969TIP3   OH2 2847   4.916   3.183   5.728  0.4308 -0.2339 -0.2839
  969TIP3    H1 2848   4.907   3.257   5.668 -3.0848  1.0911  1.5423
  969TIP3    H2 2849   4.884   3.108   5.679 -0.8582  0.5172 -0.6504
  970TIP3   OH2 2850   1.533   0.138   2.145  0.2994  0.1219  0.1086
  970TIP3    H1 2851   1.539   0.118   2.239 -0.1154  1.3118  0.4078
  970TIP3    H2 2852   1.622   0.126   2.112  0.7209  0.8724  0.9213
  971TIP3   OH2 2853   4.836   3.898   2.327 -0.2463 -0.6823 -0.5764
  971TIP3    H1 2854   4.812   3.849   2.406 -1.0367  0.7507  0.1206
  971TIP3    H2 2855   4.776   3.973   2.326 -0.1248 -0.5490 -2.4423
  972TIP3   OH2 2856   8.001   4.420   2.822  0.0197 -0.4113 -0.7800
  972TIP3    H1 2857   7.992   4.393   2.914  1.5668  1.9116  0.1346
  972TIP3    H2 2858   8.095   4.415   2.805 -0.1306  0.2837 -1.8747
  973TIP3   OH2 2859   5.359   6.048   3.846 -0.2472 -0.1160  0.0375
  973TIP3    H1 2860   5.353   6.141   3.866 -1.4672 -0.5509  1.9919
  973TIP3    H2 2861   5.441   6.039   3.797 -0.1085  1.9617 -0.2038
  974TIP3   OH2 2862   2.094   4.711   0.244 -0.4830 -0.3756  0.1371
  974TIP3    H1 2863   2.160   4.662   0.195  0.3885  0.6429  0.2500
  974TIP3    H2 2864   2.120   4.701   0.336  0.1257  0.8438  0.1193
  975TIP3   OH2 2865   3.266   6.488   5.192 -0.3663  0.0385 -0.0556
  975TIP3    H1 2866   3.321   6.413   5.213 -1.6536 -0.9796 -0.1739
  975TIP3    H2 2867   3.235   6.472   5.103  1.3186  1.9986 -1.0722
  976TIP3   OH2 2868   2.254   1.059   3.039  0.4754  0.0073  0.1369
  976TIP3    H1 2869   2.200   1.135   3.015  0.6869 -0.2588 -1.3083
  976TIP3    H2 2870   2.232   1.041   3.130  0.7395  2.0777  0.6604
  977TIP3   OH2 2871   3.790   2.282   2.827 -0.0611  0.0697  0.1338
  977TIP3    H1 2872   3.773   2.205   2.772 -1.5164 -0.6683  1.5224
  977TIP3    H2 2873   3.800   2.246   2.915  0.6719  1.3719  0.5985
  978TIP3   OH2 2874   5.753   3.487   5.218  0.0352  0.0016 -0.3579
  978TIP3    H1 2875   5.792   3.515   5.301 -1.0521 -0.0679  0.1902
  978TIP3    H2 2876   5.759   3.392   5.219 -0.1177 -0.0081 -0.2822
  979TIP3   OH2 2877   3.091   5.128   0.464 -0.1488  0.1646  0.1481
  979TIP3    H1 2878   3.003   5.090   0.458  0.0643 -0.4905  1.0772
  979TIP3    H2 2879   3.077   5.222   0.455 -1.0003  0.1040  0.7682
  980TIP3   OH2 2880   0.152   3.386   0.837  0.1678 -0.2558 -0.3914
  980TIP3    H1 2881   0.109   3.450   0.894  0.7439 -0.9041  0.7892
  980TIP3    H2 2882   0.242   3.381   0.870  0.6743 -0.2318 -1.7226
  981TIP3   OH2 2883   5.865   4.215   4.926  0.0725 -0.0106 -0.8251
  981TIP3    H1 2884   5.893   4.307   4.935  1.3904 -0.4217 -0.3970
  981TIP3    H2 2885   5.790   4.207   4.985 -0.6105  0.9903 -1.5236
  982TIP3   OH2 2886   1.393   4.421   5.497 -0.2972 -0.6241  0.3598
  982TIP3    H1 2887   1.306   4.386   5.516  0.8111 -3.1949  1.0904
  982TIP3    H2 2888   1.448   4.344   5.486  1.4917  0.8782 -2.3702
  983TIP3   OH2 2889   3.066   2.290   3.049  0.3937  0.3497 -0.1233
  983TIP3    H1 2890   3.142   2.232   3.041 -0.3470 -0.7080  0.2727
  983TIP3    H2 2891   3.003   2.239   3.101 -0.5224  1.2702 -0.3172
  984TIP3   OH2 2892   2.660   2.433   6.075 -0.0655  0.3939 -0.0582
  984TIP3    H1 2893   2.679   2.383   5.996  0.6088 -0.9293  0.9158
  984TIP3    H2 2894   2.631   2.368   6.139 -3.1005  1.7257  0.0731
  985TIP3   OH2 2895   5.180   0.778   6.426  0.1798  0.1308  0.1476
  985TIP3    H1 2896   5.168   0.770   6.520  1.8787  2.4640  0.6642
  985TIP3    H2 2897   5.263   0.826   6.416 -1.1926  2.2876 -2.4002
  986TIP3   OH2 2898   2.467   3.315   6.429  0.2156 -0.1079 -0.1128
  986TIP3    H1 2899   2.406   3.344   6.497 -1.3360 -0.1430 -1.4474
  986TIP3    H2 2900   2.413   3.301   6.351  1.6407 -1.9202 -0.8676
  987TIP3   OH2 2901   0.051   6.717   0.486 -0.5278  0.0541 -0.3846
  987TIP3    H1 2902   0.103   6.695   0.409 -1.8686  0.8144 -1.5694
  987TIP3    H2 2903   0.051   6.812   0.489  0.2246  0.0433  1.1141
  988TIP3   OH2 2904   7.076   6.862   5.468 -0.3569  0.6425 -0.6862
  988TIP3    H1 2905   7.084   6.787   5.410  1.0269 -0.7367  1.1494
  988TIP3    H2 2906   7.157   6.911   5.457  0.8146 -0.6726  1.3103
  989TIP3   OH2 2907   4.992   5.430   2.735  0.6292 -0.3627  0.2054
  989TIP3    H1 2908   5.035   5.433   2.820  1.1288 -0.5728 -0.0357
  989TIP3    H2 2909   5.039   5.495   2.682  0.7318 -0.6837 -0.0976
  990TIP3   OH2 2910   5.995   5.724   0.896 -0.0027  0.3022 -0.1199
  990TIP3    H1 2911   6.090   5.729   0.905  0.3274  0.4880 -2.8549
  990TIP3    H2 2912   5.964   5.809   0.928  0.5401 -0.3592  2.3183
  991TIP3   OH2 2913   3.942   4.509   4.948  0.2998  0.3052 -0.0715
  991TIP3    H1 2914   3.976   4.420   4.959  1.8542  1.0726  2.1565
  991TIP3    H2 2915   3.937   4.522   4.854  1.2800 -1.7018 -0.4502
  992TIP3   OH2 2916   3.155   0.572   6.355 -0.3701 -0.7042 -0.5022
  992TIP3    H1 2917   3.171   0.658   6.317 -0.8994  0.1255  1.0334
  992TIP3    H2 2918   3.227   0.558   6.417 -0.1082 -1.5257 -0.9695
  993TIP3   OH2 2919   4.277   2.692   0.521  0.2543  0.3077  0.1341
  993TIP3    H1 2920   4.320   2.702   0.606 -1.3970 -0.8248  1.1598
  993TIP3    H2 2921   4.261   2.598   0.514 -4.0225  0.8043  0.9080
  994TIP3   OH2 2922   4.039   0.287   4.058  0.0621  0.1940  0.0710
  994TIP3    H1 2923   4.116   0.236   4.082 -0.3950 -0.7487 -0.4408
  994TIP3    H2 2924   3.974   0.222   4.034 -0.7969  0.9975  0.1914
  995TIP3   OH2 2925   5.563   3.840   2.259 -0.4827  0.4278  0.3702
  995TIP3    H1 2926   5.526   3.831   2.171  0.3440 -0.8053  0.1247
  995TIP3    H2 2927   5.490   3.871   2.312 -0.8510  1.7770 -0.8504
  996TIP3   OH2 2928   7.459   0.700   5.302  0.5652  0.1597  0.2496
  996TIP3    H1 2929   7.432   0.738   5.385 -0.4407 -0.0200  0.0255
  996TIP3    H2 2930   7.429   0.609   5.307 -0.5014  0.4254 -0.7166
  997TIP3   OH2 2931   2.945   6.018   0.843 -0.4928 -0.5320 -0.3095
  997TIP3    H1 2932   2.953   6.081   0.915  0.6994 -1.0963  0.0792
  997TIP3    H2 2933   2.984   5.937   0.878  0.7876 -0.6183 -1.8358
  998TIP3   OH2 2934   6.319   3.536   4.797  0.5805 -0.3555 -0.3084
  998TIP3    H1 2935   6.287   3.624   4.780 -0.1825 -0.6267 -0.3018
  998TIP3    H2 2936   6.336   3.499   4.711 -0.3532 -0.6552 -0.3717
  999TIP3   OH2 2937   8.156   4.749   6.681  0.2844 -0.5076  0.2771
  999TIP3    H1 2938   8.240   4.711   6.704  0.2096 -0.9589 -0.1700
  999TIP3    H2 2939   8.100   4.733   6.757  0.1417 -1.6576 -0.0502
 1000TIP3   OH2 2940   8.023   3.611   5.446  0.0617  0.0037 -0.4943
 1000TIP3    H1 2941   7.968   3.554   5.392 -2.5072  1.9707 -0.1330
 1000TIP3    H2 2942   8.086   3.551   5.486 -1.1241 -2.2489 -1.7712
 1001TIP3   OH2 2943   4.226   3.054   4.701  0.6674 -0.2541  0.0862
 1001TIP3    H1 2944   4.176   3.081   4.778  2.4243 -0.2335  1.2893
 1001TIP3    H2 2945   4.167   2.997   4.653 -0.9806  0.8526  0.6932
 1002TIP3   OH2 2946   4.308   1.326   5.712 -0.5333 -0.2504 -0.0426
 1002TIP3    H1 2947   4.225   1.309   5.756 -0.5586 -0.5263 -0.1941
 1002TIP3    H2 2948   4.289   1.399   5.653 -0.7164 -0.4319 -0.2109
 1003TIP3   OH2 2949   5.472   3.486   3.624 -0.1686 -0.4322  0.5237
 1003TIP3    H1 2950   5.408   3.484   3.553  0.6594  0.2133 -0.2557
 1003TIP3    H2 2951   5.449   3.564   3.675  1.5822  1.3660 -1.2974
 1004TIP3   OH2 2952   1.735   7.270   4.124 -0.6656  1.0275  0.1246
 1004TIP3    H1 2953   1.745   7.282   4.218  1.0172  2.2021 -0.1468
 1004TIP3    H2 2954   1.780   7.346   4.085  1.0484 -0.7641 -1.6605
 1005TIP3   OH2 2955   7.828   6.632   3.882  0.5438  0.8788  0.4874
 1005TIP3    H1 2956   7.859   6.696   3.818 -0.3423  1.9044  1.0518
 1005TIP3    H2 2957   7.764   6.579   3.834 -0.4879  1.9601  0.6185
 1006TIP3   OH2 2958   0.161   1.118   0.275  0.4624 -0.7359 -0.6599
 1006TIP3    H1 2959   0.166   1.046   0.212 -0.6851 -0.3737 -1.1940
 1006TIP3    H2 2960   0.079   1.164   0.253 -1.0877 -1.8061  2.3810
 1007TIP3   OH2 2961   6.233   2.545   2.743 -0.4868 -0.0510 -0.3973
 1007TIP3    H1 2962   6.197   2.476   2.798  0.6987  1.1598  2.0450
 1007TIP3    H2 2963   6.326   2.549   2.768  0.0275  0.8075 -2.2782
 1008TIP3   OH2 2964   3.715   0.819   6.796  0.1149 -0.2805 -0.2102
 1008TIP3    H1 2965   3.783   0.813   6.730 -0.0933  1.5713 -0.6535
 1008TIP3    H2 2966   3.762   0.823   6.879  0.5258  0.1595 -0.4572
 1009TIP3   OH2 2967   5.290   5.219   5.009 -0.4676  0.2575 -0.0812
 1009TIP3    H1 2968   5.212   5.165   5.005 -0.2423 -0.2440  1.5343
 1009TIP3    H2 2969   5.360   5.164   4.973 -0.1767 -0.6963  1.8465
 1010TIP3   OH2 2970   1.545   1.751   0.678 -0.0542  0.2698 -0.0055
 1010TIP3    H1 2971   1.550   1.788   0.766  1.8571  0.8133 -0.2824
 1010TIP3    H2 2972   1.460   1.779   0.644 -0.6437  0.4016  1.4984
 1011TIP3   OH2 2973   5.487   3.859   1.987  0.2286  0.1234 -0.4891
 1011TIP3    H1 2974   5.536   3.923   1.936  1.5734 -1.2334 -1.0001
 1011TIP3    H2 2975   5.406   3.846   1.938 -0.1791  1.5746 -0.2416
 1012TIP3   OH2 2976   5.612   7.219   5.395 -0.2307 -0.7359  0.3638
 1012TIP3    H1 2977   5.549   7.273   5.347 -0.1759  0.5574  1.6681
 1012TIP3    H2 2978   5.589   7.129   5.371 -1.0974 -0.2077 -0.9513
 1013TIP3   OH2 2979   4.002   0.637   2.425 -0.0144 -0.2465  0.7757
 1013TIP3    H1 2980   4.055   0.617   2.502  0.0882 -0.3484  0.6786
 1013TIP3    H2 2981   4.029   0.726   2.400 -0.5772  0.0816  1.2937
 1014TIP3   OH2 2982   5.863   0.121   5.083 -0.0882  0.4457  0.2915
 1014TIP3    H1 2983   5.838   0.046   5.029 -1.2640  1.1835 -0.2342
 1014TIP3    H2 2984   5.780   0.166   5.101  0.6011  1.6621  0.5383
 1015TIP3   OH2 2985   2.233   6.223   5.955  0.2488 -0.1984 -0.6400
 1015TIP3    H1 2986   2.246   6.129   5.941 -2.2816 -0.4325 -2.1067
 1015TIP3    H2 2987   2.201   6.230   6.045  0.5010 -0.7442 -0.5031
 1016TIP3   OH2 2988   2.688   4.900   4.034 -0.0978  0.2861  0.1263
 1016TIP3    H1 2989   2.694   4.849   4.115 -0.0558 -1.1008 -0.7186
 1016TIP3    H2 2990   2.664   4.836   3.967  3.3832  0.6204 -1.6767
 1017TIP3   OH2 2991   7.636   0.416   3.927  0.2491 -0.0599  0.2065
 1017TIP3    H1 2992   7.555   0.450   3.965  0.8985  0.9931  0.6985
 1017TIP3    H2 2993   7.658   0.479   3.859  0.5904 -0.4157 -0.0155
 1018TIP3   OH2 2994   1.163   7.263   5.054 -0.3428 -0.2483  0.4094
 1018TIP3    H1 2995   1.190   7.342   5.007 -2.4163  1.0056  1.1881
 1018TIP3    H2 2996   1.241   7.208   5.054  0.9903  1.5046 -0.7366
 1019TIP3   OH2 2997   8.130   4.428   2.210  0.2593 -0.1678 -0.0526
 1019TIP3    H1 2998   8.066   4.432   2.281 -0.5208  1.3789 -0.7945
 1019TIP3    H2 2999   8.077   4.426   2.131  1.1234 -0.1962 -0.6415
 1020TIP3   OH2 3000   6.546   7.300   3.547 -0.3310  0.4116  0.1721
 1020TIP3    H1 3001   6.451   7.310   3.552 -0.6114 -1.6803 -0.2538
 1020TIP3    H2 3002   6.566   7.224   3.601  1.1000  0.7202  0.1222
 1021TIP3   OH2 3003   5.061   7.031   5.267  0.1436  0.3176 -0.3806
 1021TIP3    H1 3004   5.143   7.070   5.239  0.2075 -0.3513 -1.1446
 1021TIP3    H2 3005   5.080   6.938   5.278  0.0463  0.5004  1.6284
 1022TIP3   OH2 3006   4.739   1.376   0.626 -0.4819  0.1060  0.1255
 1022TIP3    H1 3007   4.764   1.385   0.718 -0.5091  0.1157  0.1319
 1022TIP3    H2 3008   4.648   1.406   0.622 -0.8935 -1.0675  0.3161
 1023TIP3   OH2 3009   5.956   3.720   3.456 -0.0241  0.4639 -0.0872
 1023TIP3    H1 3010   5.998   3.636   3.472 -0.6043  0.3440  0.8799
 1023TIP3    H2 3011   5.990   3.777   3.525  0.2274  0.9859 -0.6287
 1024TIP3   OH2 3012   3.462   4.733   5.839  0.5912  0.1740  0.7411
 1024TIP3    H1 3013   3.441   4.743   5.747 -1.2218 -0.5427  1.0436
 1024TIP3    H2 3014   3.550   4.771   5.848  0.3991  1.1490 -1.0703
 1025TIP3   OH2 3015   6.847   3.292   3.161 -0.1850 -0.2335 -0.9227
 1025TIP3    H1 3016   6.918   3.238   3.128 -0.0632 -1.2888  0.9264
 1025TIP3    H2 3017   6.768   3.243   3.140 -0.0875 -1.0718  0.5649
 1026TIP3   OH2 3018   4.770   7.057   0.202  0.1209 -0.0738  0.1683
 1026TIP3    H1 3019   4.812   7.124   0.255 -1.0192 -0.3884  1.5294
 1026TIP3    H2 3020   4.830   6.982   0.207  0.0273 -0.0969  1.0053
 1027TIP3   OH2 3021   3.606   2.100   0.835  0.1493  0.2969 -0.5088
 1027TIP3    H1 3022   3.645   2.078   0.920  1.1016 -0.3285 -1.0942
 1027TIP3    H2 3023   3.554   2.024   0.811 -0.8839  0.8443 -0.0681
 1028TIP3   OH2 3024   1.890   5.828   3.716 -0.1087 -0.2706 -0.3296
 1028TIP3    H1 3025   1.892   5.865   3.804 -0.7237 -1.2630  0.1108
 1028TIP3    H2 3026   1.939   5.891   3.663  0.8321  0.0236  0.8368
 1029TIP3   OH2 3027   3.348   1.074   0.477 -0.0390 -0.2557  0.1980
 1029TIP3    H1 3028   3.349   1.056   0.571 -1.3772 -0.0738  0.2699
 1029TIP3    H2 3029   3.309   1.162   0.470 -1.9877 -1.1313 -0.6152
 1030TIP3   OH2 3030   8.389   4.664   3.783  0.0110 -0.1887  0.1582
 1030TIP3    H1 3031   8.352   4.579   3.761 -0.6873  0.3153 -0.6440
 1030TIP3    H2 3032   8.479   4.644   3.810  0.2110 -1.0717 -1.0782
 1031TIP3   OH2 3033   4.978   7.429   3.265  0.3880  0.2665  0.1027
 1031TIP3    H1 3034   4.927   7.492   3.214  0.6373 -0.4546 -1.0780
 1031TIP3    H2 3035   4.954   7.446   3.356 -0.2565  1.4268 -0.2666
 1032TIP3   OH2 3036   1.224   4.275   6.633  0.1116  0.0195 -0.5998
 1032TIP3    H1 3037   1.297   4.271   6.572  0.9212  0.5131  0.3240
 1032TIP3    H2 3038   1.221   4.366   6.661 -0.0952 -0.2581  0.2997
 1033TIP3   OH2 3039   1.265   2.481   0.936  0.0866 -0.0771  0.1746
 1033TIP3    H1 3040   1.314   2.563   0.933  0.6845 -0.4329 -0.1048
 1033TIP3    H2 3041   1.299   2.431   0.862 -1.7717  0.2505 -0.9481
 1034TIP3   OH2 3042   4.684   5.398   6.868  0.3197  0.5172 -0.4641
 1034TIP3    H1 3043   4.766   5.436   6.838 -0.3933  0.8074 -2.1692
 1034TIP3    H2 3044   4.694   5.304   6.853  1.5067  0.1135  2.3370
 1035TIP3   OH2 3045   0.951   1.325   0.441  0.9454  0.0653 -0.0344
 1035TIP3    H1 3046   0.927   1.316   0.348  1.0091 -0.6503  0.0077
 1035TIP3    H2 3047   0.941   1.236   0.476 -2.4964  0.8617  1.4660
 1036TIP3   OH2 3048   6.715   1.089   5.753  0.1828  0.2783 -0.8024
 1036TIP3    H1 3049   6.676   1.004   5.774 -0.6250  0.7878 -0.1866
 1036TIP3    H2 3050   6.715   1.093   5.658 -1.1543  0.2071 -0.8167
 1037TIP3   OH2 3051   0.175   0.831   2.992  0.5872 -0.0424  0.3745
 1037TIP3    H1 3052   0.165   0.786   2.909  0.8928  0.7160 -0.0847
 1037TIP3    H2 3053   0.129   0.776   3.056  0.8370 -0.9174 -0.1928
 1038TIP3   OH2 3054   3.117   7.158   2.593  0.3659  0.1232 -0.0450
 1038TIP3    H1 3055   3.188   7.203   2.639 -0.1571  1.6621 -0.6894
 1038TIP3    H2 3056   3.160   7.112   2.521  0.9999 -1.0667  1.0566
 1039TIP3   OH2 3057   1.949   5.204   6.013  0.3012 -0.1686 -0.2047
 1039TIP3    H1 3058   1.977   5.228   6.101  1.1891  0.8919 -0.7477
 1039TIP3    H2 3059   1.877   5.265   5.993 -0.6430 -1.1252  0.1761
 1040TIP3   OH2 3060   4.315   6.518   2.247  0.2408 -0.1255 -0.3920
 1040TIP3    H1 3061   4.373   6.537   2.173  0.5730 -2.5757 -0.8483
 1040TIP3    H2 3062   4.353   6.440   2.287 -2.4300 -1.5539 -0.4118
 1041TIP3   OH2 3063   0.672   6.235   0.888  0.1551  0.0695  0.2644
 1041TIP3    H1 3064   0.644   6.309   0.833  0.0183 -0.1658  0.0142
 1041TIP3    H2 3065   0.592   6.184   0.902 -0.1233  0.8751  1.8702
 1042TIP3   OH2 3066   3.511   5.480   2.568 -0.1741  0.0742 -0.3401
 1042TIP3    H1 3067   3.440   5.418   2.552  0.2137 -0.2002 -1.0287
 1042TIP3    H2 3068   3.503   5.545   2.498 -0.2946  0.5554  0.1095
 1043TIP3   OH2 3069   3.926   4.032   0.940  0.0701 -0.7880  0.2729
 1043TIP3    H1 3070   3.905   3.946   0.977 -0.6647 -0.0404  1.6954
 1043TIP3    H2 3071   4.020   4.030   0.927  0.0496 -1.8503  0.1748
 1044TIP3   OH2 3072   0.718   0.417   6.586 -0.4002 -0.5000  0.6910
 1044TIP3    H1 3073   0.643   0.452   6.635 -0.6217  0.7881 -0.4944
 1044TIP3    H2 3074   0.791   0.422   6.647  0.0423  3.9753  0.0885
 1045TIP3   OH2 3075   3.733   1.856   4.501 -0.2082 -0.0074 -0.1585
 1045TIP3    H1 3076   3.763   1.765   4.505 -0.0868  0.0455  0.2406
 1045TIP3    H2 3077   3.786   1.901   4.568 -0.6968  0.2299  0.0705
 1046TIP3   OH2 3078   0.879   4.367   0.265 -0.2009 -0.1319  0.2316
 1046TIP3    H1 3079   0.844   4.379   0.177  1.3209 -1.3875 -0.5871
 1046TIP3    H2 3080   0.952   4.429   0.270 -1.6392  1.5814  1.4828
 1047TIP3   OH2 3081   2.769   0.547   1.756 -0.1710 -0.2207  0.3723
 1047TIP3    H1 3082   2.840   0.559   1.693  0.1488 -2.0877  0.3148
 1047TIP3    H2 3083   2.785   0.613   1.824  0.0381  1.1600 -0.9748
 1048TIP3   OH2 3084   3.379   6.471   4.099 -0.3679  0.0767 -0.0008
 1048TIP3    H1 3085   3.422   6.409   4.158 -0.4889  0.9502  1.0324
 1048TIP3    H2 3086   3.296   6.428   4.075  0.6862 -1.2805 -1.4046
 1049TIP3   OH2 3087   4.923   5.283   2.526 -0.5614 -0.3485 -0.1503
 1049TIP3    H1 3088   4.879   5.348   2.471  1.8215  0.2563 -1.4473
 1049TIP3    H2 3089   4.952   5.331   2.603 -0.9297 -0.4545  0.0610
 1050TIP3   OH2 3090   7.363   5.324   5.528  0.1128  0.1972 -0.1009
 1050TIP3    H1 3091   7.435   5.355   5.583  0.3511  0.2960 -0.4671
 1050TIP3    H2 3092   7.406   5.290   5.449 -0.1673 -0.6739  0.1051
 1051TIP3   OH2 3093   4.425   2.477   6.737  0.0245  0.5249  0.4131
 1051TIP3    H1 3094   4.442   2.557   6.688  0.1424  1.0407  1.2760
 1051TIP3    H2 3095   4.503   2.465   6.792  0.5210 -0.8166 -0.5201
 1052TIP3   OH2 3096   3.036   6.000   2.685  0.3759 -0.0178 -0.1187
 1052TIP3    H1 3097   3.043   5.978   2.778  2.3322 -0.1547 -0.2638
 1052TIP3    H2 3098   3.049   6.095   2.682  1.8859 -0.2178 -0.3733
 1053TIP3   OH2 3099   1.813   6.307   0.696  0.2172  0.4198  0.0250
 1053TIP3    H1 3100   1.720   6.307   0.675 -0.0815 -0.4898  1.2506
 1053TIP3    H2 3101   1.823   6.374   0.764  0.3252  0.0409  0.3896
 1054TIP3   OH2 3102   6.173   4.286   2.050  0.1479  0.5429 -0.2142
 1054TIP3    H1 3103   6.221   4.206   2.026 -0.2712 -0.7950  2.9283
 1054TIP3    H2 3104   6.229   4.357   2.018  0.3270 -0.8758 -3.5176
 1055TIP3   OH2 3105   0.186   1.958   2.226 -0.2481 -0.1861 -0.7849
 1055TIP3    H1 3106   0.181   2.004   2.143 -1.3046  0.4016 -0.4075
 1055TIP3    H2 3107   0.209   2.026   2.290 -1.5709 -0.1954 -0.2638
 1056TIP3   OH2 3108   7.840   2.121   1.326 -0.4356 -0.1024 -0.4426
 1056TIP3    H1 3109   7.799   2.039   1.354  0.0945 -0.0338  0.5978
 1056TIP3    H2 3110   7.903   2.095   1.259 -1.3163 -0.3492 -1.1928
 1057TIP3   OH2 3111   7.218   1.356   3.547  0.1053 -0.3602 -0.0650
 1057TIP3    H1 3112   7.172   1.275   3.570 -1.6351  0.8109  0.7323
 1057TIP3    H2 3113   7.275   1.330   3.474  0.7660 -2.6397  1.1354
 1058TIP3   OH2 3114   3.602   2.895   0.808  0.4504  0.1659 -0.3505
 1058TIP3    H1 3115   3.541   2.904   0.735  0.2485 -0.7376 -0.3063
 1058TIP3    H2 3116   3.546   2.894   0.886  0.5822  0.0405 -0.2580
 1059TIP3   OH2 3117   7.341   3.115   1.988  0.0908 -0.0031 -0.2349
 1059TIP3    H1 3118   7.391   3.035   1.973  0.9460  0.6021 -0.6853
 1059TIP3    H2 3119   7.293   3.099   2.069 -0.9928 -1.5698 -1.1460
 1060TIP3   OH2 3120   7.231   1.040   0.062 -0.2148 -0.1497  0.1361
 1060TIP3    H1 3121   7.288   1.114   0.044  0.0825 -0.6966 -1.2463
 1060TIP3    H2 3122   7.290   0.970   0.091 -0.1299 -0.7388 -1.3661
 1061TIP3   OH2 3123   0.075   4.142   0.036 -0.0688 -0.0774 -0.4116
 1061TIP3    H1 3124  -0.005   4.143   0.089  1.1803  1.1175  1.6089
 1061TIP3    H2 3125   0.120   4.062   0.062  1.1103  1.0866  1.3724
 1062TIP3   OH2 3126   0.036   3.592   6.207 -0.2958  0.4354 -0.1509
 1062TIP3    H1 3127   0.046   3.650   6.132 -0.2249 -0.9125 -1.2085
 1062TIP3    H2 3128  -0.030   3.528   6.180 -0.6045  0.1776  1.1114
 1063TIP3   OH2 3129   1.087   1.238   6.497 -0.3058  0.4000 -0.0710
 1063TIP3    H1 3130   0.996   1.263   6.512 -0.0457  0.9595  0.6678
 1063TIP3    H2 3131   1.117   1.205   6.582 -0.8306 -3.2776 -1.1197
 1064TIP3   OH2 3132   4.398   7.331   2.226 -1.0780 -0.1530  0.3032
 1064TIP3    H1 3133   4.358   7.244   2.231 -0.8853 -0.3953 -1.7365
 1064TIP3    H2 3134   4.381   7.360   2.137 -0.8503  1.7913  0.8603
 1065TIP3   OH2 3135   6.369   0.548   5.561 -0.4882 -0.0993 -0.0339
 1065TIP3    H1 3136   6.366   0.643   5.562 -1.7128 -0.1209 -0.1474
 1065TIP3    H2 3137   6.306   0.522   5.494 -0.3583 -0.9931  0.1689
 1066TIP3   OH2 3138   2.336   0.352   3.452  0.1647  0.1936 -0.0135
 1066TIP3    H1 3139   2.418   0.398   3.430  1.4362 -0.6476  2.5809
 1066TIP3    H2 3140   2.269   0.420   3.447  0.6542  0.6114 -3.6565
 1067TIP3   OH2 3141   6.661   2.477   0.101 -0.3112 -0.1991  0.5202
 1067TIP3    H1 3142   6.732   2.535   0.129 -0.8868  2.1068 -2.2677
 1067TIP3    H2 3143   6.700   2.423   0.032 -1.2053  1.3301 -1.2833
 1068TIP3   OH2 3144   5.347   5.129   0.166  0.1537 -0.0788  0.1064
 1068TIP3    H1 3145   5.432   5.086   0.157  0.5085  0.4274  0.9427
 1068TIP3    H2 3146   5.296   5.069   0.221 -0.4574 -0.9558 -1.3509
 1069TIP3   OH2 3147   3.519   3.932   4.595 -0.0933  0.1448  0.7264
 1069TIP3    H1 3148   3.501   4.005   4.535 -0.0717 -1.3651 -1.2347
 1069TIP3    H2 3149   3.433   3.909   4.631 -0.6315 -0.7187 -0.9722
 1070TIP3   OH2 3150   6.498   3.839   6.367 -0.4153 -0.9320  0.5019
 1070TIP3    H1 3151   6.580   3.845   6.416 -0.1082  1.0067 -0.1946
 1070TIP3    H2 3152   6.518   3.784   6.292  0.4614  0.0951 -0.0352
 1071TIP3   OH2 3153   5.899   3.110   2.384  0.0631 -0.0972 -0.4277
 1071TIP3    H1 3154   5.859   3.190   2.349 -3.6865 -0.8002  1.7565
 1071TIP3    H2 3155   5.952   3.141   2.458 -2.2976  0.4095  1.1448
 1072TIP3   OH2 3156   2.752   1.966   3.810  0.4318  0.0167 -0.1556
 1072TIP3    H1 3157   2.708   2.018   3.878 -0.5031 -1.0796  0.1090
 1072TIP3    H2 3158   2.686   1.956   3.741  0.6727 -0.6120 -0.3013
 1073TIP3   OH2 3159   1.295   2.429   5.835 -0.8317 -0.5598 -0.2069
 1073TIP3    H1 3160   1.381   2.465   5.812 -0.0120 -1.9506  0.5132
 1073TIP3    H2 3161   1.315   2.353   5.890 -2.5872  1.3138  3.3000
 1074TIP3   OH2 3162   1.699   4.852   0.617  0.2929 -0.3028  0.5443
 1074TIP3    H1 3163   1.702   4.784   0.549  0.2646  1.1831 -1.0262
 1074TIP3    H2 3164   1.612   4.842   0.656 -0.3107 -0.2593 -0.7048
 1075TIP3   OH2 3165   8.117   1.946   2.604 -0.4338 -0.1463  0.4677
 1075TIP3    H1 3166   8.095   1.853   2.602 -1.6759  0.1311  0.5457
 1075TIP3    H2 3167   8.177   1.958   2.530 -2.3929 -0.5101 -1.2803
 1076TIP3   OH2 3168   2.447   2.572   3.034 -0.2080  0.2602  0.7763
 1076TIP3    H1 3169   2.389   2.545   3.104  0.4022 -0.6103  0.9624
 1076TIP3    H2 3170   2.410   2.532   2.955 -0.0086 -0.0894  0.8570
 1077TIP3   OH2 3171   4.733   0.221   2.394  0.2312 -0.0693 -0.0106
 1077TIP3    H1 3172   4.825   0.242   2.412  0.3424  0.5417 -1.2590
 1077TIP3    H2 3173   4.694   0.212   2.481  1.4598 -0.3040  0.5405
 1078TIP3   OH2 3174   6.178   4.555   2.324  0.1959 -0.8908 -0.3483
 1078TIP3    H1 3175   6.265   4.516   2.337  0.6980  0.1941 -0.3627
 1078TIP3    H2 3176   6.120   4.480   2.312  1.3959 -1.6054 -2.0006
 1079TIP3   OH2 3177   0.172   6.566   5.144 -0.0720 -0.0538  0.1723
 1079TIP3    H1 3178   0.082   6.533   5.148 -0.0980 -0.3654 -1.8884
 1079TIP3    H2 3179   0.193   6.590   5.234 -1.7095 -1.3229  0.9462
 1080TIP3   OH2 3180   3.621   6.957   6.764  0.0209  0.2728  0.6503
 1080TIP3    H1 3181   3.659   7.036   6.725 -2.0083  0.2843 -1.5339
 1080TIP3    H2 3182   3.544   6.988   6.812 -0.6470 -0.3062 -0.0115
 1081TIP3   OH2 3183   5.611   5.797   6.495 -0.4344  0.3329  0.1276
 1081TIP3    H1 3184   5.655   5.716   6.470 -0.5103  0.2101  0.3810
 1081TIP3    H2 3185   5.680   5.863   6.495 -0.4436  0.3493 -0.4540
 1082TIP3   OH2 3186   5.717   6.930   0.585 -0.0720  0.2268  0.5631
 1082TIP3    H1 3187   5.680   7.016   0.567  1.0635  0.7514  0.6726
 1082TIP3    H2 3188   5.791   6.947   0.643  0.4806 -0.7681  0.1809
 1083TIP3   OH2 3189   3.194   7.753   1.145 -0.0450  0.3080  0.0861
 1083TIP3    H1 3190   3.102   7.773   1.126 -0.0860 -0.6869 -0.8663
 1083TIP3    H2 3191   3.236   7.749   1.059  0.3728 -1.5426  0.3385
 1084TIP3   OH2 3192   4.586   3.128   4.160 -0.4190  0.0952 -0.0628
 1084TIP3    H1 3193   4.578   3.212   4.115 -1.0838  0.2765  0.3675
 1084TIP3    H2 3194   4.680   3.112   4.165 -0.3194  0.1954 -1.2653
 1085TIP3   OH2 3195   3.831   1.235   4.737 -0.0958 -0.3660 -0.0249
 1085TIP3    H1 3196   3.831   1.311   4.796 -0.1751 -0.2169 -0.2153
 1085TIP3    H2 3197   3.780   1.169   4.782 -2.2395  0.5588 -0.9660
 1086TIP3   OH2 3198   5.676   3.449   3.042 -0.6502 -0.2582 -0.1624
 1086TIP3    H1 3199   5.752   3.416   3.090  0.0328 -1.2542 -1.8469
 1086TIP3    H2 3200   5.617   3.374   3.034 -1.6808  0.4065  0.7930
 1087TIP3   OH2 3201   0.156   5.948   3.867 -0.3095 -0.3061 -0.2137
 1087TIP3    H1 3202   0.167   5.942   3.772  0.3177  0.2806 -0.1837
 1087TIP3    H2 3203   0.212   5.878   3.902  1.7699  1.3053 -0.1615
 1088TIP3   OH2 3204   1.038   0.562   6.009  0.4837 -0.0116  0.1965
 1088TIP3    H1 3205   1.064   0.491   6.067 -1.0852  0.0555  1.0310
 1088TIP3    H2 3206   1.042   0.641   6.063 -0.3751  0.1445  0.0444
 1089TIP3   OH2 3207   0.512   5.860   4.460  0.1190  0.1862  0.1233
 1089TIP3    H1 3208   0.525   5.767   4.477  0.9490  0.4990  1.3943
 1089TIP3    H2 3209   0.418   5.874   4.474 -0.2112 -0.6357 -1.1357
 1090TIP3   OH2 3210   6.018   5.825   4.738  0.5918  0.1567 -0.1093
 1090TIP3    H1 3211   5.957   5.754   4.761 -1.1910  1.9313  0.9273
 1090TIP3    H2 3212   6.105   5.786   4.750 -0.2955 -1.2120  2.6168
 1091TIP3   OH2 3213   0.785   4.771   6.196  0.3330 -0.0505 -0.3504
 1091TIP3    H1 3214   0.812   4.849   6.148 -0.3318 -0.0820 -0.7880
 1091TIP3    H2 3215   0.761   4.708   6.128  1.2986 -0.8009 -0.0096
 1092TIP3   OH2 3216   0.644   3.766   1.515 -0.2285 -0.5334  0.0200
 1092TIP3    H1 3217   0.736   3.770   1.543 -0.3061  1.3014  0.1214
 1092TIP3    H2 3218   0.609   3.688   1.558  0.5983  0.2110  2.1832
 1093TIP3   OH2 3219   6.316   0.716   2.242  0.3719 -0.1184  0.1222
 1093TIP3    H1 3220   6.379   0.681   2.179 -1.0171 -1.1770 -0.7405
 1093TIP3    H2 3221   6.299   0.644   2.302 -1.6831 -0.6364 -1.0077
 1094TIP3   OH2 3222   3.928   0.816   5.226  0.0051  0.4660 -0.0872
 1094TIP3    H1 3223   4.001   0.771   5.268 -1.0595  0.0976  1.4883
 1094TIP3    H2 3224   3.924   0.779   5.138  2.2323  1.1348 -0.5464
 1095TIP3   OH2 3225   7.073   7.099   3.847 -0.0102  0.2395  0.1575
 1095TIP3    H1 3226   7.153   7.068   3.804  0.3619  0.2898  0.8046
 1095TIP3    H2 3227   7.079   7.065   3.936 -0.3371  0.9056  0.4400
 1096TIP3   OH2 3228   7.174   2.174   4.308  0.8760  0.2777 -0.5551
 1096TIP3    H1 3229   7.245   2.123   4.270  1.6249  1.0259 -0.1938
 1096TIP3    H2 3230   7.213   2.216   4.384  0.3255  1.5285 -0.9408
 1097TIP3   OH2 3231   7.375   0.606   6.755 -0.0181 -0.1379  0.1172
 1097TIP3    H1 3232   7.352   0.517   6.782 -1.8024  1.0712  3.1387
 1097TIP3    H2 3233   7.436   0.636   6.822  0.3002  1.0318 -0.6654
 1098TIP3   OH2 3234   7.583   2.235   0.503  0.0468  0.2719  0.0447
 1098TIP3    H1 3235   7.549   2.170   0.564  0.1545 -0.2170 -0.4083
 1098TIP3    H2 3236   7.572   2.195   0.416  3.5941 -0.8180 -0.0448
 1099TIP3   OH2 3237   0.787   3.684   3.900 -0.1234  0.5619 -0.0587
 1099TIP3    H1 3238   0.856   3.640   3.850  1.2465  1.5208  0.9240
 1099TIP3    H2 3239   0.723   3.710   3.833 -0.1923 -1.4494 -0.8411
 1100TIP3   OH2 3240   2.555   4.167   1.657  0.2119 -0.3737  0.5003
 1100TIP3    H1 3241   2.600   4.180   1.740 -0.4793  0.8123  0.7139
 1100TIP3    H2 3242   2.510   4.083   1.666  0.6979 -0.5752  1.0555
 1101TIP3   OH2 3243   2.762   1.352   6.387  0.2770  0.0926  0.0749
 1101TIP3    H1 3244   2.843   1.396   6.362  0.4782 -0.6277 -0.5678
 1101TIP3    H2 3245   2.784   1.305   6.468 -0.1382  1.7110  1.1980
 1102TIP3   OH2 3246   8.357   7.196   4.541 -0.1933 -0.2056 -0.0754
 1102TIP3    H1 3247   8.330   7.238   4.622 -2.1707 -0.9143 -0.3095
 1102TIP3    H2 3248   8.413   7.124   4.569  2.5307  1.9200  0.3723
 1103TIP3   OH2 3249   1.968   1.547   4.939  0.1467 -0.7334  0.5133
 1103TIP3    H1 3250   1.916   1.476   4.904 -0.4603  0.2969 -0.7472
 1103TIP3    H2 3251   1.980   1.525   5.032  1.0992 -3.1071 -0.1087
 1104TIP3   OH2 3252   4.259   4.126   0.537  0.1191  0.6594  0.4635
 1104TIP3    H1 3253   4.235   4.042   0.575  0.8980  0.4872  0.5728
 1104TIP3    H2 3254   4.233   4.118   0.445 -0.2727  0.4925  0.5840
 1105TIP3   OH2 3255   7.635   2.676   6.395  0.4321 -0.0079 -0.2523
 1105TIP3    H1 3256   7.543   2.699   6.384  0.0984 -2.3752 -3.7603
 1105TIP3    H2 3257   7.643   2.655   6.488 -3.2273 -1.9830 -0.1860
 1106TIP3   OH2 3258   3.238   3.798   4.946 -0.3736 -0.3249  0.0507
 1106TIP3    H1 3259   3.193   3.879   4.968 -3.4534 -1.9236  0.2547
 1106TIP3    H2 3260   3.255   3.804   4.852 -1.1233  0.2989 -0.0520
 1107TIP3   OH2 3261   5.053   5.870   3.391  0.7275 -0.2968  0.3159
 1107TIP3    H1 3262   5.001   5.820   3.329  0.8981 -1.6797  1.2300
 1107TIP3    H2 3263   5.016   5.847   3.477  0.3861  1.6805  0.7609
 1108TIP3   OH2 3264   5.375   2.402   3.561  0.3032 -0.1303  0.1087
 1108TIP3    H1 3265   5.387   2.492   3.532  0.4056 -0.5989 -1.4227
 1108TIP3    H2 3266   5.342   2.409   3.650 -2.7707  1.5207 -1.0144
 1109TIP3   OH2 3267   1.345   4.626   0.477  0.1860  0.0154 -0.6041
 1109TIP3    H1 3268   1.257   4.596   0.502 -0.0700  1.0794 -0.1365
 1109TIP3    H2 3269   1.405   4.569   0.525 -0.2753  0.1508  0.1521
 1110TIP3   OH2 3270   5.017   2.732   5.623 -0.6123 -0.3957 -0.0170
 1110TIP3    H1 3271   5.108   2.731   5.652 -0.7570  3.5933  1.1604
 1110TIP3    H2 3272   4.972   2.674   5.685  0.8324 -1.1421  0.3963
 1111TIP3   OH2 3273   4.376   3.074   5.037  0.4468  0.3645  0.1741
 1111TIP3    H1 3274   4.399   2.990   5.077  0.6271 -0.4124 -1.4426
 1111TIP3    H2 3275   4.389   3.059   4.943  0.9741  2.3779 -0.1122
 1112TIP3   OH2 3276   2.326   0.218   5.849  0.8356  0.3630  0.0746
 1112TIP3    H1 3277   2.364   0.248   5.931 -0.5272 -0.1489  0.9255
 1112TIP3    H2 3278   2.252   0.164   5.875  0.5636 -0.0742 -1.4922
 1113TIP3   OH2 3279   2.766   1.459   5.623  0.0410  0.0963 -0.6018
 1113TIP3    H1 3280   2.811   1.540   5.645 -3.7436  1.8053  2.0189
 1113TIP3    H2 3281   2.815   1.390   5.669  2.6947  0.9096 -2.0051
 1114TIP3   OH2 3282   3.956   1.784   3.897  0.0499  0.3479  0.3152
 1114TIP3    H1 3283   4.001   1.869   3.895 -0.9424  0.8832  0.1307
 1114TIP3    H2 3284   3.864   1.806   3.912 -0.2150 -0.7045  0.2984
 1115TIP3   OH2 3285   2.424   5.422   0.803 -0.1482  0.0160 -0.0769
 1115TIP3    H1 3286   2.352   5.422   0.739 -0.8127 -1.5700  0.6236
 1115TIP3    H2 3287   2.457   5.512   0.802 -1.3136  0.4573 -1.3472
 1116TIP3   OH2 3288   4.813   7.914   5.522  0.3631 -0.6350 -0.2532
 1116TIP3    H1 3289   4.790   7.852   5.452  0.0345  0.6271 -1.2946
 1116TIP3    H2 3290   4.732   7.962   5.538  0.2093 -1.4354  1.5888
 1117TIP3   OH2 3291   1.984   4.416   5.770  0.1587  0.3514 -0.0809
 1117TIP3    H1 3292   2.026   4.332   5.786  0.0686  0.2803 -0.2194
 1117TIP3    H2 3293   1.979   4.457   5.856 -3.0719 -1.3096  0.6868
 1118TIP3   OH2 3294   6.245   3.486   2.898 -0.5686 -0.2242  0.4567
 1118TIP3    H1 3295   6.174   3.515   2.841  1.0185  0.6003 -1.2086
 1118TIP3    H2 3296   6.210   3.493   2.986 -2.5765  0.0250 -0.3091
 1119TIP3   OH2 3297   5.911   4.101   1.581 -0.0468  0.5384 -0.6178
 1119TIP3    H1 3298   5.933   4.190   1.610  1.6114 -0.1093  0.2629
 1119TIP3    H2 3299   5.818   4.105   1.560  0.0792  2.5752 -0.9713
 1120TIP3   OH2 3300   1.502   3.770   0.760 -0.1972  0.0071  0.0507
 1120TIP3    H1 3301   1.585   3.812   0.783  0.1757 -0.3367 -0.6674
 1120TIP3    H2 3302   1.440   3.843   0.749  0.5512  0.4220 -1.6286
 1121TIP3   OH2 3303   3.896   3.392   5.180 -0.1833  0.5619  0.2593
 1121TIP3    H1 3304   3.889   3.357   5.091 -1.6316  0.8958  0.2045
 1121TIP3    H2 3305   3.919   3.484   5.168 -0.2731  0.5805  0.2244
 1122TIP3   OH2 3306   6.160   7.211   0.329 -0.1343 -0.4716  0.8544
 1122TIP3    H1 3307   6.090   7.218   0.264  0.5238 -0.1094  0.1786
 1122TIP3    H2 3308   6.121   7.159   0.400  0.6351 -5.3822 -1.9113
 1123TIP3   OH2 3309   3.387   0.545   1.286 -0.3109 -0.3699 -0.9031
 1123TIP3    H1 3310   3.465   0.588   1.251 -1.4233  0.4176 -2.4968
 1123TIP3    H2 3311   3.367   0.593   1.366  1.1672 -0.9941 -0.1020
 1124TIP3   OH2 3312   8.264   4.190   2.276 -0.3667  0.4235 -1.0758
 1124TIP3    H1 3313   8.210   4.264   2.247 -1.5092 -0.3266 -0.9556
 1124TIP3    H2 3314   8.341   4.230   2.315 -0.4187  1.5232 -2.0460
 1125TIP3   OH2 3315   8.176   7.829   2.273 -0.1467  0.2753 -0.1696
 1125TIP3    H1 3316   8.122   7.758   2.308  1.2712 -1.4190 -1.2454
 1125TIP3    H2 3317   8.242   7.845   2.340 -0.4428  0.5751  0.0559
 1126TIP3   OH2 3318   0.391   4.587   6.331 -0.0457 -0.8756 -0.4276
 1126TIP3    H1 3319   0.369   4.520   6.396 -0.5559 -0.5039 -0.2134
 1126TIP3    H2 3320   0.465   4.635   6.369 -2.0706  1.1713  1.2240
 1127TIP3   OH2 3321   5.603   3.981   6.747  0.2627 -0.6378 -0.5099
 1127TIP3    H1 3322   5.605   3.936   6.662 -1.2753 -1.3562 -0.2056
 1127TIP3    H2 3323   5.550   3.924   6.802  0.2886  0.3954  0.6080
 1128TIP3   OH2 3324   5.326   3.849   0.054 -0.3888 -0.0184  0.2275
 1128TIP3    H1 3325   5.419   3.869   0.048 -0.3968  0.8352  2.1433
 1128TIP3    H2 3326   5.311   3.834   0.147 -1.9303 -1.4414 -0.2088
 1129TIP3   OH2 3327   6.956   7.743   4.600  0.1219  0.4166 -0.0149
 1129TIP3    H1 3328   6.937   7.668   4.545  1.8611  1.4801 -2.2415
 1129TIP3    H2 3329   6.915   7.723   4.684 -1.2578 -2.0200 -1.1782
 1130TIP3   OH2 3330   3.742   0.634   6.379  0.1907  0.0524 -0.0771
 1130TIP3    H1 3331   3.783   0.702   6.326 -0.1650  1.1598  1.0370
 1130TIP3    H2 3332   3.661   0.673   6.410  0.3138 -0.6156  1.1491
 1131TIP3   OH2 3333   1.701   3.555   4.796 -0.9458  0.4040  0.4456
 1131TIP3    H1 3334   1.704   3.482   4.858  2.6024 -0.1647 -0.1407
 1131TIP3    H2 3335   1.670   3.515   4.714  1.0981 -0.6100  0.0935
 1132TIP3   OH2 3336   2.235   0.873   2.126 -0.4729  0.3011 -0.1318
 1132TIP3    H1 3337   2.225   0.797   2.183 -2.1589  0.8387  0.3775
 1132TIP3    H2 3338   2.150   0.882   2.082  0.9449 -0.4409 -3.2789
 1133TIP3   OH2 3339   1.738   7.692   0.170  0.8442  0.1625 -0.2127
 1133TIP3    H1 3340   1.708   7.709   0.081  2.4338 -0.5328 -0.9126
 1133TIP3    H2 3341   1.812   7.752   0.182  1.0921 -0.2523  0.3677
 1134TIP3   OH2 3342   7.402   3.497   2.457 -0.7415  0.3801  0.1207
 1134TIP3    H1 3343   7.412   3.569   2.394  0.0808 -0.6667 -0.9869
 1134TIP3    H2 3344   7.435   3.420   2.411 -1.3854 -0.6803  1.3683
 1135TIP3   OH2 3345   0.267   5.211   2.808  0.7736 -0.7837 -0.2113
 1135TIP3    H1 3346   0.206   5.255   2.749  2.3614  2.7798  0.5016
 1135TIP3    H2 3347   0.217   5.140   2.847 -2.4231  0.9772 -0.8090
 1136TIP3   OH2 3348   7.606   6.454   0.730 -0.0822 -0.0786  0.4458
 1136TIP3    H1 3349   7.555   6.498   0.798  1.6707  0.1339  1.6965
 1136TIP3    H2 3350   7.697   6.478   0.749  0.6902 -2.1229 -0.4117
 1137TIP3   OH2 3351   3.000   1.300   0.075 -0.0457  0.2769  0.0636
 1137TIP3    H1 3352   2.911   1.283   0.042 -0.3226  3.5784 -1.2635
 1137TIP3    H2 3353   2.989   1.370   0.138  1.5032 -0.2458  0.9600
 1138TIP3   OH2 3354   3.467   4.243   4.959  0.4302 -0.6910  0.5488
 1138TIP3    H1 3355   3.389   4.298   4.959  0.6858 -0.2914 -0.5392
 1138TIP3    H2 3356   3.528   4.288   4.900  1.2673 -1.2866  0.9369
 1139TIP3   OH2 3357   6.058   2.695   5.238 -0.1235  0.0242 -0.1396
 1139TIP3    H1 3358   6.135   2.739   5.274  0.1524 -1.2552  0.9319
 1139TIP3    H2 3359   6.011   2.662   5.315 -0.6980 -0.9002 -0.8567
 1140TIP3   OH2 3360   5.871   2.530   4.294 -0.7483  0.6214 -0.0680
 1140TIP3    H1 3361   5.892   2.545   4.202  0.5383  1.3964  0.3259
 1140TIP3    H2 3362   5.785   2.572   4.307  0.1835  2.7230 -0.3538
 1141TIP3   OH2 3363   7.919   6.972   2.966  0.9015  0.2734 -0.2653
 1141TIP3    H1 3364   7.908   6.884   2.929  3.4316 -0.6839  1.0571
 1141TIP3    H2 3365   7.863   6.972   3.044  1.1153 -0.2590 -0.1098
 1142TIP3   OH2 3366   1.672   3.027   6.208  0.1049  0.3247 -0.0325
 1142TIP3    H1 3367   1.606   3.075   6.258 -0.7414 -0.9994  0.1842
 1142TIP3    H2 3368   1.720   2.976   6.274 -1.2827 -1.7492 -0.5149
 1143TIP3   OH2 3369   8.146   2.033   2.860 -0.5604 -0.0139 -0.1593
 1143TIP3    H1 3370   8.143   2.044   2.765 -0.7189  1.1527 -0.0260
 1143TIP3    H2 3371   8.066   2.075   2.892 -1.3115 -1.7630  0.3866
 1144TIP3   OH2 3372   5.426   4.964   1.662  0.0861  0.3303 -0.1155
 1144TIP3    H1 3373   5.405   5.039   1.607 -2.0908  1.3339  1.8897
 1144TIP3    H2 3374   5.492   4.996   1.723  0.2313  0.1473 -0.1738
 1145TIP3   OH2 3375   1.493   5.130   5.058  0.0869  0.1096 -0.0910
 1145TIP3    H1 3376   1.403   5.107   5.035  0.0851  0.7047 -0.6953
 1145TIP3    H2 3377   1.508   5.087   5.143 -0.1277 -1.5719 -0.8636
 1146TIP3   OH2 3378   6.670   5.218   0.522  0.2038 -0.0910  0.6670
 1146TIP3    H1 3379   6.696   5.131   0.554  1.6171 -0.0030 -0.1522
 1146TIP3    H2 3380   6.674   5.274   0.600  0.7923 -0.4555  0.9063
 1147TIP3   OH2 3381   1.435   6.327   1.235  0.0732 -0.0726 -0.1238
 1147TIP3    H1 3382   1.361   6.342   1.177 -1.1544 -0.4568  1.2826
 1147TIP3    H2 3383   1.403   6.263   1.299  1.2742  0.5332  1.1393
 1148TIP3   OH2 3384   8.343   2.792   2.705 -0.6278 -0.6764  0.2360
 1148TIP3    H1 3385   8.254   2.794   2.670 -0.1962 -0.6372 -0.9014
 1148TIP3    H2 3386   8.364   2.884   2.724 -0.4964 -0.5550 -0.4322
 1149TIP3   OH2 3387   2.059   4.735   6.496  0.0800  0.2759 -0.4131
 1149TIP3    H1 3388   1.994   4.693   6.553 -3.1032  1.8949 -2.5483
 1149TIP3    H2 3389   2.111   4.789   6.556 -0.9347 -0.6010  1.3629
 1150TIP3   OH2 3390   4.239   1.530   3.341  0.1747  0.2138 -0.1030
 1150TIP3    H1 3391   4.215   1.451   3.389  0.4398 -0.2681 -0.7495
 1150TIP3    H2 3392   4.230   1.600   3.405  0.0406 -0.3512  0.5115
 1151TIP3   OH2 3393   7.275   2.659   1.762  0.2390 -0.8526 -0.2481
 1151TIP3    H1 3394   7.192   2.621   1.791 -1.3329  0.9314 -2.0699
 1151TIP3    H2 3395   7.329   2.665   1.841 -1.0973 -2.6528  0.8648
 1152TIP3   OH2 3396   1.099   6.120   5.564 -0.2923  0.0803  0.1596
 1152TIP3    H1 3397   1.096   6.206   5.523  0.9537  0.5557  1.0271
 1152TIP3    H2 3398   1.043   6.129   5.641  2.1399  1.0622  1.9073
 1153TIP3   OH2 3399   6.236   5.239   2.674  0.6758 -0.2770 -0.1243
 1153TIP3    H1 3400   6.317   5.286   2.653  0.2131  0.2002 -0.9096
 1153TIP3    H2 3401   6.256   5.190   2.753  1.5923  0.1952 -0.0531
 1154TIP3   OH2 3402   8.073   7.389   4.450  0.3787  0.4110 -0.0036
 1154TIP3    H1 3403   8.115   7.312   4.412 -0.3443 -0.1069  0.2352
 1154TIP3    H2 3404   8.117   7.401   4.534  1.1082  0.8040 -0.4297
 1155TIP3   OH2 3405   4.934   3.166   2.337  0.3433  0.0177  0.0821
 1155TIP3    H1 3406   4.941   3.070   2.336  0.5248  0.0334 -1.0871
 1155TIP3    H2 3407   4.868   3.184   2.404  0.3644 -0.9200  0.3693
 1156TIP3   OH2 3408   3.398   7.519   5.949  0.3348  0.4490  0.8138
 1156TIP3    H1 3409   3.391   7.484   5.861 -1.0523 -0.0873  1.1087
 1156TIP3    H2 3410   3.316   7.494   5.992 -0.3708  3.2197  1.3397
 1157TIP3   OH2 3411   4.414   6.584   2.638  0.2977  0.3497  0.5318
 1157TIP3    H1 3412   4.504   6.559   2.617  0.3722 -0.4149  1.6681
 1157TIP3    H2 3413   4.391   6.649   2.571  1.6113  0.3991  0.0942
 1158TIP3   OH2 3414   6.518   6.233   1.041  0.5334  0.3045 -0.1439
 1158TIP3    H1 3415   6.587   6.222   1.107  0.4677  0.7807  0.0089
 1158TIP3    H2 3416   6.528   6.323   1.010  0.8105 -0.0314 -1.0757
 1159TIP3   OH2 3417   2.338   0.268   6.230  0.2517  0.3862  0.1029
 1159TIP3    H1 3418   2.408   0.304   6.177  0.8105  1.8969  1.7619
 1159TIP3    H2 3419   2.265   0.329   6.219  0.3452  0.6671  0.9739
 1160TIP3   OH2 3420   0.528   7.438   0.962 -0.4275 -0.3771  0.7424
 1160TIP3    H1 3421   0.504   7.345   0.959 -1.0358 -0.1934 -0.7320
 1160TIP3    H2 3422   0.448   7.483   0.935 -0.3529  0.6315  2.1262
 1161TIP3   OH2 3423   8.023   1.566   2.250  0.2337  0.2661 -0.5860
 1161TIP3    H1 3424   8.033   1.473   2.231  0.0284  0.3079 -0.9042
 1161TIP3    H2 3425   8.087   1.609   2.194 -0.5845  0.4132 -1.4272
 1162TIP3   OH2 3426   8.197   5.295   4.100 -0.4084 -0.4878 -0.1098
 1162TIP3    H1 3427   8.285   5.259   4.090  0.2202  1.2485 -1.2286
 1162TIP3    H2 3428   8.210   5.389   4.101 -1.9286 -0.1725  3.2578
 1163TIP3   OH2 3429   6.069   0.989   2.994  0.7064 -0.1832 -0.5002
 1163TIP3    H1 3430   6.003   1.022   3.056  1.7866 -0.1864  0.7073
 1163TIP3    H2 3431   6.024   0.987   2.910 -0.3433  1.3853 -0.0298
 1164TIP3   OH2 3432   5.830   4.508   5.148 -0.4107 -0.0283 -0.1033
 1164TIP3    H1 3433   5.907   4.469   5.190 -0.4676 -1.4705 -1.2651
 1164TIP3    H2 3434   5.808   4.583   5.203  0.0743 -1.2986  1.9277
 1165TIP3   OH2 3435   5.270   3.357   4.057  0.0416 -0.3891  0.1731
 1165TIP3    H1 3436   5.253   3.266   4.083  1.2044 -0.5073  0.5624
 1165TIP3    H2 3437   5.316   3.349   3.973 -0.2865 -0.1417 -0.0311
 1166TIP3   OH2 3438   7.759   5.347   3.698  0.0314  0.1835  0.5843
 1166TIP3    H1 3439   7.718   5.310   3.776 -1.1514  0.2158  0.0116
 1166TIP3    H2 3440   7.789   5.433   3.724  0.8469 -0.3188  1.3471
 1167TIP3   OH2 3441   5.255   3.933   1.212 -0.3107  0.6274 -0.0246
 1167TIP3    H1 3442   5.174   3.977   1.237 -0.9292 -0.1154 -0.6569
 1167TIP3    H2 3443   5.226   3.859   1.158  0.6600 -0.6690  1.1506
 1168TIP3   OH2 3444   3.363   4.328   1.786  0.0615 -0.6541  0.6681
 1168TIP3    H1 3445   3.374   4.235   1.766  2.0632  0.0750 -2.2295
 1168TIP3    H2 3446   3.316   4.364   1.710 -1.0289  0.6711  1.9124
 1169TIP3   OH2 3447   5.463   1.175   6.327 -0.3772  0.0267  0.3193
 1169TIP3    H1 3448   5.397   1.241   6.349  0.3488  1.1050 -0.6756
 1169TIP3    H2 3449   5.528   1.222   6.275  0.2257 -1.4467 -0.3022
 1170TIP3   OH2 3450   0.206   1.648   2.785  0.0766 -0.0285  0.6009
 1170TIP3    H1 3451   0.119   1.608   2.792 -1.0725  1.6046 -2.4985
 1170TIP3    H2 3452   0.239   1.618   2.700  1.4845  1.3347  0.6387
 1171TIP3   OH2 3453   8.313   4.876   3.974 -0.5518 -0.7471  0.2430
 1171TIP3    H1 3454   8.285   4.838   4.057 -3.0655 -2.3118 -1.2225
 1171TIP3    H2 3455   8.340   4.801   3.920 -0.0301  0.1242 -0.7574
 1172TIP3   OH2 3456   1.593   3.058   4.017  0.3549 -0.2587  0.1764
 1172TIP3    H1 3457   1.649   3.021   3.948  1.2442  3.1362 -1.1713
 1172TIP3    H2 3458   1.652   3.067   4.093  1.0471  1.0144 -0.4601
 1173TIP3   OH2 3459   1.667   3.200   4.667 -0.1315  0.2364  0.4306
 1173TIP3    H1 3460   1.719   3.200   4.586 -1.7577  0.7063 -0.6604
 1173TIP3    H2 3461   1.603   3.270   4.655 -0.0556  0.7173  2.4042
 1174TIP3   OH2 3462   1.932   3.918   6.388 -0.1121  0.3329  0.1637
 1174TIP3    H1 3463   1.996   3.954   6.450  1.0968  1.2788 -1.5578
 1174TIP3    H2 3464   1.976   3.921   6.303 -2.1682  0.3117 -0.9705
 1175TIP3   OH2 3465   6.237   0.093   3.479 -0.2422 -0.0602  0.3290
 1175TIP3    H1 3466   6.259   0.041   3.556 -2.1077  0.3677  1.2299
 1175TIP3    H2 3467   6.246   0.184   3.508 -3.4129  0.1660  0.9619
 1176TIP3   OH2 3468   7.083   1.164   6.357 -0.9893  0.4604  0.4130
 1176TIP3    H1 3469   7.090   1.211   6.273 -1.3855  1.1424  0.7557
 1176TIP3    H2 3470   7.030   1.087   6.337 -1.3742  0.7984  0.1108
 1177TIP3   OH2 3471   2.026   6.066   3.585  0.3467 -0.0756 -1.0319
 1177TIP3    H1 3472   1.995   6.055   3.495 -0.2298  0.8852 -0.9694
 1177TIP3    H2 3473   2.091   6.136   3.579 -1.6091  1.9435 -0.3674
 1178TIP3   OH2 3474   7.405   1.181   2.543  0.3798  0.1620  0.6516
 1178TIP3    H1 3475   7.331   1.138   2.585 -0.5718  1.1311 -0.0119
 1178TIP3    H2 3476   7.393   1.274   2.560  1.0834  0.3967 -0.0342
 1179TIP3   OH2 3477   5.322   1.665   4.926 -0.0259 -0.1624 -0.4363
 1179TIP3    H1 3478   5.398   1.682   4.982  1.3899 -1.5297 -1.8435
 1179TIP3    H2 3479   5.274   1.595   4.971  0.1333 -0.0272 -0.0562
 1180TIP3   OH2 3480   0.926   4.988   3.222  0.2967  0.5757  0.0903
 1180TIP3    H1 3481   0.884   5.073   3.226  0.1405  0.5322 -0.5181
 1180TIP3    H2 3482   0.869   4.930   3.274  0.3714  0.8201  0.4515
 1181TIP3   OH2 3483   1.992   2.671   5.788  0.0848 -0.5298  0.3101
 1181TIP3    H1 3484   1.897   2.661   5.795  0.0664  0.1336  1.0409
 1181TIP3    H2 3485   2.004   2.724   5.709 -0.1540 -0.5617  0.2507
 1182TIP3   OH2 3486   5.713   6.577   1.722  0.1281 -0.2014 -0.0002
 1182TIP3    H1 3487   5.784   6.602   1.782  0.2480  1.2935 -0.7286
 1182TIP3    H2 3488   5.633   6.591   1.773  0.3104 -1.9044  0.8289
 1183TIP3   OH2 3489   7.575   6.845   3.014  0.2736 -0.2540 -1.2797
 1183TIP3    H1 3490   7.568   6.935   3.046  1.1219 -0.4158 -0.5878
 1183TIP3    H2 3491   7.496   6.801   3.047  0.2057  0.0603 -1.0181
 1184TIP3   OH2 3492   5.453   1.895   0.547  0.1084 -0.0423  0.1726
 1184TIP3    H1 3493   5.426   1.872   0.635  0.9395 -1.4901  0.0757
 1184TIP3    H2 3494   5.548   1.896   0.550  0.1424  1.0762 -0.4407
 1185TIP3   OH2 3495   6.390   4.539   4.624  0.1820 -0.1838 -1.1126
 1185TIP3    H1 3496   6.462   4.495   4.579  0.4670  0.5517 -1.3862
 1185TIP3    H2 3497   6.421   4.550   4.714 -0.0518 -0.8930 -0.9366
 1186TIP3   OH2 3498   0.633   7.256   5.416  0.4842 -0.1860 -0.1947
 1186TIP3    H1 3499   0.585   7.186   5.459 -1.1979  1.6331  1.0567
 1186TIP3    H2 3500   0.565   7.309   5.374  1.4970  1.7108  0.4748
 1187TIP3   OH2 3501   2.415   2.055   3.820 -0.2563 -0.2364  0.3066
 1187TIP3    H1 3502   2.321   2.071   3.835 -0.0401  0.9821  0.4892
 1187TIP3    H2 3503   2.457   2.084   3.901  0.3374 -0.0780 -0.0554
 1188TIP3   OH2 3504   4.821   4.553   3.895  0.3533  0.3801  0.2875
 1188TIP3    H1 3505   4.735   4.560   3.936  0.8086 -1.1267  1.6261
 1188TIP3    H2 3506   4.859   4.474   3.934  1.8955  0.3895 -1.1111
 1189TIP3   OH2 3507   3.923   2.395   4.671  0.1664  0.2551  0.6739
 1189TIP3    H1 3508   3.996   2.385   4.732  0.2135 -0.4176  0.5239
 1189TIP3    H2 3509   3.961   2.374   4.585  0.0906  1.1464  0.4188
 1190TIP3   OH2 3510   7.095   4.556   5.251 -0.3284 -0.3632  0.4324
 1190TIP3    H1 3511   7.110   4.650   5.263  0.1212 -0.2013 -1.1462
 1190TIP3    H2 3512   7.180   4.521   5.223 -0.3835 -1.3366  1.4021
 1191TIP3   OH2 3513   2.125   4.645   1.640 -0.2748 -0.1663  0.1555
 1191TIP3    H1 3514   2.170   4.561   1.646 -1.7341 -0.8734  2.3411
 1191TIP3    H2 3515   2.186   4.708   1.679  0.5808 -0.2791 -0.9543
 1192TIP3   OH2 3516   2.074   2.640   0.506  0.0054 -0.3416  0.0027
 1192TIP3    H1 3517   2.077   2.545   0.512  0.9293 -0.3550 -0.4343
 1192TIP3    H2 3518   1.983   2.663   0.526 -0.8311 -1.4907 -2.1595
 1193TIP3   OH2 3519   5.331   1.868   5.298  0.2348 -0.4425  0.6273
 1193TIP3    H1 3520   5.392   1.903   5.233  0.1753 -0.3640  0.6124
 1193TIP3    H2 3521   5.305   1.945   5.349  1.1438 -0.6680  1.4676
 1194TIP3   OH2 3522   7.470   5.497   2.009 -0.1324 -0.0816 -0.6584
 1194TIP3    H1 3523   7.432   5.443   1.940  1.0436 -2.8160  0.6773
 1194TIP3    H2 3524   7.397   5.551   2.041 -1.0982 -0.0416 -2.7767
 1195TIP3   OH2 3525   4.648   2.167   0.817 -0.4286  0.0884  0.8232
 1195TIP3    H1 3526   4.700   2.140   0.892 -3.7782 -2.1225  2.6027
 1195TIP3    H2 3527   4.576   2.218   0.854 -1.7898 -0.4279 -0.9570
 1196TIP3   OH2 3528   0.429   5.412   1.943  0.0972 -0.0128  0.3711
 1196TIP3    H1 3529   0.374   5.398   2.020  0.8758  0.2601  0.9953
 1196TIP3    H2 3530   0.462   5.325   1.921 -2.0015 -0.4825 -1.1303
 1197TIP3   OH2 3531   4.222   0.614   0.401 -0.1221 -0.0121 -0.2769
 1197TIP3    H1 3532   4.256   0.564   0.327  1.0758 -1.2571  1.0513
 1197TIP3    H2 3533   4.148   0.563   0.433 -0.9666  0.7943 -0.9216
 1198TIP3   OH2 3534   1.987   1.196   3.304  0.3899 -0.2225 -0.1366
 1198TIP3    H1 3535   1.986   1.258   3.231 -0.2864 -0.2521 -0.1601
 1198TIP3    H2 3536   1.914   1.137   3.285 -1.2622  1.1038  1.7213
 1199TIP3   OH2 3537   2.545   3.036   5.341 -0.3413 -0.5729  0.5489
 1199TIP3    H1 3538   2.609   2.969   5.364 -0.1562 -0.4460  0.4051
 1199TIP3    H2 3539   2.469   3.017   5.396 -0.9129 -1.9056 -0.6367
 1200TIP3   OH2 3540   4.031   5.082   2.382  0.1406  0.4610 -0.0594
 1200TIP3    H1 3541   4.045   5.003   2.330 -0.5888 -0.1633  0.6765
 1200TIP3    H2 3542   4.074   5.151   2.331  1.4369 -0.5139 -0.3652
 1201TIP3   OH2 3543   5.700   4.338   3.383 -0.0895  0.1436  0.1509
 1201TIP3    H1 3544   5.691   4.417   3.329 -2.9217  0.9527  1.6586
 1201TIP3    H2 3545   5.658   4.269   3.332  0.5136  0.0519 -0.2378
 1202TIP3   OH2 3546   2.061   2.026   0.677 -0.3629  0.0931  0.3281
 1202TIP3    H1 3547   1.971   2.014   0.707 -0.2379 -0.2492  0.5740
 1202TIP3    H2 3548   2.112   2.034   0.758 -0.0704 -0.4677  0.1994
 1203TIP3   OH2 3549   6.446   3.488   5.717 -0.4352  0.0852  0.0794
 1203TIP3    H1 3550   6.506   3.562   5.708 -1.2570  0.7558 -0.0059
 1203TIP3    H2 3551   6.453   3.440   5.635  0.1638  0.0227  0.1669
 1204TIP3   OH2 3552   6.028   5.938   1.555 -0.7888  0.3511 -0.4327
 1204TIP3    H1 3553   6.086   5.983   1.493  1.0086  0.3299  1.1313
 1204TIP3    H2 3554   5.999   6.007   1.614 -0.3305 -0.0625  0.2817
 1205TIP3   OH2 3555   5.200   3.053   4.828  0.4294  0.8490 -0.2011
 1205TIP3    H1 3556   5.129   3.068   4.890 -0.3884 -0.5642 -0.7388
 1205TIP3    H2 3557   5.176   2.971   4.784  0.7335  2.0010 -2.6808
 1206TIP3   OH2 3558   7.929   7.172   6.598 -0.3090  0.1469 -0.5479
 1206TIP3    H1 3559   8.005   7.115   6.608 -1.1441 -1.1016 -0.9887
 1206TIP3    H2 3560   7.961   7.246   6.547  0.3672 -0.9073 -1.7189
 1207TIP3   OH2 3561   6.957   5.788   6.742 -0.6841 -0.0465 -0.2047
 1207TIP3    H1 3562   7.039   5.741   6.759 -0.9534 -1.0209 -1.3875
 1207TIP3    H2 3563   6.976   5.839   6.663 -1.3752 -0.7556 -0.8487
 1208TIP3   OH2 3564   5.484   2.998   2.067  0.3393 -0.8785 -0.1472
 1208TIP3    H1 3565   5.486   2.911   2.027 -0.6202 -0.4113 -1.2842
 1208TIP3    H2 3566   5.574   3.014   2.096  1.3732 -0.8800 -3.0074
 1209TIP3   OH2 3567   3.144   3.912   0.040  0.1130 -0.4818 -0.1627
 1209TIP3    H1 3568   3.119   3.900   0.132 -1.4109  2.5242 -0.0538
 1209TIP3    H2 3569   3.187   3.997   0.038 -0.8709  0.0294 -2.3649
 1210TIP3   OH2 3570   2.350   5.586   4.870 -0.0029  0.1812 -0.4513
 1210TIP3    H1 3571   2.409   5.578   4.795 -0.3911  2.1472 -1.0194
 1210TIP3    H2 3572   2.271   5.540   4.843  0.2497 -0.0545 -0.8005
 1211TIP3   OH2 3573   8.219   3.442   5.534  0.4815  0.0669 -0.9593
 1211TIP3    H1 3574   8.280   3.397   5.476  0.2662 -1.9660  0.2690
 1211TIP3    H2 3575   8.199   3.377   5.602 -2.2369  1.0182 -0.7346
 1212TIP3   OH2 3576   1.340   1.432   2.996 -0.1835 -0.4339  0.2600
 1212TIP3    H1 3577   1.371   1.500   3.056  0.4791 -1.3563  0.9777
 1212TIP3    H2 3578   1.245   1.433   3.007 -0.1805  0.3758  0.2671
 1213TIP3   OH2 3579   4.743   4.895   3.342 -0.6684 -0.0364 -0.2361
 1213TIP3    H1 3580   4.718   4.878   3.251 -0.2182  0.3758 -0.4432
 1213TIP3    H2 3581   4.660   4.892   3.391 -0.8591 -0.6565 -0.5949
 1214TIP3   OH2 3582   7.362   7.300   5.581  0.3078  0.1812 -1.1564
 1214TIP3    H1 3583   7.359   7.378   5.524  0.9715 -0.0167 -1.4728
 1214TIP3    H2 3584   7.323   7.329   5.663 -0.0187  0.6755 -1.4766
 1215TIP3   OH2 3585   5.225   6.789   4.101  0.0152 -0.1196 -0.2455
 1215TIP3    H1 3586   5.294   6.846   4.136 -0.3381 -1.1673  2.4063
 1215TIP3    H2 3587   5.144   6.837   4.116 -0.3143 -1.2904  2.2771
 1216TIP3   OH2 3588   7.209   1.522   3.754  0.4184 -0.0347  0.7240
 1216TIP3    H1 3589   7.205   1.472   3.673 -1.0070 -0.6850  1.1665
 1216TIP3    H2 3590   7.161   1.603   3.734 -0.9071 -0.6829  1.2350
 1217TIP3   OH2 3591   3.925   0.218   3.061 -0.3320 -0.1126 -0.1079
 1217TIP3    H1 3592   3.950   0.311   3.064 -0.7294 -0.0351  1.4829
 1217TIP3    H2 3593   3.900   0.197   3.150 -1.2369 -1.4974 -0.6593
 1218TIP3   OH2 3594   1.405   2.823   3.978  0.3256 -0.3549  0.3648
 1218TIP3    H1 3595   1.450   2.819   3.894 -0.9401  0.0677 -0.3597
 1218TIP3    H2 3596   1.450   2.892   4.026  0.4934  0.0226 -0.3186
 1219TIP3   OH2 3597   6.911   7.083   5.399 -0.1103  0.0456  0.1005
 1219TIP3    H1 3598   6.906   7.121   5.486  1.0242  0.7098 -0.1114
 1219TIP3    H2 3599   6.966   7.005   5.410  0.7059  0.5712 -0.1497
 1220TIP3   OH2 3600   7.880   3.045   3.566  0.0683 -0.0269  0.3421
 1220TIP3    H1 3601   7.826   2.966   3.558  0.0463  0.1838 -2.8521
 1220TIP3    H2 3602   7.829   3.103   3.623 -1.0166 -1.4183  0.8486
 1221TIP3   OH2 3603   8.173   2.082   0.251 -0.2032  0.0876 -0.3269
 1221TIP3    H1 3604   8.142   2.069   0.341 -1.2964 -1.5471 -0.8905
 1221TIP3    H2 3605   8.262   2.116   0.261 -0.6982  1.0151  1.3607
 1222TIP3   OH2 3606   4.402   0.249   2.488  0.1631  0.3968  0.0468
 1222TIP3    H1 3607   4.320   0.294   2.466 -0.5940  0.8034  3.2120
 1222TIP3    H2 3608   4.447   0.308   2.548  1.6810 -0.8189  0.1668
 1223TIP3   OH2 3609   5.402   7.749   6.749  0.4124 -0.3057 -0.3994
 1223TIP3    H1 3610   5.444   7.829   6.717 -0.2242 -0.3138 -1.2874
 1223TIP3    H2 3611   5.475   7.688   6.763  0.8723  0.3076 -0.0276
 1224TIP3   OH2 3612   0.454   4.800   5.332 -0.0765  0.1528  0.8815
 1224TIP3    H1 3613   0.440   4.814   5.238  1.4785  0.1880  0.6274
 1224TIP3    H2 3614   0.489   4.711   5.338  2.1440  0.9725  1.1304
 1225TIP3   OH2 3615   0.735   1.778   1.519 -0.2021 -0.5179 -0.8462
 1225TIP3    H1 3616   0.654   1.752   1.562  0.3193  0.4390  0.8287
 1225TIP3    H2 3617   0.720   1.868   1.490 -0.0607 -0.6710 -1.4205
 1226TIP3   OH2 3618   4.128   4.358   0.630  0.1629 -0.4047 -0.6731
 1226TIP3    H1 3619   4.190   4.289   0.606 -1.3945 -1.6328 -1.2973
 1226TIP3    H2 3620   4.160   4.436   0.584  0.1214 -1.5028 -2.6580
 1227TIP3   OH2 3621   4.621   5.147   3.046 -0.7609  0.0372  0.3641
 1227TIP3    H1 3622   4.627   5.053   3.060 -0.4727 -0.1757 -0.9904
 1227TIP3    H2 3623   4.647   5.186   3.129  1.8695 -1.0724  0.1731
 1228TIP3   OH2 3624   4.699   7.148   5.728 -0.2567 -0.0576  0.1560
 1228TIP3    H1 3625   4.608   7.118   5.735 -0.7045  1.4401  1.2789
 1228TIP3    H2 3626   4.748   7.093   5.789 -0.7807  0.4291  1.0286
 1229TIP3   OH2 3627   7.749   6.061   5.495  0.3794  0.2647 -0.6476
 1229TIP3    H1 3628   7.724   6.021   5.412 -0.5892  0.9518 -0.7139
 1229TIP3    H2 3629   7.730   6.154   5.483  2.5164  0.7641 -0.4844
 1230TIP3   OH2 3630   4.274   1.946   5.038  0.0399 -0.8456  0.2699
 1230TIP3    H1 3631   4.267   2.003   5.115  1.0654  0.3774 -0.5219
 1230TIP3    H2 3632   4.350   1.891   5.055  1.5190  0.7947 -0.6898
 1231TIP3   OH2 3633   8.296   3.601   6.428  0.4923 -0.2518 -0.3486
 1231TIP3    H1 3634   8.346   3.610   6.347 -0.3787  1.4933 -0.7579
 1231TIP3    H2 3635   8.204   3.605   6.400  0.1739  1.8086  0.7885
 1232TIP3   OH2 3636   1.307   2.835   5.725 -0.6955  0.4034  0.5848
 1232TIP3    H1 3637   1.275   2.748   5.748 -0.4785 -0.5515 -2.3344
 1232TIP3    H2 3638   1.361   2.822   5.647  1.0705  2.9052  1.2439
 1233TIP3   OH2 3639   3.886   3.374   4.632 -0.1982  0.2773 -0.1966
 1233TIP3    H1 3640   3.935   3.456   4.640 -0.6030  0.4586  0.5535
 1233TIP3    H2 3641   3.910   3.339   4.546 -0.2001  1.3043 -0.6306
 1234TIP3   OH2 3642   4.521   4.346   6.524  1.0654 -1.2655 -0.1178
 1234TIP3    H1 3643   4.594   4.286   6.545  1.1235 -1.1598 -0.0159
 1234TIP3    H2 3644   4.516   4.404   6.599  1.6777 -0.4849 -0.6659
 1235TIP3   OH2 3645   2.146   5.701   5.547  0.0750 -0.3668  0.2436
 1235TIP3    H1 3646   2.139   5.641   5.472 -0.9500  0.8246 -0.6709
 1235TIP3    H2 3647   2.133   5.646   5.624 -0.7169 -1.3569 -0.5655
 1236TIP3   OH2 3648   7.171   2.058   6.812  0.5542  0.3752 -0.2827
 1236TIP3    H1 3649   7.135   1.976   6.846  0.4049  0.7054  0.3602
 1236TIP3    H2 3650   7.233   2.030   6.745  0.3606 -0.2588 -0.2099
 1237TIP3   OH2 3651   0.636   1.137   3.560  0.8284 -0.2480 -0.1260
 1237TIP3    H1 3652   0.581   1.127   3.482  0.0328  2.7014 -0.0694
 1237TIP3    H2 3653   0.722   1.162   3.526  1.1791 -1.3832 -0.1025
 1238TIP3   OH2 3654   0.541   3.359   2.878  0.3138 -0.0873  0.2258
 1238TIP3    H1 3655   0.477   3.290   2.861 -0.3759  0.4574  0.5379
 1238TIP3    H2 3656   0.543   3.367   2.974  0.8099 -0.0601  0.2153
 1239TIP3   OH2 3657   1.167   2.779   6.735  0.0439  0.3966  0.1388
 1239TIP3    H1 3658   1.209   2.794   6.820  0.6493  0.8089 -0.2227
 1239TIP3    H2 3659   1.190   2.856   6.683  1.0239 -0.5544 -0.9221
 1240TIP3   OH2 3660   6.336   7.863   5.784 -0.1939 -0.2678  0.0116
 1240TIP3    H1 3661   6.270   7.927   5.756  1.0988  1.0676 -0.1036
 1240TIP3    H2 3662   6.411   7.916   5.811  0.9412 -1.7445 -0.1003
 1241TIP3   OH2 3663   8.337   5.673   2.842  0.2694 -0.0712  0.5249
 1241TIP3    H1 3664   8.270   5.735   2.870  1.8802  2.3390 -0.5789
 1241TIP3    H2 3665   8.362   5.626   2.922 -0.6379  1.0907  1.5200
 1242TIP3   OH2 3666   2.044   1.575   1.924  0.2199  0.2235 -0.3062
 1242TIP3    H1 3667   2.137   1.557   1.930  0.3125  1.0071  0.8799
 1242TIP3    H2 3668   2.016   1.589   2.014 -1.1408 -0.4360 -0.6081
 1243TIP3   OH2 3669   0.314   3.834   0.708  0.5179  0.3017  0.2413
 1243TIP3    H1 3670   0.349   3.780   0.778  0.6012  0.4822  0.3406
 1243TIP3    H2 3671   0.389   3.850   0.650  0.3506 -0.2120 -0.1258
 1244TIP3   OH2 3672   0.211   0.360   2.699 -0.2095  0.1071 -0.2034
 1244TIP3    H1 3673   0.189   0.272   2.732 -0.2764  0.4386  0.6762
 1244TIP3    H2 3674   0.297   0.379   2.738 -0.0402  0.2950 -0.6666
 1245TIP3   OH2 3675   5.119   5.599   2.541  0.2346 -0.0972  0.2313
 1245TIP3    H1 3676   5.202   5.588   2.495  0.4684  0.6919  0.4550
 1245TIP3    H2 3677   5.052   5.596   2.472  0.5014 -0.0151 -0.0303
 1246TIP3   OH2 3678   4.180   7.646   1.638 -0.6150 -0.3560 -0.1703
 1246TIP3    H1 3679   4.233   7.579   1.597  0.6266  1.4669 -1.6853
 1246TIP3    H2 3680   4.177   7.718   1.575 -2.0894  0.9558  1.2636
 1247TIP3   OH2 3681   1.137   2.563   5.681 -0.2235 -0.2340 -0.3160
 1247TIP3    H1 3682   1.122   2.480   5.637 -0.8248 -0.9718  1.2178
 1247TIP3    H2 3683   1.178   2.540   5.764 -1.3913  0.8802  0.6304
 1248TIP3   OH2 3684   2.591   7.467   6.183 -0.1698  0.5002 -0.4486
 1248TIP3    H1 3685   2.586   7.378   6.217 -1.2429  0.3250 -1.0191
 1248TIP3    H2 3686   2.533   7.518   6.240  0.0353  0.7298 -0.4411
 1249TIP3   OH2 3687   5.981   7.345   6.207  0.2355  0.8928 -0.6103
 1249TIP3    H1 3688   5.910   7.409   6.206 -1.3576 -0.8036 -1.2361
 1249TIP3    H2 3689   6.042   7.376   6.140 -0.7894  1.4444 -1.3119
 1250TIP3   OH2 3690   2.339   3.727   1.644 -0.3182  0.1410  0.4914
 1250TIP3    H1 3691   2.383   3.662   1.699  1.3654 -0.1041 -1.0603
 1250TIP3    H2 3692   2.300   3.788   1.707 -1.4679 -1.9920  1.9900
 1251TIP3   OH2 3693   5.614   2.346   2.298  0.2756  0.0975  0.8273
 1251TIP3    H1 3694   5.568   2.263   2.314  0.2111 -0.0779 -0.2070
 1251TIP3    H2 3695   5.636   2.378   2.385 -2.1785  0.3912  1.4263
 1252TIP3   OH2 3696   0.303   5.962   0.538  0.3587  0.1920 -0.0223
 1252TIP3    H1 3697   0.243   5.954   0.463 -0.4329 -0.9389  0.6884
 1252TIP3    H2 3698   0.295   6.053   0.565 -2.3174 -0.2409  1.0186
 1253TIP3   OH2 3699   4.399   7.801   6.196  0.2996 -0.0606  0.3064
 1253TIP3    H1 3700   4.350   7.866   6.246 -0.3739 -0.3688  0.0676
 1253TIP3    H2 3701   4.370   7.717   6.230 -0.1378 -0.2748 -0.5495
 1254TIP3   OH2 3702   1.181   4.224   3.824 -0.5527  0.3424  0.2194
 1254TIP3    H1 3703   1.195   4.182   3.739  0.5830  0.3553  0.3867
 1254TIP3    H2 3704   1.093   4.195   3.850 -1.9052  2.1248 -1.9539
 1255TIP3   OH2 3705   4.840   5.515   2.386  0.5945 -0.4766  0.0649
 1255TIP3    H1 3706   4.838   5.567   2.305  0.0360 -0.4849  0.0719
 1255TIP3    H2 3707   4.764   5.545   2.436  0.9524 -0.4542  0.6028
 1256TIP3   OH2 3708   0.138   0.315   6.033 -0.4186 -0.3444  0.2495
 1256TIP3    H1 3709   0.091   0.337   5.952 -2.2771 -0.6664  1.2024
 1256TIP3    H2 3710   0.091   0.240   6.069  2.0413 -2.0025  0.2861
 1257TIP3   OH2 3711   5.132   7.913   1.546 -0.6050  0.4300 -0.5252
 1257TIP3    H1 3712   5.112   7.984   1.607 -1.4340 -0.1861 -0.0318
 1257TIP3    H2 3713   5.105   7.834   1.594  1.6528 -0.3723 -0.4609
 1258TIP3   OH2 3714   4.117   5.008   4.603 -0.3061 -0.4041  0.2162
 1258TIP3    H1 3715   4.124   4.975   4.513 -2.7643 -0.2542 -0.0847
 1258TIP3    H2 3716   4.029   4.984   4.631  0.9752 -2.1423  3.3188
 1259TIP3   OH2 3717   3.805   4.682   1.147 -0.4187 -0.2633  0.4990
 1259TIP3    H1 3718   3.854   4.760   1.121  0.1881 -0.0613  2.1308
 1259TIP3    H2 3719   3.774   4.644   1.065  0.7396  0.7484 -0.4350
 1260TIP3   OH2 3720   4.970   3.134   1.609 -0.8817  0.5718  0.2939
 1260TIP3    H1 3721   5.022   3.214   1.608  0.3327 -0.2003 -0.3810
 1260TIP3    H2 3722   4.895   3.154   1.553  1.5721 -0.0660 -3.5982
 1261TIP3   OH2 3723   0.176   1.206   5.824  0.6281 -0.5184  0.4799
 1261TIP3    H1 3724   0.242   1.217   5.755 -0.1134 -0.7240 -0.2855
 1261TIP3    H2 3725   0.099   1.171   5.778 -0.6662  1.4794  0.9934
 1262TIP3   OH2 3726   0.751   5.650   2.704  0.1190  0.4880  0.3912
 1262TIP3    H1 3727   0.677   5.613   2.752  0.7696 -0.3585  0.7856
 1262TIP3    H2 3728   0.730   5.742   2.693 -2.0656 -0.1444 -1.5140
 1263TIP3   OH2 3729   0.303   4.632   6.788  0.5210 -0.1299  0.2628
 1263TIP3    H1 3730   0.367   4.692   6.750  0.0335 -0.0918 -0.5139
 1263TIP3    H2 3731   0.354   4.577   6.848  1.0878  0.6051  0.4694
 1264TIP3   OH2 3732   0.538   2.459   4.057  0.2737 -0.5386 -0.1640
 1264TIP3    H1 3733   0.590   2.477   4.136  0.4677  0.5854 -0.5329
 1264TIP3    H2 3734   0.458   2.419   4.091  0.4862 -0.3533  0.5868
 1265TIP3   OH2 3735   3.656   6.757   3.929 -0.3935  0.4740 -0.2905
 1265TIP3    H1 3736   3.563   6.754   3.953 -0.2055 -0.7252  0.3585
 1265TIP3    H2 3737   3.702   6.728   4.008  0.3559 -1.9427 -1.5337
 1266TIP3   OH2 3738   3.460   5.506   5.696  0.0268 -0.1282 -0.0966
 1266TIP3    H1 3739   3.420   5.560   5.764 -1.7878 -0.5420 -0.7774
 1266TIP3    H2 3740   3.450   5.416   5.729  2.5427 -0.1663  0.7818
 1267TIP3   OH2 3741   5.927   6.122   1.786 -0.0276  0.4007  0.0316
 1267TIP3    H1 3742   5.991   6.192   1.776  0.0881  0.0547 -1.8848
 1267TIP3    H2 3743   5.966   6.064   1.852  1.8037  0.0392 -1.3075
 1268TIP3   OH2 3744   8.127   0.611   5.648 -0.0815  0.4786  0.0869
 1268TIP3    H1 3745   8.084   0.635   5.731 -0.2555 -1.9008  0.7579
 1268TIP3    H2 3746   8.104   0.519   5.635  3.7900 -0.6402 -0.1265
 1269TIP3   OH2 3747   1.692   5.401   0.043 -0.4033  0.4079 -0.4885
 1269TIP3    H1 3748   1.622   5.428   0.103 -0.2839 -0.6934  0.1867
 1269TIP3    H2 3749   1.728   5.322   0.083  1.1874  0.9066 -0.8581
 1270TIP3   OH2 3750   6.247   6.940   4.453  1.2660 -0.7533 -0.1440
 1270TIP3    H1 3751   6.341   6.932   4.437  1.9555  3.8145  0.2986
 1270TIP3    H2 3752   6.216   7.001   4.386 -1.3994 -2.0418 -0.1977
 1271TIP3   OH2 3753   5.629   6.272   4.644  0.1849 -0.2509 -0.2492
 1271TIP3    H1 3754   5.659   6.187   4.612  0.5441  0.0044 -0.5984
 1271TIP3    H2 3755   5.687   6.335   4.602 -0.9763  0.2811 -1.1186
 1272TIP3   OH2 3756   3.168   1.492   5.169  0.7428 -0.1950  0.2472
 1272TIP3    H1 3757   3.215   1.430   5.113 -0.4725 -2.2339  1.3316
 1272TIP3    H2 3758   3.083   1.450   5.184  0.4726  0.9859  2.3825
 1273TIP3   OH2 3759   7.508   7.793   3.506  0.0196 -0.1977 -0.4904
 1273TIP3    H1 3760   7.579   7.841   3.548 -1.1301  0.3118  0.9344
 1273TIP3    H2 3761   7.552   7.724   3.455  1.5747  0.9081 -0.6954
 1274TIP3   OH2 3762   5.104   3.870   4.725  0.4686  0.1289 -0.3477
 1274TIP3    H1 3763   5.010   3.869   4.744  0.6409 -2.0636  0.7300
 1274TIP3    H2 3764   5.129   3.963   4.730 -1.8923  0.9559 -2.2740
 1275TIP3   OH2 3765   6.137   0.850   5.037 -0.1853 -0.6073 -0.0118
 1275TIP3    H1 3766   6.087   0.899   5.102  0.1041 -0.2865 -0.0259
 1275TIP3    H2 3767   6.079   0.843   4.962  0.2641  0.9857 -0.5632
 1276TIP3   OH2 3768   0.673   1.278   5.996 -0.6913 -0.0049  0.7440
 1276TIP3    H1 3769   0.676   1.207   5.931  1.8873  2.0266 -1.6391
 1276TIP3    H2 3770   0.639   1.237   6.075 -2.3291 -3.0965 -1.3665
 1277TIP3   OH2 3771   0.158   7.313   5.066 -0.3095  0.4262 -0.5357
 1277TIP3    H1 3772   0.202   7.338   5.147  0.6130 -0.6355 -0.6847
 1277TIP3    H2 3773   0.142   7.395   5.021 -1.4893  1.1085  1.0221
 1278TIP3   OH2 3774   2.553   7.261   4.078 -0.0443  0.6636  0.5006
 1278TIP3    H1 3775   2.505   7.316   4.140 -0.3106  0.6529  0.3083
 1278TIP3    H2 3776   2.631   7.311   4.055 -0.2764  0.9513  0.3421
 1279TIP3   OH2 3777   7.523   2.561   5.361  0.1105  0.5706 -0.2098
 1279TIP3    H1 3778   7.609   2.553   5.403  0.6661  0.5999 -1.3087
 1279TIP3    H2 3779   7.470   2.607   5.426  0.1552 -1.6550  1.5335
 1280TIP3   OH2 3780   8.297   5.167   2.649 -0.7486 -0.1304  0.3581
 1280TIP3    H1 3781   8.251   5.229   2.706  1.5514  1.6410  0.4655
 1280TIP3    H2 3782   8.377   5.214   2.624 -0.0221 -2.2143 -1.4987
 1281TIP3   OH2 3783   3.646   1.190   2.515 -0.3856  0.0992 -0.0028
 1281TIP3    H1 3784   3.654   1.274   2.560 -2.5989  0.9248 -1.0280
 1281TIP3    H2 3785   3.637   1.213   2.422  0.3934 -1.3679 -0.4725
 1282TIP3   OH2 3786   3.193   0.854   5.635  0.7823 -0.3174  0.0430
 1282TIP3    H1 3787   3.227   0.943   5.643 -1.3755  0.6666 -0.9127
 1282TIP3    H2 3788   3.101   0.861   5.658 -0.2312 -1.5999 -3.0041
 1283TIP3   OH2 3789   1.767   3.721   2.286  0.0736  0.0001 -0.2803
 1283TIP3    H1 3790   1.766   3.717   2.382 -3.6521 -0.9582 -0.2076
 1283TIP3    H2 3791   1.708   3.793   2.265 -0.2807 -0.7237 -1.8601
 1284TIP3   OH2 3792   1.652   5.554   0.541  0.0400 -0.4058 -0.0234
 1284TIP3    H1 3793   1.740   5.558   0.578  0.4983 -0.2576 -1.0802
 1284TIP3    H2 3794   1.625   5.646   0.533  0.3928 -0.3757 -1.0437
 1285TIP3   OH2 3795   7.160   5.166   3.342  1.0628  0.1631  0.4153
 1285TIP3    H1 3796   7.068   5.148   3.325  1.2924 -0.9458  0.2571
 1285TIP3    H2 3797   7.207   5.124   3.269  1.6648  1.2325  0.1571
 1286TIP3   OH2 3798   1.066   4.368   3.272 -0.4040  0.0486  0.3902
 1286TIP3    H1 3799   0.997   4.431   3.294 -0.0300  0.8444 -0.6476
 1286TIP3    H2 3800   1.148   4.415   3.287 -0.1139 -0.3405  0.0546
 1287TIP3   OH2 3801   0.125   2.114   0.918 -0.0369 -0.3387 -0.8349
 1287TIP3    H1 3802   0.030   2.111   0.906 -0.2447 -0.0421  0.5775
 1287TIP3    H2 3803   0.141   2.194   0.967  0.4799 -2.2746  2.4183
 1288TIP3   OH2 3804   3.063   6.438   2.966 -0.5177  0.3300 -0.4014
 1288TIP3    H1 3805   3.008   6.517   2.961 -1.4416 -0.2216  0.5491
 1288TIP3    H2 3806   3.005   6.371   3.002  0.7126 -0.3677  0.3331
 1289TIP3   OH2 3807   8.001   4.444   0.592 -0.8336  0.2159  0.0146
 1289TIP3    H1 3808   8.066   4.380   0.620 -1.0685  0.1282  0.3612
 1289TIP3    H2 3809   7.922   4.421   0.640 -1.4341 -0.3562 -1.2147
 1290TIP3   OH2 3810   3.485   3.074   3.367  0.0901  0.1542  0.3858
 1290TIP3    H1 3811   3.424   3.008   3.334 -0.9824  1.0229  0.5657
 1290TIP3    H2 3812   3.526   3.034   3.443 -1.2917  0.0288  1.1050
 1291TIP3   OH2 3813   4.963   7.101   6.704  0.1590 -0.6150  0.1724
 1291TIP3    H1 3814   5.025   7.174   6.703 -0.0846 -0.4107 -0.6496
 1291TIP3    H2 3815   4.906   7.116   6.629 -0.8349 -0.8511  0.8533
 1292TIP3   OH2 3816   7.683   1.152   0.076 -0.2709 -0.0116 -0.0450
 1292TIP3    H1 3817   7.706   1.207   0.002  0.8513  1.9180  1.6126
 1292TIP3    H2 3818   7.759   1.156   0.134 -1.8965  0.4185  2.2132
 1293TIP3   OH2 3819   2.347   1.051   2.309  0.4294 -0.3722  0.4564
 1293TIP3    H1 3820   2.316   0.995   2.239  2.8173 -2.1480  0.6914
 1293TIP3    H2 3821   2.387   1.126   2.265 -0.2839 -0.2250  0.0462
 1294TIP3   OH2 3822   5.173   3.843   2.610 -0.5904  0.1081  0.6703
 1294TIP3    H1 3823   5.206   3.825   2.698 -0.3388 -0.2657  0.5042
 1294TIP3    H2 3824   5.169   3.757   2.568 -0.5484  0.3022  0.2623
 1295TIP3   OH2 3825   2.961   3.692   3.972 -0.3289 -0.7756  0.1501
 1295TIP3    H1 3826   3.043   3.654   3.939  0.7592  1.4371  0.0743
 1295TIP3    H2 3827   2.916   3.723   3.893 -0.4518 -0.5565  0.3049
 1296TIP3   OH2 3828   5.948   2.413   0.407  0.1233 -0.7146 -0.8265
 1296TIP3    H1 3829   5.858   2.438   0.386  0.2520  0.6863  0.1832
 1296TIP3    H2 3830   5.976   2.360   0.332 -0.8648  0.5148 -2.1263
 1297TIP3   OH2 3831   3.374   1.967   1.647 -0.3429 -0.3433 -0.2596
 1297TIP3    H1 3832   3.342   2.053   1.619 -1.6447 -0.3576  1.1278
 1297TIP3    H2 3833   3.371   1.969   1.742 -0.1785 -1.8567 -0.1957
 1298TIP3   OH2 3834   4.399   1.973   0.920  0.1916  0.1974 -0.1449
 1298TIP3    H1 3835   4.476   1.947   0.971  0.3183 -1.8675 -1.2668
 1298TIP3    H2 3836   4.430   1.979   0.830 -0.8237 -0.1035 -0.5348
 1299TIP3   OH2 3837   3.407   4.497   5.978 -0.8089  0.4386 -0.7056
 1299TIP3    H1 3838   3.413   4.589   5.953  0.0861  0.5919  0.0202
 1299TIP3    H2 3839   3.435   4.495   6.070 -0.2936 -0.6264 -0.8698
 1300TIP3   OH2 3840   6.647   1.563   2.587 -0.5823 -0.0946  0.2667
 1300TIP3    H1 3841   6.631   1.470   2.604 -2.1441  0.1538  0.3646
 1300TIP3    H2 3842   6.703   1.591   2.659 -1.3403 -0.6338  1.0916
 1301TIP3   OH2 3843   3.125   4.137   2.244  0.0569  0.5184 -0.0782
 1301TIP3    H1 3844   3.051   4.118   2.186 -0.1270 -1.8516  0.8004
 1301TIP3    H2 3845   3.200   4.096   2.202  0.3855  0.7872  0.2373
 1302TIP3   OH2 3846   3.589   2.253   3.451  0.2714 -0.0590 -0.3772
 1302TIP3    H1 3847   3.557   2.170   3.416 -1.4813  1.5868 -3.1830
 1302TIP3    H2 3848   3.680   2.258   3.423 -0.0996 -0.3482 -1.6949
 1303TIP3   OH2 3849   2.439   5.234   3.696 -0.2562  0.4024 -0.8057
 1303TIP3    H1 3850   2.465   5.322   3.722 -1.4273  0.5774 -0.1253
 1303TIP3    H2 3851   2.347   5.228   3.722 -0.5988 -0.5373 -2.1319
 1304TIP3   OH2 3852   6.563   5.968   4.375 -0.3527  0.0033 -0.2456
 1304TIP3    H1 3853   6.601   5.929   4.454 -1.3782  2.5621  1.6560
 1304TIP3    H2 3854   6.481   5.920   4.361 -1.1405  0.7677  1.4804
 1305TIP3   OH2 3855   4.560   3.351   5.547 -0.0284  0.4359  0.5885
 1305TIP3    H1 3856   4.557   3.447   5.544 -1.0689  0.4193 -1.9640
 1305TIP3    H2 3857   4.578   3.326   5.456 -0.0466 -1.7930  1.1592
 1306TIP3   OH2 3858   3.387   4.725   5.081 -0.1952 -0.0275 -0.3580
 1306TIP3    H1 3859   3.292   4.712   5.085 -0.0714 -0.6657  0.9372
 1306TIP3    H2 3860   3.402   4.761   4.993 -1.9111  2.3660  0.1923
 1307TIP3   OH2 3861   4.990   5.291   5.391 -0.6290  0.3552 -0.3586
 1307TIP3    H1 3862   5.012   5.370   5.442  0.8645 -0.3479  0.1380
 1307TIP3    H2 3863   5.073   5.265   5.351 -1.0632 -1.0851 -0.3585
 1308TIP3   OH2 3864   8.088   2.545   3.817  0.4155  0.2881 -0.0915
 1308TIP3    H1 3865   8.176   2.575   3.839 -0.1677  2.5509 -0.5756
 1308TIP3    H2 3866   8.055   2.506   3.897  0.4987  2.9576  1.3728
 1309TIP3   OH2 3867   7.824   5.776   4.570  0.2341  0.2231  0.0183
 1309TIP3    H1 3868   7.755   5.843   4.569  1.2752  1.3215 -0.3804
 1309TIP3    H2 3869   7.776   5.693   4.560 -0.9607  1.0272 -1.3387
 1310TIP3   OH2 3870   6.858   7.616   1.911 -0.3813  0.9098 -0.2133
 1310TIP3    H1 3871   6.931   7.634   1.970  1.3264 -1.0078 -1.6063
 1310TIP3    H2 3872   6.852   7.695   1.857 -0.1137  1.5481  0.6616
 1311TIP3   OH2 3873   0.745   2.907   6.236 -0.3139  0.5374  0.7229
 1311TIP3    H1 3874   0.789   2.822   6.239 -1.3383 -0.0480 -0.1944
 1311TIP3    H2 3875   0.669   2.897   6.293  0.1058  1.1925  1.4263
 1312TIP3   OH2 3876   4.741   4.292   2.938 -0.2507 -0.1259 -0.2694
 1312TIP3    H1 3877   4.700   4.209   2.959 -0.4207  0.3642  1.5284
 1312TIP3    H2 3878   4.674   4.358   2.956  0.4645  0.5151  0.1487
 1313TIP3   OH2 3879   0.970   0.912   4.288 -0.3352 -0.6527  0.2302
 1313TIP3    H1 3880   1.030   0.960   4.345  0.3895 -1.6240  0.3127
 1313TIP3    H2 3881   1.019   0.833   4.264 -0.4113 -0.0580 -2.1187
 1314TIP3   OH2 3882   5.007   0.484   6.512  0.0742 -0.0355 -0.0276
 1314TIP3    H1 3883   5.017   0.493   6.607 -1.3380  0.4340  0.1048
 1314TIP3    H2 3884   5.061   0.408   6.490  0.9099  0.2120  1.0478
 1315TIP3   OH2 3885   8.364   2.566   0.659  0.5666  0.5640  0.2186
 1315TIP3    H1 3886   8.277   2.526   0.664 -0.2834  1.8874 -2.2864
 1315TIP3    H2 3887   8.347   2.660   0.654  2.1589  0.8719 -0.0800
 1316TIP3   OH2 3888   8.156   0.461   4.690 -0.4819 -0.1507 -0.2229
 1316TIP3    H1 3889   8.205   0.430   4.766  0.1919 -1.7030 -1.2307
 1316TIP3    H2 3890   8.180   0.400   4.620 -2.4116  0.1828 -1.2426
 1317TIP3   OH2 3891   8.285   4.422   2.795  0.0273 -0.5461 -0.3938
 1317TIP3    H1 3892   8.364   4.372   2.814  0.4547 -0.5005 -1.9399
 1317TIP3    H2 3893   8.299   4.506   2.838  0.0024 -1.1632  0.8709
 1318TIP3   OH2 3894   7.204   5.032   5.885  0.4394  0.5682 -0.0644
 1318TIP3    H1 3895   7.116   5.062   5.909  0.5548  1.0901 -0.2748
 1318TIP3    H2 3896   7.263   5.090   5.934  0.6672  0.1701  0.1362
 1319TIP3   OH2 3897   1.563   0.428   3.613  0.4831 -0.3298 -0.3857
 1319TIP3    H1 3898   1.584   0.376   3.535  1.1316  2.3201 -2.0789
 1319TIP3    H2 3899   1.634   0.492   3.619 -0.8012  1.0347  1.0490
 1320TIP3   OH2 3900   2.801   2.191   3.127  0.2426  0.4537  0.2999
 1320TIP3    H1 3901   2.793   2.104   3.167 -0.8489  1.0276  1.3720
 1320TIP3    H2 3902   2.748   2.184   3.047  3.6406 -1.1677 -2.0464
 1321TIP3   OH2 3903   6.100   3.478   5.403 -0.3866 -0.4347 -0.6634
 1321TIP3    H1 3904   6.009   3.508   5.397  0.5543  2.8413 -0.4809
 1321TIP3    H2 3905   6.117   3.474   5.498 -0.3122 -1.0086 -0.6982
 1322TIP3   OH2 3906   6.265   6.892   2.368 -0.2960  0.4508  0.4294
 1322TIP3    H1 3907   6.207   6.955   2.409 -0.8952 -0.4084  0.9416
 1322TIP3    H2 3908   6.307   6.847   2.441 -0.9161 -0.6750  0.1192
 1323TIP3   OH2 3909   5.671   7.710   0.425  0.1936  0.3190  0.0578
 1323TIP3    H1 3910   5.639   7.782   0.479 -0.0440  1.9100 -2.0808
 1323TIP3    H2 3911   5.603   7.643   0.432  0.3686  0.3030  2.0121
 1324TIP3   OH2 3912   4.545   2.413   5.252 -0.0378  0.2279 -0.4008
 1324TIP3    H1 3913   4.587   2.336   5.213  0.4945  1.2136 -1.8767
 1324TIP3    H2 3914   4.478   2.438   5.189 -0.1416  1.0224  0.0080
 1325TIP3   OH2 3915   3.872   6.882   2.943  0.0872 -0.1863  0.4309
 1325TIP3    H1 3916   3.796   6.935   2.970  0.1302 -0.0660  0.3168
 1325TIP3    H2 3917   3.843   6.838   2.863  1.0226  1.9324 -1.1675
 1326TIP3   OH2 3918   6.498   5.706   6.868 -0.0846  0.0840 -0.1240
 1326TIP3    H1 3919   6.490   5.743   6.780 -3.0135 -0.3455 -0.1352
 1326TIP3    H2 3920   6.522   5.614   6.853 -1.2222 -0.1582 -0.5357
 1327TIP3   OH2 3921   5.738   0.563   5.401  0.0001 -0.1602 -0.2107
 1327TIP3    H1 3922   5.748   0.468   5.409  0.5984 -0.0449  0.4749
 1327TIP3    H2 3923   5.803   0.599   5.461 -1.7382  0.6615  1.2896
 1328TIP3   OH2 3924   5.982   6.184   4.444 -0.3630 -0.5368  0.4971
 1328TIP3    H1 3925   6.053   6.160   4.384 -0.3855 -0.0788  0.2887
 1328TIP3    H2 3926   5.988   6.119   4.514 -0.4187 -1.1631 -0.0674
 1329TIP3   OH2 3927   5.068   3.572   6.119  0.1019 -0.1594  0.7148
 1329TIP3    H1 3928   5.079   3.487   6.076  0.8392 -0.3891  1.3307
 1329TIP3    H2 3929   4.979   3.599   6.096  0.3157 -0.4840 -0.5631
 1330TIP3   OH2 3930   6.856   7.941   0.164  0.2454  0.0113  0.7537
 1330TIP3    H1 3931   6.820   7.984   0.087 -2.5377 -0.9203  1.4135
 1330TIP3    H2 3932   6.878   7.853   0.134  2.2282  0.5935  0.3382
 1331TIP3   OH2 3933   6.244   1.027   6.318 -0.3361  0.1287  0.4394
 1331TIP3    H1 3934   6.264   1.065   6.403 -1.6186  0.6285  0.5332
 1331TIP3    H2 3935   6.260   0.933   6.329 -0.8733  0.1377  1.3615
 1332TIP3   OH2 3936   4.244   0.924   1.102 -0.2596 -0.6111 -0.4790
 1332TIP3    H1 3937   4.212   0.858   1.163  0.9400 -0.8345 -0.0592
 1332TIP3    H2 3938   4.200   1.005   1.127 -1.0176 -1.0404 -0.3890
 1333TIP3   OH2 3939   6.722   5.865   6.053 -0.5892 -0.3575  0.7720
 1333TIP3    H1 3940   6.731   5.951   6.095  0.3940  0.9897 -1.9694
 1333TIP3    H2 3941   6.637   5.869   6.009 -1.3228 -1.5085  2.0033
 1334TIP3   OH2 3942   5.514   7.042   5.927 -0.1109 -0.5063  0.5766
 1334TIP3    H1 3943   5.432   7.037   5.976 -0.7736  1.1422 -0.2750
 1334TIP3    H2 3944   5.577   7.080   5.989 -0.6176  0.3958  0.5565
 1335TIP3   OH2 3945   4.138   0.456   2.814  0.0101 -0.4717  0.1955
 1335TIP3    H1 3946   4.209   0.402   2.848 -0.2340 -1.7963 -1.2640
 1335TIP3    H2 3947   4.079   0.394   2.771 -1.8007  0.6405  0.9579
 1336TIP3   OH2 3948   5.088   7.684   6.289  0.6867  0.0242  0.0524
 1336TIP3    H1 3949   5.145   7.747   6.333  1.9038 -1.5253  0.7794
 1336TIP3    H2 3950   5.102   7.602   6.336 -1.6854 -0.5748 -0.1580
 1337TIP3   OH2 3951   0.156   1.079   5.267 -0.3167 -0.3109  0.4289
 1337TIP3    H1 3952   0.138   1.027   5.345  1.7844  0.8808  1.8053
 1337TIP3    H2 3953   0.169   1.168   5.301  2.1285 -0.0263 -1.0373
 1338TIP3   OH2 3954   7.926   6.819   6.148 -0.6897  0.2496  0.3717
 1338TIP3    H1 3955   7.905   6.738   6.195 -1.1171 -0.1650 -0.5033
 1338TIP3    H2 3956   7.851   6.834   6.091  1.9665 -2.4971 -4.5688
 1339TIP3   OH2 3957   3.868   0.658   4.989 -0.5992 -0.2931  0.5040
 1339TIP3    H1 3958   3.848   0.716   4.916 -0.5283 -2.8832 -1.7004
 1339TIP3    H2 3959   3.783   0.627   5.020 -0.5716 -0.2850  0.5903
 1340TIP3   OH2 3960   8.357   5.943   3.131  0.1625  0.6490  0.4333
 1340TIP3    H1 3961   8.381   6.034   3.113  0.9723  0.0858 -1.5937
 1340TIP3    H2 3962   8.306   5.916   3.054 -0.5915 -0.4365  1.2844
 1341TIP3   OH2 3963   8.252   0.400   2.819 -0.3275 -0.3162  0.2504
 1341TIP3    H1 3964   8.248   0.496   2.817 -0.8049 -0.3485 -0.4693
 1341TIP3    H2 3965   8.249   0.373   2.727  0.4642 -1.0039  0.4126
 1342TIP3   OH2 3966   0.093   5.636   5.430  0.3161 -0.0744 -0.1238
 1342TIP3    H1 3967   0.159   5.649   5.497 -2.2759  1.2186  2.4113
 1342TIP3    H2 3968   0.085   5.721   5.387  0.6179 -0.3642 -0.7644
 1343TIP3   OH2 3969   3.946   6.164   1.437 -0.0531 -0.0866 -0.0161
 1343TIP3    H1 3970   3.869   6.145   1.490 -0.2438  0.8173  0.0543
 1343TIP3    H2 3971   4.020   6.134   1.489 -0.3308 -0.6083  0.0835
 1344TIP3   OH2 3972   7.211   0.469   0.604  0.1714  0.1592 -0.4518
 1344TIP3    H1 3973   7.119   0.470   0.579  0.0045 -1.8062 -0.1047
 1344TIP3    H2 3974   7.213   0.498   0.695 -0.1829 -0.2976 -0.2952
 1345TIP3   OH2 3975   8.152   1.007   4.940 -0.0134  0.0079 -0.3795
 1345TIP3    H1 3976   8.110   1.049   5.016  1.5827  2.1679 -0.6171
 1345TIP3    H2 3977   8.246   1.020   4.954  0.4539 -1.7405 -1.5490
 1346TIP3   OH2 3978   5.617   6.128   0.655  0.5266  0.7411  0.0376
 1346TIP3    H1 3979   5.649   6.038   0.648 -2.4248 -0.4187 -0.0434
 1346TIP3    H2 3980   5.695   6.182   0.644  2.6522 -1.7872  1.5479
 1347TIP3   OH2 3981   5.407   2.494   1.876 -0.0583 -0.4506 -0.7883
 1347TIP3    H1 3982   5.423   2.403   1.902  0.7262 -0.1935 -0.3604
 1347TIP3    H2 3983   5.316   2.493   1.844  0.0642 -1.4636 -1.1700
 1348TIP3   OH2 3984   4.782   3.429   2.416  0.9126  0.2969  0.2070
 1348TIP3    H1 3985   4.804   3.381   2.496 -0.2683 -0.2590  0.2184
 1348TIP3    H2 3986   4.731   3.366   2.364 -1.9564  1.9234  0.8295
 1349TIP3   OH2 3987   6.246   6.126   1.492  0.1253 -0.3272  0.4461
 1349TIP3    H1 3988   6.260   6.081   1.408  0.4112 -0.0269  0.3309
 1349TIP3    H2 3989   6.334   6.147   1.523  0.0122 -0.2718  0.7340
 1350TIP3   OH2 3990   6.788   3.456   3.884 -0.1295 -0.0848  0.4975
 1350TIP3    H1 3991   6.759   3.365   3.893  2.0098 -0.8115  0.4955
 1350TIP3    H2 3992   6.740   3.488   3.807  0.3629 -1.7738 -0.5672
 1351TIP3   OH2 3993   2.952   7.264   4.148 -0.0961 -0.1986 -0.0303
 1351TIP3    H1 3994   2.881   7.202   4.131 -1.4977  1.4121 -0.2567
 1351TIP3    H2 3995   3.031   7.209   4.151 -1.2409 -1.9548 -0.4171
 1352TIP3   OH2 3996   7.556   1.483   4.642 -0.0461  0.2779  0.3721
 1352TIP3    H1 3997   7.544   1.465   4.549  3.0564 -1.9398  0.2727
 1352TIP3    H2 3998   7.486   1.433   4.685 -0.4059 -0.1491 -0.6778
 1353TIP3   OH2 3999   8.105   2.608   1.777  0.3850  0.1114 -0.3609
 1353TIP3    H1 4000   8.170   2.548   1.738 -1.7454 -1.8632 -1.0995
 1353TIP3    H2 4001   8.022   2.563   1.766 -1.1813  2.6387  0.3936
 1354TIP3   OH2 4002   6.943   6.486   5.916 -0.1821 -0.1367 -0.3764
 1354TIP3    H1 4003   6.996   6.499   5.837 -0.1974  0.1992 -0.3330
 1354TIP3    H2 4004   6.900   6.402   5.902  0.5246 -0.5197 -0.3175
 1355TIP3   OH2 4005   2.718   5.327   2.875 -0.0485 -0.0290 -0.4783
 1355TIP3    H1 4006   2.641   5.271   2.867  1.1786 -1.8375 -0.1793
 1355TIP3    H2 4007   2.729   5.342   2.969  1.2346 -1.7220 -0.3085
 1356TIP3   OH2 4008   1.817   7.536   2.342  0.2072  0.3229  0.1665
 1356TIP3    H1 4009   1.781   7.468   2.284  1.2683 -0.5704  0.5275
 1356TIP3    H2 4010   1.784   7.513   2.428  0.2087  0.5279  0.2214
 1357TIP3   OH2 4011   1.161   5.307   6.395  0.0960 -0.2688  0.1450
 1357TIP3    H1 4012   1.233   5.322   6.335 -0.9417 -0.2333 -1.1311
 1357TIP3    H2 4013   1.100   5.379   6.380 -0.0390 -0.0637  1.4931
 1358TIP3   OH2 4014   3.960   2.101   0.339 -0.1687  0.4108  0.2710
 1358TIP3    H1 4015   3.875   2.080   0.378  0.0524 -0.0629  0.5107
 1358TIP3    H2 4016   3.998   2.165   0.399  0.2084 -0.3851  0.9002
 1359TIP3   OH2 4017   6.237   7.572   6.338  1.1017  0.4396  0.0096
 1359TIP3    H1 4018   6.278   7.655   6.314 -0.4000  1.3424  0.4361
 1359TIP3    H2 4019   6.159   7.566   6.282  0.9458 -0.4589  0.2979
 1360TIP3   OH2 4020   6.556   4.035   2.608 -0.1018  0.2422  0.3746
 1360TIP3    H1 4021   6.645   3.999   2.611 -0.2925 -0.2988 -0.2025
 1360TIP3    H2 4022   6.559   4.100   2.538 -0.2147  0.0758  0.2155
 1361TIP3   OH2 4023   8.346   2.400   6.463 -0.2856 -0.1474  0.1048
 1361TIP3    H1 4024   8.349   2.387   6.369  1.5280  3.1915 -0.4551
 1361TIP3    H2 4025   8.438   2.406   6.489 -0.7732  1.3507  1.6430
 1362TIP3   OH2 4026   1.646   3.952   6.615 -0.1150  0.0452 -0.4922
 1362TIP3    H1 4027   1.591   3.882   6.648 -0.2454  0.4079  0.0717
 1362TIP3    H2 4028   1.605   3.979   6.533 -0.8287  0.3755 -0.0317
 1363TIP3   OH2 4029   1.018   2.190   5.279 -0.0941  0.1718  0.9707
 1363TIP3    H1 4030   0.946   2.222   5.226 -0.6083 -1.1927  0.8178
 1363TIP3    H2 4031   0.981   2.182   5.367 -0.0299 -0.2014  0.9633
 1364TIP3   OH2 4032   7.217   4.257   1.337  0.0998 -0.0953  0.1397
 1364TIP3    H1 4033   7.237   4.168   1.366  1.9713  1.0737  2.9658
 1364TIP3    H2 4034   7.235   4.257   1.243  0.5737 -2.5361  0.1623
 1365TIP3   OH2 4035   4.514   4.493   6.760  0.4666  0.1012 -0.3823
 1365TIP3    H1 4036   4.572   4.506   6.834  1.0125 -1.8837 -0.3972
 1365TIP3    H2 4037   4.437   4.449   6.797  0.5654 -0.5333 -0.9089
 1366TIP3   OH2 4038   5.022   4.695   4.668 -0.0766  0.1596 -0.0896
 1366TIP3    H1 4039   5.021   4.632   4.739  2.2225 -0.7292 -0.7777
 1366TIP3    H2 4040   4.975   4.771   4.703  0.8993 -0.2693  2.3565
 1367TIP3   OH2 4041   6.118   1.298   4.830  0.7178  0.4521 -0.0736
 1367TIP3    H1 4042   6.055   1.254   4.886  1.3629 -2.6310 -1.5671
 1367TIP3    H2 4043   6.199   1.300   4.881  1.3826 -2.5971 -0.8330
 1368TIP3   OH2 4044   4.746   7.586   4.675  0.0103  0.7837  0.2302
 1368TIP3    H1 4045   4.729   7.668   4.629 -0.3226 -0.2821 -1.6602
 1368TIP3    H2 4046   4.798   7.534   4.613 -0.8866 -0.9264  0.8515
 1369TIP3   OH2 4047   7.707   2.068   2.850 -0.4172  0.2658 -0.4375
 1369TIP3    H1 4048   7.676   1.989   2.895 -0.0760 -0.1555 -0.9246
 1369TIP3    H2 4049   7.769   2.107   2.912 -0.4967  0.0853 -0.2411
 1370TIP3   OH2 4050   2.727   1.584   0.395 -0.4964 -0.1740  0.5595
 1370TIP3    H1 4051   2.658   1.605   0.333  1.6566  0.7384 -1.7092
 1370TIP3    H2 4052   2.750   1.669   0.435 -0.4105 -0.4046  1.0128
 1371TIP3   OH2 4053   4.020   1.071   0.400 -0.0774 -0.0879  0.0054
 1371TIP3    H1 4054   4.048   0.998   0.454  1.0566 -0.3912 -0.9398
 1371TIP3    H2 4055   4.007   1.143   0.461  0.4120 -0.6309  0.7588
 1372TIP3   OH2 4056   5.560   0.844   4.710  0.2850 -0.3463 -0.3206
 1372TIP3    H1 4057   5.637   0.852   4.766  2.6640 -3.1406 -2.8189
 1372TIP3    H2 4058   5.502   0.783   4.756  0.9321 -0.4967  0.3011
 1373TIP3   OH2 4059   8.209   1.321   0.969  0.2753  0.3657  0.0939
 1373TIP3    H1 4060   8.154   1.248   0.940 -0.2654  0.7760  0.0717
 1373TIP3    H2 4061   8.174   1.397   0.924  0.3890  0.7599  0.6566
 1374TIP3   OH2 4062   4.275   4.003   3.542 -0.1799  0.3818 -0.0736
 1374TIP3    H1 4063   4.343   3.982   3.477 -0.2240  0.5520 -0.1761
 1374TIP3    H2 4064   4.203   4.037   3.489 -0.7542 -0.7874 -0.0746
 1375TIP3   OH2 4065   4.311   2.725   4.671  0.0989 -0.5394  0.2648
 1375TIP3    H1 4066   4.289   2.764   4.587  0.4079  0.7941  0.7830
 1375TIP3    H2 4067   4.381   2.662   4.651  0.2667 -0.1291 -0.4525
 1376TIP3   OH2 4068   2.659   6.636   3.310 -0.8110  0.2459  0.0946
 1376TIP3    H1 4069   2.662   6.559   3.368 -0.0046  0.2780  0.1054
 1376TIP3    H2 4070   2.597   6.695   3.353 -0.3265  0.2094  0.8671
 1377TIP3   OH2 4071   7.688   6.475   4.128 -0.2171  0.3009 -0.3290
 1377TIP3    H1 4072   7.681   6.538   4.199 -2.0870  0.9124 -0.9752
 1377TIP3    H2 4073   7.743   6.519   4.063  1.0149 -0.0220  0.4783
 1378TIP3   OH2 4074   0.392   6.058   3.174 -0.0130 -0.0989 -0.3679
 1378TIP3    H1 4075   0.310   6.106   3.164  0.0503  0.4528  1.4420
 1378TIP3    H2 4076   0.379   6.002   3.251  2.1692  2.1041  1.8036
 1379TIP3   OH2 4077   7.768   3.375   6.695  0.1256  0.3597  0.4563
 1379TIP3    H1 4078   7.754   3.400   6.604  0.3051  3.2075  1.1240
 1379TIP3    H2 4079   7.685   3.336   6.722 -0.2410  0.3563 -0.6323
 1380TIP3   OH2 4080   0.024   0.486   6.544  0.2574  0.1451  0.5336
 1380TIP3    H1 4081   0.076   0.562   6.570  1.3218 -0.7691  1.1872
 1380TIP3    H2 4082   0.077   0.442   6.478  0.4126 -0.8752  1.3005
 1381TIP3   OH2 4083   1.351   7.437   2.488 -0.6215  0.2729 -0.6239
 1381TIP3    H1 4084   1.396   7.386   2.421  0.7758  0.5377  0.0882
 1381TIP3    H2 4085   1.387   7.406   2.571  0.9721  3.0090 -0.1982
 1382TIP3   OH2 4086   4.356   3.852   5.704 -0.6737  1.0890  0.3666
 1382TIP3    H1 4087   4.432   3.861   5.761  0.0124  0.9099 -0.4947
 1382TIP3    H2 4088   4.320   3.941   5.698  0.7309  1.6204 -0.8840
 1383TIP3   OH2 4089   7.057   0.263   1.936 -0.0297 -0.1830 -0.1762
 1383TIP3    H1 4090   7.090   0.224   2.017  0.1289  0.7206  0.2022
 1383TIP3    H2 4091   7.083   0.355   1.941  1.4016 -0.4274 -1.9882
 1384TIP3   OH2 4092   8.155   3.249   5.191 -0.0297  0.4634 -0.3177
 1384TIP3    H1 4093   8.229   3.187   5.196  0.0547  0.5419 -0.5822
 1384TIP3    H2 4094   8.078   3.196   5.211  0.1281  0.4416  0.2533
 1385TIP3   OH2 4095   7.545   7.592   3.755  0.2529  0.2321 -0.2424
 1385TIP3    H1 4096   7.592   7.509   3.751 -1.4667 -0.7930  0.0092
 1385TIP3    H2 4097   7.468   7.580   3.700  0.1542  1.7951 -0.4978
 1386TIP3   OH2 4098   6.692   1.756   4.977  0.3100  0.5997 -0.7397
 1386TIP3    H1 4099   6.757   1.826   4.990  0.7288 -0.2743  3.1459
 1386TIP3    H2 4100   6.612   1.790   5.018  0.0336 -0.5352 -0.3189
 1387TIP3   OH2 4101   7.644   2.070   6.530 -0.4324  0.1642  0.7581
 1387TIP3    H1 4102   7.554   2.048   6.505  0.2872 -1.2017 -0.7693
 1387TIP3    H2 4103   7.673   1.995   6.582  0.2711 -0.0349  0.0876
 1388TIP3   OH2 4104   6.591   3.551   4.431  0.3439 -0.1678 -0.1939
 1388TIP3    H1 4105   6.607   3.521   4.521  1.1831 -0.0417 -0.2939
 1388TIP3    H2 4106   6.541   3.480   4.391  0.8614 -0.6946  0.0750
 1389TIP3   OH2 4107   7.356   6.386   6.320  0.2337 -0.1071 -0.1500
 1389TIP3    H1 4108   7.307   6.344   6.249 -0.2461 -0.0848  0.1626
 1389TIP3    H2 4109   7.447   6.382   6.292 -0.1025  1.6290 -1.6750
 1390TIP3   OH2 4110   6.220   5.254   5.083 -0.2748  0.0297 -0.0313
 1390TIP3    H1 4111   6.254   5.230   4.996  1.7286  3.1520 -0.2546
 1390TIP3    H2 4112   6.269   5.197   5.143  0.6093 -0.0374 -0.7842
 1391TIP3   OH2 4113   5.510   0.132   5.801  0.4767 -0.2970 -0.2985
 1391TIP3    H1 4114   5.508   0.193   5.874 -2.2841 -1.6157  0.8609
 1391TIP3    H2 4115   5.552   0.054   5.836  2.0454  0.1026 -1.1547
 1392TIP3   OH2 4116   7.402   4.364   6.355 -0.0732 -0.0516 -0.2149
 1392TIP3    H1 4117   7.389   4.454   6.386  0.6215  0.5538 -1.5928
 1392TIP3    H2 4118   7.445   4.374   6.271  1.3604 -1.7263  0.2693
 1393TIP3   OH2 4119   6.522   4.428   3.839 -0.0883 -0.3149 -0.2953
 1393TIP3    H1 4120   6.484   4.341   3.852 -1.0141 -0.0378 -1.0614
 1393TIP3    H2 4121   6.614   4.411   3.819  0.0774 -1.0290  0.9696
 1394TIP3   OH2 4122   5.325   5.058   5.967  0.1015 -0.6678  0.5280
 1394TIP3    H1 4123   5.385   5.132   5.954 -1.3966  0.4836 -0.0694
 1394TIP3    H2 4124   5.298   5.066   6.059 -1.5737  0.7439 -0.0529
 1395TIP3   OH2 4125   1.942   0.561   3.262  0.2141  0.8967  0.1417
 1395TIP3    H1 4126   2.034   0.538   3.273  0.1271  1.3223  2.1333
 1395TIP3    H2 4127   1.939   0.655   3.280 -0.4959  1.0725 -0.8058
 1396TIP3   OH2 4128   1.709   1.812   1.607  0.1111  0.3567 -0.7800
 1396TIP3    H1 4129   1.728   1.860   1.688 -1.7981 -1.1290  0.6211
 1396TIP3    H2 4130   1.685   1.880   1.544  0.4166  1.4444  0.2475
 1397TIP3   OH2 4131   6.629   0.524   0.045  0.0913 -0.0572  0.1487
 1397TIP3    H1 4132   6.595   0.442   0.082  0.6080 -0.5710 -0.4923
 1397TIP3    H2 4133   6.569   0.591   0.077 -0.0800 -0.6256  1.0560
 1398TIP3   OH2 4134   7.043   1.355   5.903 -0.5784 -0.1780  0.0628
 1398TIP3    H1 4135   7.094   1.274   5.901 -0.2459  0.0451 -1.3251
 1398TIP3    H2 4136   7.070   1.398   5.984  1.1983 -0.2391 -0.4477
 1399TIP3   OH2 4137   6.383   2.011   3.249  0.4698  0.3985 -0.0957
 1399TIP3    H1 4138   6.383   1.917   3.231 -1.5369  0.6189 -1.5653
 1399TIP3    H2 4139   6.442   2.048   3.183 -1.1118  0.4221 -1.5819
 1400TIP3   OH2 4140   0.375   6.034   2.195 -0.5048 -0.4271 -0.5929
 1400TIP3    H1 4141   0.304   6.064   2.252 -0.1424 -1.5036  0.4692
 1400TIP3    H2 4142   0.436   6.108   2.191 -0.3721 -0.4405  0.7165
 1401TIP3   OH2 4143   4.392   7.341   3.391 -0.2754 -0.2289 -0.5595
 1401TIP3    H1 4144   4.386   7.390   3.473 -0.0414 -0.0835 -0.6263
 1401TIP3    H2 4145   4.331   7.386   3.332 -1.0223 -0.8075 -0.2345
 1402TIP3   OH2 4146   1.501   0.964   3.760 -0.1471 -0.2411  0.0504
 1402TIP3    H1 4147   1.498   1.021   3.837  0.3625  0.1032 -0.1779
 1402TIP3    H2 4148   1.430   0.996   3.705 -1.2070 -1.1662  0.8262
 1403TIP3   OH2 4149   3.575   6.263   6.857  0.5187 -0.2718 -0.1639
 1403TIP3    H1 4150   3.610   6.207   6.926  1.7164 -0.3899 -0.8377
 1403TIP3    H2 4151   3.595   6.216   6.775  0.3766  0.5171 -0.6629
 1404TIP3   OH2 4152   5.984   0.858   4.318  0.0332 -1.0996 -0.1325
 1404TIP3    H1 4153   5.980   0.906   4.400  0.0424  0.0781 -0.8036
 1404TIP3    H2 4154   6.078   0.845   4.303  0.1692  0.6382 -1.0327
 1405TIP3   OH2 4155   8.104   7.669   6.646  0.2308 -0.4063  0.4790
 1405TIP3    H1 4156   8.068   7.733   6.708 -0.2507 -0.6896  0.4966
 1405TIP3    H2 4157   8.166   7.718   6.594 -0.5851  0.2270  0.0800
 1406TIP3   OH2 4158   0.705   7.354   4.781  0.7659  0.5957  0.3442
 1406TIP3    H1 4159   0.761   7.280   4.760 -0.6751 -0.7223  0.9295
 1406TIP3    H2 4160   0.707   7.360   4.877 -1.0433 -0.3027  0.4770
 1407TIP3   OH2 4161   0.428   5.070   3.483  0.1970  0.7004 -0.3441
 1407TIP3    H1 4162   0.384   5.012   3.421 -2.3454  0.0948  1.8522
 1407TIP3    H2 4163   0.487   5.013   3.532  0.4658  0.7276 -0.6315
 1408TIP3   OH2 4164   0.563   2.499   0.618 -0.1767 -0.2849  0.4547
 1408TIP3    H1 4165   0.579   2.422   0.564  2.3092  0.5057 -0.0665
 1408TIP3    H2 4166   0.530   2.464   0.700  0.1642 -1.8500 -0.0426
 1409TIP3   OH2 4167   2.118   4.013   3.934  0.4565 -0.0410  0.4167
 1409TIP3    H1 4168   2.108   3.973   3.847 -1.3407  0.1396  0.5007
 1409TIP3    H2 4169   2.130   3.939   3.993 -0.5777 -0.3447  0.2777
 1410TIP3   OH2 4170   6.628   7.576   0.324  0.4477 -0.2167 -0.3140
 1410TIP3    H1 4171   6.597   7.659   0.288  0.0527  0.0372  0.5933
 1410TIP3    H2 4172   6.641   7.593   0.417  0.5770 -1.1115 -0.1597
 1411TIP3   OH2 4173   3.183   7.001   1.828  0.2152 -0.0418 -0.2834
 1411TIP3    H1 4174   3.167   6.916   1.787  1.6841 -2.1670  3.1002
 1411TIP3    H2 4175   3.108   7.013   1.887  0.3222  0.7520 -0.3018
 1412TIP3   OH2 4176   6.134   0.121   4.937  0.1374 -0.0096 -0.0753
 1412TIP3    H1 4177   6.079   0.198   4.950 -1.4593 -0.8548 -1.4864
 1412TIP3    H2 4178   6.100   0.056   4.999  1.3342  0.2889  0.9514
 1413TIP3   OH2 4179   4.990   6.176   6.010  0.7805 -0.1999 -0.2737
 1413TIP3    H1 4180   4.984   6.249   6.072 -1.3370 -0.5209 -0.0543
 1413TIP3    H2 4181   4.909   6.181   5.960  1.0261 -1.8762 -0.8760
 1414TIP3   OH2 4182   5.568   7.173   2.285 -0.0954 -0.1002 -0.4708
 1414TIP3    H1 4183   5.543   7.261   2.314 -1.8646 -0.2031 -1.5803
 1414TIP3    H2 4184   5.516   7.158   2.206 -1.3934 -2.9193  0.7872
 1415TIP3   OH2 4185   4.308   1.907   5.698 -0.7732  0.1248 -0.0409
 1415TIP3    H1 4186   4.337   1.857   5.775  0.3219  0.5047 -0.1894
 1415TIP3    H2 4187   4.218   1.879   5.684 -0.6079 -0.8193  0.6765
 1416TIP3   OH2 4188   6.021   0.964   4.625 -0.2522 -0.1750 -0.2395
 1416TIP3    H1 4189   6.052   0.893   4.682  0.0090  1.3481  1.6142
 1416TIP3    H2 4190   6.101   1.005   4.593 -0.3813 -1.5687 -2.5357
 1417TIP3   OH2 4191   4.186   6.884   1.987  0.3202  0.2817 -0.2180
 1417TIP3    H1 4192   4.187   6.799   2.032  0.6250  0.3840 -0.0330
 1417TIP3    H2 4193   4.096   6.893   1.956  0.6381 -0.8032 -1.5519
 1418TIP3   OH2 4194   5.672   0.871   6.158 -0.1036 -0.3554 -0.4050
 1418TIP3    H1 4195   5.595   0.912   6.120 -0.6115 -0.4010  0.5289
 1418TIP3    H2 4196   5.695   0.927   6.232  1.3491  0.1856 -1.2300
 1419TIP3   OH2 4197   6.680   6.985   1.903 -0.4968  0.0568 -0.3831
 1419TIP3    H1 4198   6.740   7.052   1.935  0.1713  0.0901 -1.6622
 1419TIP3    H2 4199   6.631   7.027   1.833 -0.0478 -0.7741 -1.2204
 1420TIP3   OH2 4200   7.041   4.406   0.186  0.0541  0.5416 -0.3425
 1420TIP3    H1 4201   6.991   4.482   0.157  0.2392  0.7711 -0.0706
 1420TIP3    H2 4202   7.130   4.438   0.195  0.1597  0.2555 -0.3625
 1421TIP3   OH2 4203   1.114   0.793   0.227  0.6284 -0.5926  0.0514
 1421TIP3    H1 4204   1.055   0.786   0.152 -0.2764 -1.2100  0.7984
 1421TIP3    H2 4205   1.133   0.702   0.251 -1.2365 -0.5175  2.1974
 1422TIP3   OH2 4206   4.610   4.030   0.181  0.4120  0.0079  0.2605
 1422TIP3    H1 4207   4.689   3.989   0.146  1.5306  0.4853  2.1055
 1422TIP3    H2 4208   4.595   4.106   0.126  1.5061  0.1587  0.1608
 1423TIP3   OH2 4209   3.125   3.561   4.923  0.5263 -0.0475  0.6096
 1423TIP3    H1 4210   3.044   3.580   4.875  0.1089 -1.4783  0.7049
 1423TIP3    H2 4211   3.174   3.644   4.921 -0.2395  0.4067 -0.7930
 1424TIP3   OH2 4212   4.655   7.482   2.668  0.2198  0.3503 -0.0674
 1424TIP3    H1 4213   4.691   7.510   2.752 -1.5028 -0.7977  1.1184
 1424TIP3    H2 4214   4.635   7.563   2.622  1.0382  1.0020  0.6795
 1425TIP3   OH2 4215   4.663   0.223   3.159  0.5182  0.4143 -0.4405
 1425TIP3    H1 4216   4.604   0.208   3.086  0.6623  1.9022 -0.8903
 1425TIP3    H2 4217   4.739   0.168   3.140 -0.2777 -0.7380 -0.3663
 1426TIP3   OH2 4218   8.305   6.148   2.327  0.2590 -0.5009  0.5607
 1426TIP3    H1 4219   8.278   6.239   2.334  2.5028  0.3165 -0.5448
 1426TIP3    H2 4220   8.255   6.113   2.254 -1.7509 -0.6674  1.9363
 1427TIP3   OH2 4221   6.780   3.121   1.839  0.0740 -0.5014  0.0786
 1427TIP3    H1 4222   6.778   3.191   1.774  2.4369  0.0174  0.4468
 1427TIP3    H2 4223   6.743   3.045   1.794  0.5931  0.1357 -1.4943
 1428TIP3   OH2 4224   4.118   1.193   5.495  0.3117  0.3387 -0.3983
 1428TIP3    H1 4225   4.079   1.153   5.418  0.8081 -0.6639 -0.1490
 1428TIP3    H2 4226   4.196   1.238   5.461  0.9930 -0.7836 -0.4052
 1429TIP3   OH2 4227   7.780   7.868   6.548  0.3823  0.1623 -0.2950
 1429TIP3    H1 4228   7.849   7.898   6.607  1.7382 -2.1372 -0.6188
 1429TIP3    H2 4229   7.823   7.805   6.490 -1.5030  0.3448 -2.0231
 1430TIP3   OH2 4230   4.483   5.712   4.294  0.0461 -0.1506 -0.5451
 1430TIP3    H1 4231   4.472   5.763   4.214  0.3263  1.5116  0.4353
 1430TIP3    H2 4232   4.565   5.664   4.281 -0.5398 -0.8611 -1.7379
 1431TIP3   OH2 4233   2.889   2.869   4.262  0.2217  0.1346  0.4249
 1431TIP3    H1 4234   2.912   2.784   4.225  0.3828  0.7626 -0.9812
 1431TIP3    H2 4235   2.933   2.871   4.347  1.8957 -0.4112 -0.3776
 1432TIP3   OH2 4236  -0.026   2.066   2.509 -0.5727  0.3929 -0.3407
 1432TIP3    H1 4237   0.015   2.104   2.587 -0.6279 -0.7470  0.2727
 1432TIP3    H2 4238   0.033   1.995   2.484 -1.3286 -0.2207 -0.4238
 1433TIP3   OH2 4239   4.249   5.714   2.629 -0.2148 -0.0599 -0.0798
 1433TIP3    H1 4240   4.256   5.618   2.631  0.4671 -0.0368 -0.7826
 1433TIP3    H2 4241   4.157   5.731   2.648 -0.2378 -0.8246  0.6029
 1434TIP3   OH2 4242   2.510   1.006   2.050  0.1054 -0.1983  0.0653
 1434TIP3    H1 4243   2.459   0.929   2.073  2.7707 -2.1629 -0.1020
 1434TIP3    H2 4244   2.496   1.018   1.956 -0.5635 -0.2697  0.1551
 1435TIP3   OH2 4245   0.596   4.104   4.000 -0.3202 -0.3372  0.0072
 1435TIP3    H1 4246   0.573   4.135   4.087  0.4200 -0.1645  0.1478
 1435TIP3    H2 4247   0.691   4.094   4.002 -0.1498  0.8155 -1.1393
 1436TIP3   OH2 4248   5.201   7.592   2.618 -0.0278  0.2432  0.2666
 1436TIP3    H1 4249   5.268   7.642   2.664  1.7013 -0.7076 -1.0532
 1436TIP3    H2 4250   5.179   7.520   2.677 -0.5719  1.0665  1.0801
 1437TIP3   OH2 4251   7.073   4.153   3.391 -0.2767  0.3400 -0.9910
 1437TIP3    H1 4252   7.081   4.058   3.387 -0.1867  0.2737  0.5078
 1437TIP3    H2 4253   6.988   4.172   3.351 -0.9033 -0.4899 -0.0810
 1438TIP3   OH2 4254   6.744   4.835   4.919 -0.1961  0.3272 -0.5388
 1438TIP3    H1 4255   6.652   4.810   4.927 -0.6051  1.2568 -2.0318
 1438TIP3    H2 4256   6.790   4.776   4.979 -1.3849 -2.2079 -1.9535
 1439TIP3   OH2 4257   1.334   2.944   1.991 -0.5283 -0.0401 -0.0628
 1439TIP3    H1 4258   1.252   2.968   2.035  0.2464 -0.2582  1.5779
 1439TIP3    H2 4259   1.380   3.027   1.980 -0.7354  0.0184 -0.5257
 1440TIP3   OH2 4260   2.360   6.610   6.327 -0.1829  0.3602  0.1784
 1440TIP3    H1 4261   2.277   6.589   6.284  0.5621 -0.8900 -0.6691
 1440TIP3    H2 4262   2.423   6.618   6.256  0.6639  0.1923  0.9012
 1441TIP3   OH2 4263   0.251   2.605   3.945  0.0196 -0.0458 -0.3113
 1441TIP3    H1 4264   0.254   2.656   3.865  0.3667 -1.2606 -1.0913
 1441TIP3    H2 4265   0.231   2.515   3.917  0.1140 -0.4927  0.9528
 1442TIP3   OH2 4266   4.261   0.862   0.816  0.4929  0.5705 -0.0260
 1442TIP3    H1 4267   4.351   0.836   0.797  0.0279 -1.0268 -0.1851
 1442TIP3    H2 4268   4.258   0.872   0.911  0.8858  0.8483 -0.0400
 1443TIP3   OH2 4269   7.764   6.644   4.318 -0.4065  0.4285 -0.5276
 1443TIP3    H1 4270   7.829   6.613   4.381 -0.2458 -1.0321 -1.3586
 1443TIP3    H2 4271   7.793   6.731   4.293  0.7277  0.1543 -0.2056
 1444TIP3   OH2 4272   8.004   5.485   6.641  0.4060  0.0320 -0.6661
 1444TIP3    H1 4273   7.974   5.434   6.565  1.3547  1.5922 -2.1609
 1444TIP3    H2 4274   7.974   5.435   6.716 -0.5847 -1.5952 -2.0589
 1445TIP3   OH2 4275   4.425   2.291   0.975  0.3358 -0.1430 -0.4173
 1445TIP3    H1 4276   4.426   2.218   1.037 -0.0036  1.7367  1.9255
 1445TIP3    H2 4277   4.494   2.349   1.005  0.6779  0.5109 -2.3055
 1446TIP3   OH2 4278   1.540   7.871   0.748  0.2952 -0.0408 -0.2055
 1446TIP3    H1 4279   1.556   7.882   0.842  0.2084 -0.5607 -0.1243
 1446TIP3    H2 4280   1.508   7.956   0.718  0.2302  0.0979  0.2565
 1447TIP3   OH2 4281   2.077   5.908   1.925  0.5792  0.3097  0.0918
 1447TIP3    H1 4282   2.098   5.994   1.889 -0.4825  0.4463 -0.2456
 1447TIP3    H2 4283   2.081   5.849   1.850  1.4493  0.0308  0.3503
 1448TIP3   OH2 4284   7.476   0.157   4.679  0.5661  0.3422  0.4251
 1448TIP3    H1 4285   7.571   0.152   4.666  0.6029  2.9523 -1.1943
 1448TIP3    H2 4286   7.464   0.238   4.729 -0.8229  0.0250  0.6389
 1449TIP3   OH2 4287   5.915   5.316   5.961 -0.1324 -0.0282 -0.3173
 1449TIP3    H1 4288   5.985   5.252   5.972 -0.7288 -0.2233  3.8037
 1449TIP3    H2 4289   5.959   5.394   5.928  1.4046 -1.1530 -1.0272
 1450TIP3   OH2 4290   5.924   7.583   5.482  0.0969  0.8678 -0.2224
 1450TIP3    H1 4291   5.846   7.618   5.526 -0.0073 -0.7395  0.9439
 1450TIP3    H2 4292   5.995   7.642   5.508 -0.5792  1.9636 -0.7590
 1451TIP3   OH2 4293   6.744   1.365   3.202  0.9016 -0.5986  0.2248
 1451TIP3    H1 4294   6.688   1.292   3.177 -0.6869  0.8568 -0.6530
 1451TIP3    H2 4295   6.755   1.356   3.297  2.8945 -3.3772 -0.1581
 1452TIP3   OH2 4296   0.226   6.591   6.629  0.1391 -0.2785  0.3938
 1452TIP3    H1 4297   0.166   6.602   6.555 -0.6279 -2.3526  0.6372
 1452TIP3    H2 4298   0.207   6.664   6.687 -0.5935  0.3171 -0.5661
 1453TIP3   OH2 4299   1.442   5.236   0.149 -0.5064  0.2643  0.2996
 1453TIP3    H1 4300   1.395   5.238   0.232 -0.4072 -1.8409  0.4817
 1453TIP3    H2 4301   1.401   5.164   0.101  1.4455 -0.5815 -0.1870
 1454TIP3   OH2 4302   0.736   0.743   4.727  0.4846 -0.2997 -0.4609
 1454TIP3    H1 4303   0.676   0.788   4.667 -0.2408 -1.2543 -0.4754
 1454TIP3    H2 4304   0.785   0.682   4.672  1.4473  0.4260 -0.4355
 1455TIP3   OH2 4305   1.561   4.501   3.932 -0.2495  0.3814 -0.2027
 1455TIP3    H1 4306   1.584   4.477   4.022 -0.4663  1.2586  0.1025
 1455TIP3    H2 4307   1.468   4.480   3.925 -0.3486  0.7648 -0.0597
 1456TIP3   OH2 4308   2.606   1.001   2.746 -0.7165  0.1116  0.1267
 1456TIP3    H1 4309   2.678   1.048   2.705 -0.2946 -1.7930 -1.4214
 1456TIP3    H2 4310   2.604   0.916   2.702 -2.7095 -0.5912  1.4460
 1457TIP3   OH2 4311   4.960   1.835   1.694  0.1917  0.6907 -0.3418
 1457TIP3    H1 4312   4.996   1.878   1.771 -1.5335 -1.3629  1.7929
 1457TIP3    H2 4313   4.982   1.742   1.706 -1.2806  0.1294 -1.5677
 1458TIP3   OH2 4314   7.832   5.276   4.295 -0.2870 -0.1084  0.2226
 1458TIP3    H1 4315   7.888   5.199   4.288 -2.2885 -1.5643 -0.7356
 1458TIP3    H2 4316   7.788   5.267   4.380  0.5168  0.7780  0.7578
 1459TIP3   OH2 4317   3.922   1.165   6.171  0.0941 -0.0466  0.0964
 1459TIP3    H1 4318   3.841   1.187   6.216 -0.1962 -1.1384  0.1350
 1459TIP3    H2 4319   3.991   1.179   6.236 -0.2312 -0.7118  0.5960
 1460TIP3   OH2 4320   1.434   7.835   2.373 -0.3356  0.2162  0.4360
 1460TIP3    H1 4321   1.514   7.886   2.362 -0.5149  0.8402  1.8456
 1460TIP3    H2 4322   1.404   7.856   2.461 -1.4902 -0.8217  0.3150
 1461TIP3   OH2 4323   2.064   6.643   3.623 -0.1641  0.2764  0.2763
 1461TIP3    H1 4324   2.045   6.629   3.716  0.5214 -0.5246  0.3075
 1461TIP3    H2 4325   2.036   6.563   3.580 -3.3069  1.7222 -0.7011
 1462TIP3   OH2 4326   6.558   5.461   0.672 -0.0327 -0.0677 -0.1462
 1462TIP3    H1 4327   6.576   5.471   0.579  0.3244 -0.3229 -0.1091
 1462TIP3    H2 4328   6.473   5.501   0.685 -1.9265 -3.3529 -1.3008
 1463TIP3   OH2 4329   6.491   1.984   0.143  0.9789  0.0087 -0.3622
 1463TIP3    H1 4330   6.532   1.898   0.137 -0.9716 -0.8825 -2.5238
 1463TIP3    H2 4331   6.531   2.035   0.073  0.6484  0.1665 -0.4405
 1464TIP3   OH2 4332   5.898   1.289   2.146  0.1595  0.9492 -0.0420
 1464TIP3    H1 4333   5.869   1.215   2.198  0.4463  0.9327  0.0928
 1464TIP3    H2 4334   5.862   1.366   2.191  0.0674  0.9100 -0.0476
 1465TIP3   OH2 4335   8.073   4.248   6.541  0.5598 -0.1618  0.4179
 1465TIP3    H1 4336   8.077   4.210   6.629  0.5875 -0.8504  0.1250
 1465TIP3    H2 4337   8.058   4.173   6.483 -1.5366  0.4920  0.0163
 1466TIP3   OH2 4338   5.447   2.290   5.787  0.6617 -0.1909  0.1184
 1466TIP3    H1 4339   5.538   2.313   5.764  1.0194  0.6984  2.1894
 1466TIP3    H2 4340   5.454   2.250   5.873 -1.1199  2.2358  1.5097
 1467TIP3   OH2 4341   0.435   0.269   6.750  0.6356 -0.7538 -0.1360
 1467TIP3    H1 4342   0.502   0.276   6.818  1.8251  2.3420 -1.4652
 1467TIP3    H2 4343   0.470   0.205   6.688  1.8212 -0.0235 -0.2329
 1468TIP3   OH2 4344   0.978   3.452   0.802  0.4346  0.0895 -0.1238
 1468TIP3    H1 4345   0.966   3.462   0.707  1.3175  1.7579 -0.0974
 1468TIP3    H2 4346   1.063   3.408   0.810  1.2343  1.5690 -0.1178
 1469TIP3   OH2 4347   2.717   7.072   0.607  0.3842  0.2070  0.4845
 1469TIP3    H1 4348   2.811   7.070   0.620  0.4048  1.3228  0.5686
 1469TIP3    H2 4349   2.702   7.012   0.534  1.0395 -0.6770  1.0496
 1470TIP3   OH2 4350   8.001   2.648   4.371 -0.3661  0.1917  0.3991
 1470TIP3    H1 4351   7.965   2.560   4.365  4.2008 -1.8533 -3.4225
 1470TIP3    H2 4352   7.955   2.697   4.303 -0.5309 -0.3050  0.1434
 1471TIP3   OH2 4353   5.720   4.443   5.751 -0.6225  0.3500 -0.3377
 1471TIP3    H1 4354   5.657   4.448   5.679  0.3075  2.1413 -1.1061
 1471TIP3    H2 4355   5.715   4.528   5.794 -0.7769 -0.5023  1.4363
 1472TIP3   OH2 4356   6.877   7.071   0.694  0.2064  0.0353 -0.4377
 1472TIP3    H1 4357   6.851   7.014   0.766 -1.2352 -0.7449 -1.5285
 1472TIP3    H2 4358   6.958   7.033   0.662  1.1395  0.6815  1.0577
 1473TIP3   OH2 4359   5.115   2.708   3.155  0.2491 -0.7210  0.6607
 1473TIP3    H1 4360   5.055   2.663   3.095 -0.0910 -0.1507  0.5682
 1473TIP3    H2 4361   5.195   2.656   3.151  0.8465  0.2232 -1.6107
 1474TIP3   OH2 4362   4.364   7.247   0.903 -0.7206 -0.1059  0.4822
 1474TIP3    H1 4363   4.384   7.296   0.823 -0.1019 -1.3128 -0.1233
 1474TIP3    H2 4364   4.447   7.209   0.929 -1.1180 -0.5262  1.1612
 1475TIP3   OH2 4365   0.287   5.954   0.883  0.0006 -0.1970  0.3467
 1475TIP3    H1 4366   0.217   6.019   0.892  1.8302  2.0335 -0.5375
 1475TIP3    H2 4367   0.368   6.004   0.895  1.7828 -1.3711 -4.4289
 1476TIP3   OH2 4368   2.758   2.776   6.644  0.1287 -0.0450  0.4311
 1476TIP3    H1 4369   2.730   2.844   6.706  1.5152  0.1260  0.9198
 1476TIP3    H2 4370   2.823   2.726   6.693  0.4462 -0.5967 -0.5399
 1477TIP3   OH2 4371   6.741   3.419   5.275 -0.0216  0.4115  0.3292
 1477TIP3    H1 4372   6.805   3.476   5.234 -1.9677  1.6913 -1.0696
 1477TIP3    H2 4373   6.729   3.347   5.213 -1.2151  1.1135 -0.2876
 1478TIP3   OH2 4374   8.381   0.692   0.431  0.5567  0.5285 -0.0239
 1478TIP3    H1 4375   8.387   0.653   0.518 -0.7320  1.0303  0.3181
 1478TIP3    H2 4376   8.444   0.764   0.432 -0.4275  1.4138  1.0027
 1479TIP3   OH2 4377   5.783   4.835   4.217  0.1575  0.3298 -0.0920
 1479TIP3    H1 4378   5.731   4.785   4.154  0.6429  0.6578 -0.7648
 1479TIP3    H2 4379   5.809   4.770   4.283 -0.8814  0.1123  0.1213
 1480TIP3   OH2 4380   0.350   0.129   2.169 -0.3765 -0.3068 -0.2587
 1480TIP3    H1 4381   0.373   0.132   2.076 -1.3951  0.0485 -0.5178
 1480TIP3    H2 4382   0.379   0.213   2.204  0.2670 -0.5573 -0.1894
 1481TIP3   OH2 4383   5.353   1.786   4.400 -0.0409 -0.3134 -0.5193
 1481TIP3    H1 4384   5.396   1.752   4.479 -0.9468 -2.8848 -1.0369
 1481TIP3    H2 4385   5.285   1.722   4.380 -1.1747  1.3208 -2.2822
 1482TIP3   OH2 4386   1.143   7.058   2.617 -0.0485  0.4009  0.2685
 1482TIP3    H1 4387   1.220   7.073   2.563 -0.6654  1.1557 -0.4165
 1482TIP3    H2 4388   1.070   7.092   2.566 -0.8584 -0.3793  0.8653
 1483TIP3   OH2 4389   3.975   2.263   0.135 -0.3461  0.0280 -0.1440
 1483TIP3    H1 4390   3.957   2.192   0.197 -1.9025 -1.6480 -2.3440
 1483TIP3    H2 4391   4.034   2.225   0.071  1.6260  1.8766  0.4392
 1484TIP3   OH2 4392   0.736   5.105   4.653 -0.1694 -0.1204  0.0901
 1484TIP3    H1 4393   0.760   5.110   4.746  0.0409  0.4471  0.0143
 1484TIP3    H2 4394   0.709   5.195   4.631  1.0271  0.0679 -0.7142
 1485TIP3   OH2 4395   7.382   2.060   6.485 -0.3354  0.2812  0.3975
 1485TIP3    H1 4396   7.309   2.103   6.530 -0.7203 -0.2517  0.2825
 1485TIP3    H2 4397   7.366   2.076   6.392 -0.0594  0.5488  0.3930
 1486TIP3   OH2 4398   1.854   3.896   0.313  0.2177 -0.1315  0.3003
 1486TIP3    H1 4399   1.787   3.885   0.380  0.0853 -1.3562 -0.0143
 1486TIP3    H2 4400   1.891   3.809   0.301  1.2403  0.3474 -0.1932
 1487TIP3   OH2 4401   0.555   2.558   6.176 -0.1657 -0.6332 -0.0878
 1487TIP3    H1 4402   0.640   2.593   6.204  0.8805 -3.1465  0.0985
 1487TIP3    H2 4403   0.564   2.545   6.082 -0.1990 -1.2342 -0.0116
 1488TIP3   OH2 4404   5.763   0.649   1.603 -1.0060 -0.3390  0.5431
 1488TIP3    H1 4405   5.831   0.709   1.573  0.4758 -1.8132  0.7737
 1488TIP3    H2 4406   5.757   0.583   1.534 -3.7316  0.8337 -0.4668
 1489TIP3   OH2 4407   6.000   3.632   5.061  0.5505  0.5850  0.0216
 1489TIP3    H1 4408   5.980   3.539   5.057 -0.5810  0.7713  1.0701
 1489TIP3    H2 4409   6.095   3.636   5.068  0.6124 -0.4810 -0.1342
 1490TIP3   OH2 4410   3.447   0.795   4.038  0.2935 -0.3224 -0.3054
 1490TIP3    H1 4411   3.517   0.739   4.072 -0.2666 -1.4278 -0.8838
 1490TIP3    H2 4412   3.492   0.858   3.982  1.0165  0.2740  0.9010
 1491TIP3   OH2 4413   7.733   1.851   4.374  0.2453  0.2336  0.2376
 1491TIP3    H1 4414   7.679   1.870   4.450  0.8267 -1.0555  1.0025
 1491TIP3    H2 4415   7.821   1.842   4.408  0.3677 -1.3357 -0.4154
 1492TIP3   OH2 4416   7.827   7.733   4.915 -0.3532  0.0001  0.1332
 1492TIP3    H1 4417   7.807   7.803   4.854  0.0023 -0.9882 -1.1617
 1492TIP3    H2 4418   7.777   7.658   4.883 -1.5782 -0.1075  2.0889
 1493TIP3   OH2 4419   0.963   4.697   1.681  0.2198  0.4628  0.3620
 1493TIP3    H1 4420   0.912   4.723   1.605  0.1686  0.6469  0.4599
 1493TIP3    H2 4421   0.993   4.779   1.720 -1.8756  0.5206  2.0273
 1494TIP3   OH2 4422   1.314   0.404   4.946 -0.3438 -0.1032  0.5939
 1494TIP3    H1 4423   1.366   0.340   4.899 -0.2266  1.1901 -1.1379
 1494TIP3    H2 4424   1.247   0.433   4.883 -0.2492  1.6125  1.2214
 1495TIP3   OH2 4425   5.627   2.684   4.308  0.6448 -0.9038 -0.0502
 1495TIP3    H1 4426   5.636   2.744   4.381 -0.7367 -2.1210  1.1675
 1495TIP3    H2 4427   5.553   2.718   4.258  0.0196 -1.4324  0.5026
 1496TIP3   OH2 4428   6.287   3.391   3.707  0.8045 -0.4346 -0.9389
 1496TIP3    H1 4429   6.196   3.394   3.678  1.0707 -1.2041 -1.9398
 1496TIP3    H2 4430   6.282   3.388   3.802 -0.1277  1.8989 -0.8575
 1497TIP3   OH2 4431   8.354   3.793   0.899 -0.0712  0.1247  0.1471
 1497TIP3    H1 4432   8.349   3.885   0.926  0.6032  0.1419  0.2342
 1497TIP3    H2 4433   8.275   3.753   0.934  0.2908  0.3723  1.2742
 1498TIP3   OH2 4434   6.191   0.916   0.468  0.7388 -0.1772  0.3529
 1498TIP3    H1 4435   6.118   0.904   0.407 -1.6903  2.2392  2.5346
 1498TIP3    H2 4436   6.266   0.938   0.412 -0.8611 -0.0238 -1.8440
 1499TIP3   OH2 4437   3.723   6.094   4.306  0.3617  0.2308  0.6002
 1499TIP3    H1 4438   3.652   6.128   4.252  0.4646 -0.0780  0.2648
 1499TIP3    H2 4439   3.724   6.000   4.289  0.1520  0.0666  1.4331
 1500TIP3   OH2 4440   7.229   2.176   2.604  0.2158  0.0403  0.6556
 1500TIP3    H1 4441   7.268   2.263   2.617  0.8987 -0.2995  0.9226
 1500TIP3    H2 4442   7.163   2.168   2.673  0.8044 -0.0233  1.2169
 1501TIP3   OH2 4443   3.332   5.605   0.963  0.6136 -0.3880  0.1769
 1501TIP3    H1 4444   3.319   5.699   0.953 -0.6492 -0.6939 -1.3451
 1501TIP3    H2 4445   3.426   5.592   0.947  0.9056  0.6483  0.9320
 1502TIP3   OH2 4446   6.497   5.177   5.606  0.6685  0.0414 -0.6797
 1502TIP3    H1 4447   6.455   5.263   5.596  0.5397  0.1340  0.5133
 1502TIP3    H2 4448   6.563   5.175   5.537  1.4381  1.5737 -0.0278
 1503TIP3   OH2 4449   5.580   1.959   4.662  0.2911  0.0968 -0.1567
 1503TIP3    H1 4450   5.595   1.992   4.751  0.5396 -0.5022  0.0338
 1503TIP3    H2 4451   5.658   1.987   4.613  0.8191 -0.7510  0.1696
 1504TIP3   OH2 4452   4.669   5.881   5.927  0.0092  0.3101 -0.3064
 1504TIP3    H1 4453   4.729   5.808   5.919 -1.2781 -0.8399  0.1234
 1504TIP3    H2 4454   4.585   5.841   5.950 -0.2962  2.0563  1.9876
 1505TIP3   OH2 4455   3.384   6.723   2.578 -0.5297 -0.5615  0.7293
 1505TIP3    H1 4456   3.399   6.745   2.670  1.7770 -0.2215  0.3365
 1505TIP3    H2 4457   3.431   6.641   2.565  1.3957  0.6925 -0.6993
 1506TIP3   OH2 4458   0.709   2.581   1.671  0.7249 -0.2315  0.0277
 1506TIP3    H1 4459   0.754   2.640   1.732  0.8672  0.0020 -0.3006
 1506TIP3    H2 4460   0.624   2.564   1.711  1.1444 -0.7621  0.7093
 1507TIP3   OH2 4461   6.983   5.488   4.932 -0.1083 -0.1270 -0.3614
 1507TIP3    H1 4462   7.040   5.435   4.988  0.0415 -1.1263 -1.4189
 1507TIP3    H2 4463   6.951   5.426   4.865 -0.6099  0.9322 -1.1272
 1508TIP3   OH2 4464   2.773   1.045   5.474  0.0503  0.4052 -0.2498
 1508TIP3    H1 4465   2.761   1.077   5.564  0.8497 -0.3834  0.1407
 1508TIP3    H2 4466   2.700   1.085   5.426 -1.4275 -0.5108  1.0896
 1509TIP3   OH2 4467   3.184   4.995   3.695 -0.6736  0.0031  0.2196
 1509TIP3    H1 4468   3.105   4.942   3.689 -0.6698  0.0750 -0.6482
 1509TIP3    H2 4469   3.252   4.942   3.654 -0.0418 -0.4448  1.7884
 1510TIP3   OH2 4470   7.466   1.627   0.658 -0.3303 -0.5361  0.1704
 1510TIP3    H1 4471   7.448   1.539   0.690  0.2540  0.5969  4.1048
 1510TIP3    H2 4472   7.550   1.651   0.699 -0.4662  1.8612 -0.7766
 1511TIP3   OH2 4473   6.883   3.384   4.297 -0.2461  0.2114 -0.1670
 1511TIP3    H1 4474   6.822   3.315   4.325  0.8380 -0.3267  1.0053
 1511TIP3    H2 4475   6.957   3.376   4.358  0.6535  1.3340 -1.0689
 1512TIP3   OH2 4476   7.155   2.976   1.193  0.3728  0.1040 -0.0965
 1512TIP3    H1 4477   7.213   2.927   1.252  0.4287  0.8119  0.4479
 1512TIP3    H2 4478   7.208   2.995   1.116  0.7677  0.4673  0.2638
 1513TIP3   OH2 4479   4.102   1.921   2.240 -0.4125 -0.5151  0.5332
 1513TIP3    H1 4480   4.122   1.986   2.307 -1.6847 -0.3095  0.7386
 1513TIP3    H2 4481   4.158   1.945   2.166 -0.9464  0.9107  0.5598
 1514TIP3   OH2 4482   6.227   1.092   4.489 -0.1675 -0.7428 -0.1788
 1514TIP3    H1 4483   6.302   1.092   4.428 -0.4260 -0.6413 -0.4984
 1514TIP3    H2 4484   6.266   1.114   4.574 -0.0050  0.4829 -0.5480
 1515TIP3   OH2 4485   6.287   3.051   1.272  0.3535 -0.3913 -0.3934
 1515TIP3    H1 4486   6.335   3.065   1.191 -0.7661  3.5828 -0.5774
 1515TIP3    H2 4487   6.220   2.987   1.249  0.7430 -0.1822 -2.3109
 1516TIP3   OH2 4488   0.770   2.047   2.514  0.3175 -0.1706 -0.2761
 1516TIP3    H1 4489   0.822   2.124   2.490 -3.1847  2.5498 -0.0426
 1516TIP3    H2 4490   0.715   2.077   2.587 -0.0573 -3.4889  0.9850
 1517TIP3   OH2 4491   2.209   4.805   6.216  0.0163  0.1784 -0.2863
 1517TIP3    H1 4492   2.209   4.722   6.265  0.2988  0.8625  0.9219
 1517TIP3    H2 4493   2.209   4.779   6.124  1.2257 -1.1750  0.0666
 1518TIP3   OH2 4494   3.294   4.250   2.548  0.4559 -0.5728 -0.3627
 1518TIP3    H1 4495   3.264   4.171   2.593 -1.2716 -0.0280 -0.4942
 1518TIP3    H2 4496   3.363   4.219   2.490 -1.3279 -2.3508 -1.6853
 1519TIP3   OH2 4497   0.097   7.440   4.479 -0.4221  0.2803  0.5214
 1519TIP3    H1 4498   0.032   7.501   4.442  0.1640  0.5861 -0.0232
 1519TIP3    H2 4499   0.053   7.355   4.477 -0.4667  0.3151 -0.7467
 1520TIP3   OH2 4500   5.567   2.587   4.948  0.2674  0.6136  0.1955
 1520TIP3    H1 4501   5.645   2.641   4.939  1.7823 -1.3688  0.7114
 1520TIP3    H2 4502   5.570   2.529   4.871 -0.3061  0.0705  0.5755
 1521TIP3   OH2 4503   2.144   3.142   0.181  0.0152 -0.1813  0.0756
 1521TIP3    H1 4504   2.198   3.098   0.115 -0.5647  2.5253 -2.4055
 1521TIP3    H2 4505   2.181   3.230   0.187 -1.8818  0.6057  1.0228
 1522TIP3   OH2 4506   2.719   7.716   4.944 -0.5338 -0.0044  0.2240
 1522TIP3    H1 4507   2.678   7.640   4.985  1.5238  0.0731  2.6467
 1522TIP3    H2 4508   2.811   7.692   4.935  0.0351  1.9210  0.4371
 1523TIP3   OH2 4509   6.751   0.218   6.669  0.2033 -0.2622  0.2530
 1523TIP3    H1 4510   6.838   0.236   6.632 -0.3553  0.8402 -0.6158
 1523TIP3    H2 4511   6.716   0.305   6.690  0.0454 -0.7938  2.4169
 1524TIP3   OH2 4512   1.903   1.958   5.114  0.1444 -0.0631  0.3377
 1524TIP3    H1 4513   1.861   1.976   5.030  0.5941 -1.8077 -0.3065
 1524TIP3    H2 4514   1.982   2.012   5.113  1.2820 -1.6034 -1.3796
 1525TIP3   OH2 4515   1.779   0.641   6.332 -0.4423  0.3284  0.6494
 1525TIP3    H1 4516   1.771   0.552   6.367 -1.0070 -0.2993 -0.9978
 1525TIP3    H2 4517   1.695   0.658   6.290  0.5881  0.5439 -1.4594
 1526TIP3   OH2 4518   6.104   3.006   1.017  0.3379  0.0456 -0.1473
 1526TIP3    H1 4519   6.128   3.058   0.940 -0.3524  1.0072  0.2608
 1526TIP3    H2 4520   6.056   3.067   1.073 -1.4295 -1.3070 -0.1072
 1527TIP3   OH2 4521   5.268   2.104   2.226 -0.1034  0.0947 -0.6324
 1527TIP3    H1 4522   5.186   2.067   2.258 -0.2742  0.4773 -0.6247
 1527TIP3    H2 4523   5.322   2.028   2.205  0.3508 -0.1997  1.3913
 1528TIP3   OH2 4524   1.344   6.899   4.426 -0.4972 -0.5838  1.0623
 1528TIP3    H1 4525   1.295   6.979   4.407  2.1839  0.7253 -0.9985
 1528TIP3    H2 4526   1.335   6.845   4.347  0.6312 -0.7073  1.0047
 1529TIP3   OH2 4527   6.825   6.859   6.223 -0.4589 -0.8012  0.0472
 1529TIP3    H1 4528   6.881   6.819   6.290  1.5211  0.4263 -0.8149
 1529TIP3    H2 4529   6.794   6.784   6.171 -0.3577 -1.5817  1.0677
 1530TIP3   OH2 4530   4.750   5.842   5.319  0.0522  0.1288 -0.2138
 1530TIP3    H1 4531   4.662   5.814   5.297  0.2835 -0.0587 -0.9232
 1530TIP3    H2 4532   4.756   5.932   5.286 -0.5883  0.9699  1.7863
 1531TIP3   OH2 4533   3.810   6.693   5.802 -0.0257  0.4255  0.3185
 1531TIP3    H1 4534   3.798   6.735   5.718  0.4967 -1.3954 -0.7246
 1531TIP3    H2 4535   3.905   6.682   5.811 -0.1370 -0.3912  0.6124
 1532TIP3   OH2 4536   3.537   5.838   3.160 -0.2429 -0.1003  0.3857
 1532TIP3    H1 4537   3.467   5.773   3.146  0.5676 -1.2230  1.3292
 1532TIP3    H2 4538   3.594   5.829   3.084 -0.5610  0.0608  0.1285
 1533TIP3   OH2 4539   2.559   2.005   2.638  0.2590 -0.2755 -0.2248
 1533TIP3    H1 4540   2.651   2.011   2.612  0.6365 -0.0905  1.1008
 1533TIP3    H2 4541   2.512   2.053   2.570  1.1120 -0.5438 -1.0257
 1534TIP3   OH2 4542   0.518   1.628   2.728 -0.1126  0.3052 -0.2658
 1534TIP3    H1 4543   0.493   1.648   2.818  1.1817 -0.3248  0.2600
 1534TIP3    H2 4544   0.600   1.580   2.736 -0.5001 -0.6892 -1.7251
 1535TIP3   OH2 4545   2.295   2.468   2.824 -0.0208 -0.6500 -0.2106
 1535TIP3    H1 4546   2.227   2.400   2.828 -0.7078  0.0332  0.0343
 1535TIP3    H2 4547   2.247   2.549   2.805  0.3574  0.3100  2.4936
 1536TIP3   OH2 4548   2.312   1.127   3.969  0.0605  0.5569 -0.0139
 1536TIP3    H1 4549   2.295   1.067   3.897 -0.4256  0.5525  0.1044
 1536TIP3    H2 4550   2.351   1.204   3.928  0.0218  0.4488 -0.2494
 1537TIP3   OH2 4551   3.920   0.665   2.781 -0.7730 -0.3627  0.3761
 1537TIP3    H1 4552   3.982   0.621   2.722 -0.1921  2.5743 -1.3818
 1537TIP3    H2 4553   3.975   0.709   2.845 -0.6695  3.4611 -2.0278
 1538TIP3   OH2 4554   2.329   0.076   3.504  0.7950  0.6041 -0.2169
 1538TIP3    H1 4555   2.324   0.166   3.469 -0.1161  0.2974 -0.9237
 1538TIP3    H2 4556   2.245   0.064   3.548  0.5091 -0.2390 -0.9783
 1539TIP3   OH2 4557   4.851   2.123   4.608 -0.3403 -0.2144 -0.3264
 1539TIP3    H1 4558   4.827   2.038   4.570  0.9700 -1.1860  0.9018
 1539TIP3    H2 4559   4.915   2.159   4.546 -0.3033 -0.4993 -0.4564
 1540TIP3   OH2 4560   4.013   3.999   4.044  0.7863 -0.2723  0.0580
 1540TIP3    H1 4561   4.070   3.949   4.102 -0.5000 -1.7321  0.1269
 1540TIP3    H2 4562   4.025   3.959   3.958 -1.1428 -1.5614  0.3389
 1541TIP3   OH2 4563   8.297   0.822   1.526 -0.2750 -0.1562  0.2194
 1541TIP3    H1 4564   8.353   0.745   1.518 -2.6038 -1.7832 -2.1963
 1541TIP3    H2 4565   8.232   0.797   1.592 -0.8096 -0.1640 -0.2979
 1542TIP3   OH2 4566   0.427   3.538   5.495  0.0726 -0.1111 -0.1262
 1542TIP3    H1 4567   0.476   3.530   5.577 -0.6184  0.8793  0.4003
 1542TIP3    H2 4568   0.341   3.569   5.521 -0.0768  0.4891 -1.2484
 1543TIP3   OH2 4569   3.873   1.452   4.219  0.3062  0.1561  0.4291
 1543TIP3    H1 4570   3.901   1.407   4.140  1.6421 -0.5316  1.2485
 1543TIP3    H2 4571   3.944   1.436   4.282  0.6736  3.0896  0.8871
 1544TIP3   OH2 4572   7.532   0.688   3.043 -0.0720  0.5486 -0.0573
 1544TIP3    H1 4573   7.440   0.705   3.025  0.2306  0.8234 -1.4441
 1544TIP3    H2 4574   7.570   0.773   3.062 -0.0596  0.4522  0.3761
 1545TIP3   OH2 4575   5.320   1.962   4.987  0.0943  0.5090  0.0471
 1545TIP3    H1 4576   5.306   1.891   4.925 -0.9431 -0.1781  1.0236
 1545TIP3    H2 4577   5.235   2.005   4.993  0.2667  0.7627  0.7600
 1546TIP3   OH2 4578   7.705   7.264   0.408 -0.1581  0.4584  0.3454
 1546TIP3    H1 4579   7.612   7.285   0.404 -0.0862  0.7474  0.1506
 1546TIP3    H2 4580   7.745   7.339   0.451 -0.0413  0.2426  0.6193
 1547TIP3   OH2 4581   3.893   1.922   1.557  0.6256  0.0395  0.1229
 1547TIP3    H1 4582   3.908   1.989   1.624  0.3613  0.6246 -0.3805
 1547TIP3    H2 4583   3.827   1.865   1.595  0.5610  0.3006  0.4110
 1548TIP3   OH2 4584   1.632   7.368   6.638 -0.0894 -0.1805 -0.3893
 1548TIP3    H1 4585   1.627   7.463   6.629 -0.5408 -0.2917 -1.4001
 1548TIP3    H2 4586   1.683   7.339   6.562  1.0404 -0.6561  0.5167
 1549TIP3   OH2 4587   6.407   4.074   6.824  0.1398  0.0398 -0.2484
 1549TIP3    H1 4588   6.376   4.055   6.736  1.0850 -0.0591 -0.5706
 1549TIP3    H2 4589   6.442   3.991   6.856  1.4398  0.4850 -0.4726
 1550TIP3   OH2 4590   3.543   0.216   2.980 -0.0073 -0.2231  0.4270
 1550TIP3    H1 4591   3.607   0.220   2.909  0.4590 -2.5380  0.6148
 1550TIP3    H2 4592   3.477   0.153   2.949 -2.1384  1.9272  0.3342
 1551TIP3   OH2 4593   5.313   3.053   3.270 -0.5310  0.1481 -0.1531
 1551TIP3    H1 4594   5.253   3.022   3.337  0.0925 -0.1526  0.2750
 1551TIP3    H2 4595   5.378   2.983   3.261 -0.3503  0.3841 -0.7397
 1552TIP3   OH2 4596   2.700   0.295   5.605  0.3567 -0.3345  0.3974
 1552TIP3    H1 4597   2.677   0.302   5.512  1.9222  1.2581  0.0727
 1552TIP3    H2 4598   2.793   0.315   5.609  0.8331 -2.4707  2.1123
 1553TIP3   OH2 4599   4.683   4.855   6.457  0.5985  0.0144  0.3430
 1553TIP3    H1 4600   4.744   4.864   6.384 -1.4523 -1.0038 -1.6520
 1553TIP3    H2 4601   4.653   4.944   6.475 -0.3216  0.1278 -1.4859
 1554TIP3   OH2 4602   4.648   6.766   4.904  0.0173 -0.2581  0.0753
 1554TIP3    H1 4603   4.643   6.780   4.999  3.7080 -1.8530  0.6578
 1554TIP3    H2 4604   4.648   6.855   4.867 -0.8194  0.4062  1.5809
 1555TIP3   OH2 4605   6.447   2.616   1.854  0.1980 -0.2278 -0.0420
 1555TIP3    H1 4606   6.474   2.654   1.770 -0.2568 -0.5377 -0.3320
 1555TIP3    H2 4607   6.353   2.599   1.843  0.0376  0.1659  0.6963
 1556TIP3   OH2 4608   3.193   4.389   2.340  0.5283  0.6348  0.0359
 1556TIP3    H1 4609   3.225   4.352   2.422 -2.1637  1.4725  1.5675
 1556TIP3    H2 4610   3.169   4.312   2.287  2.4391  0.0897 -0.1203
 1557TIP3   OH2 4611   4.799   5.327   3.949 -0.4180  0.0193 -0.6190
 1557TIP3    H1 4612   4.891   5.319   3.975 -0.8208 -0.3712  0.8187
 1557TIP3    H2 4613   4.780   5.420   3.954 -0.7416 -0.1127  1.6325
 1558TIP3   OH2 4614   1.309   7.893   6.361  0.3642  0.3316  0.0484
 1558TIP3    H1 4615   1.233   7.938   6.397 -1.5479 -3.2820  0.9705
 1558TIP3    H2 4616   1.305   7.911   6.267  0.4594  2.9266  0.4606
 1559TIP3   OH2 4617   1.282   0.014   3.291 -0.2000  0.4235  0.5574
 1559TIP3    H1 4618   1.354   0.026   3.229 -1.2050  0.0702 -0.7485
 1559TIP3    H2 4619   1.322  -0.024   3.369  1.0734  0.6020  0.0069
 1560TIP3   OH2 4620   3.842   0.615   1.292  0.7122  0.2315 -0.2575
 1560TIP3    H1 4621   3.894   0.607   1.372  0.8526  0.4075 -0.3293
 1560TIP3    H2 4622   3.795   0.532   1.285  0.5179  0.3062  0.1362
 1561TIP3   OH2 4623   2.383   4.875   4.711 -0.1945 -0.4672 -0.1127
 1561TIP3    H1 4624   2.444   4.890   4.639 -1.2433  1.3351 -0.7077
 1561TIP3    H2 4625   2.417   4.798   4.757  0.6359 -1.5211 -2.3792
 1562TIP3   OH2 4626   4.172   6.942   6.136  0.0971  0.3699 -0.1128
 1562TIP3    H1 4627   4.177   7.032   6.168  2.5664  1.2429 -2.6077
 1562TIP3    H2 4628   4.096   6.941   6.078  1.1263  1.4223 -1.5296
 1563TIP3   OH2 4629   4.758   6.087   5.222 -0.0313  0.4083  0.1494
 1563TIP3    H1 4630   4.721   6.173   5.243  0.7437  0.8193 -0.1222
 1563TIP3    H2 4631   4.750   6.080   5.127 -0.0255  0.2169  0.1628
 1564TIP3   OH2 4632   0.218   3.505   1.924 -0.4247 -0.3168  0.2714
 1564TIP3    H1 4633   0.205   3.451   1.846  1.1774 -0.6840  0.2241
 1564TIP3    H2 4634   0.246   3.443   1.991 -0.2971  0.2157  0.7085
 1565TIP3   OH2 4635   8.348   1.282   1.721  0.5299  0.5683  0.6171
 1565TIP3    H1 4636   8.356   1.374   1.694 -2.1449  1.2120  1.6650
 1565TIP3    H2 4637   8.438   1.253   1.733  1.4754  3.0111  0.0994
 1566TIP3   OH2 4638   6.449   2.314   0.120  0.7897 -0.1321  0.7390
 1566TIP3    H1 4639   6.542   2.332   0.135  0.5598  0.6177  1.3830
 1566TIP3    H2 4640   6.414   2.294   0.207  0.6214 -1.8701  0.3053
 1567TIP3   OH2 4641   3.498   4.832   1.074 -0.0388  0.2303 -0.2773
 1567TIP3    H1 4642   3.480   4.924   1.053 -0.5084  0.1220 -0.3573
 1567TIP3    H2 4643   3.532   4.835   1.163 -1.3859  0.3648  0.2626
 1568TIP3   OH2 4644   7.896   5.276   6.838 -0.0951  0.3757  0.3251
 1568TIP3    H1 4645   7.896   5.183   6.862 -0.2737  0.5645  1.1011
 1568TIP3    H2 4646   7.829   5.315   6.894 -1.5639  0.6055 -1.5188
 1569TIP3   OH2 4647   1.015   7.773   3.802  0.2568  0.3711 -0.1554
 1569TIP3    H1 4648   0.941   7.769   3.862 -0.7229 -0.6405 -1.3725
 1569TIP3    H2 4649   1.050   7.684   3.801  1.5886  0.8460  0.4600
 1570TIP3   OH2 4650   5.369   7.759   2.777  0.7595 -0.3807 -0.3639
 1570TIP3    H1 4651   5.404   7.775   2.865  0.6767 -0.7321 -0.2659
 1570TIP3    H2 4652   5.386   7.840   2.729  1.3396 -0.3982 -0.1946
 1571TIP3   OH2 4653   0.218   1.126   4.830 -0.0090 -0.1644  0.3199
 1571TIP3    H1 4654   0.152   1.134   4.900  0.0238 -1.6570  0.5614
 1571TIP3    H2 4655   0.166   1.105   4.752  0.0638  0.0269  0.2230
 1572TIP3   OH2 4656   1.856   6.695   4.916 -0.0438 -0.2607 -0.0968
 1572TIP3    H1 4657   1.804   6.747   4.978 -0.1269 -0.4308 -0.0248
 1572TIP3    H2 4658   1.934   6.749   4.900 -0.4636  0.2120 -0.5755
 1573TIP3   OH2 4659   2.422   6.470   1.392  0.5110  0.3638  1.0512
 1573TIP3    H1 4660   2.360   6.530   1.433  0.1703  0.5725  0.2539
 1573TIP3    H2 4661   2.467   6.427   1.465 -0.0874  0.7147  1.6311
 1574TIP3   OH2 4662   8.031   0.600   0.392 -0.0095 -0.0759 -0.5098
 1574TIP3    H1 4663   8.078   0.613   0.309 -0.4749  0.3917 -0.7025
 1574TIP3    H2 4664   7.947   0.563   0.366  0.0563 -0.4482 -0.1996
 1575TIP3   OH2 4665   2.153   2.557   2.049 -0.0690 -0.2784 -0.9855
 1575TIP3    H1 4666   2.174   2.645   2.080  0.3179 -0.1970 -1.4554
 1575TIP3    H2 4667   2.058   2.549   2.060  0.1789 -0.7062  1.3338
 1576TIP3   OH2 4668   1.393   3.694   1.617  0.1333  0.0162  0.0354
 1576TIP3    H1 4669   1.321   3.679   1.678 -0.8152  0.2227 -0.9912
 1576TIP3    H2 4670   1.360   3.663   1.533  0.6876  1.4737 -0.7624
 1577TIP3   OH2 4671   0.881   2.131   0.197 -0.3234 -0.0233 -0.0068
 1577TIP3    H1 4672   0.876   2.049   0.246  0.3522  0.6589  1.2593
 1577TIP3    H2 4673   0.975   2.143   0.180  0.1562  2.3506  3.2708
 1578TIP3   OH2 4674   7.057   5.103   3.598 -0.3157  0.1203  0.3683
 1578TIP3    H1 4675   7.109   5.125   3.521  0.1763  0.8091  0.8866
 1578TIP3    H2 4676   7.110   5.038   3.645 -1.2298 -1.3474 -0.5513
 1579TIP3   OH2 4677   3.280   5.277   4.756  0.4170 -0.5342 -0.2914
 1579TIP3    H1 4678   3.318   5.324   4.682  0.0102  1.7767  0.8939
 1579TIP3    H2 4679   3.299   5.331   4.832  0.7230 -2.7889  1.3352
 1580TIP3   OH2 4680   7.958   6.705   2.944  0.5418  0.1220  0.2300
 1580TIP3    H1 4681   7.892   6.648   2.984 -0.4272 -0.5190 -2.1021
 1580TIP3    H2 4682   8.041   6.673   2.978 -0.2072 -0.1213  1.9565
 1581TIP3   OH2 4683   3.333   6.189   0.430  0.0198 -0.2600  0.2563
 1581TIP3    H1 4684   3.319   6.259   0.494 -1.1486 -0.0326 -0.2228
 1581TIP3    H2 4685   3.308   6.228   0.346 -1.8543 -1.6022  0.1384
 1582TIP3   OH2 4686   7.057   1.667   1.707 -0.2224 -0.1994  0.0361
 1582TIP3    H1 4687   7.003   1.740   1.676 -0.5094 -0.4217  0.0062
 1582TIP3    H2 4688   7.142   1.706   1.726 -0.7337  0.3887  1.2411
 1583TIP3   OH2 4689   4.269   4.807   6.750 -0.6546  0.3520 -0.3710
 1583TIP3    H1 4690   4.340   4.807   6.686 -1.4999  0.6349 -1.3307
 1583TIP3    H2 4691   4.227   4.722   6.740 -0.0926 -0.0705  0.6395
 1584TIP3   OH2 4692   4.669   2.543   5.931 -0.3996  0.0952  0.1688
 1584TIP3    H1 4693   4.706   2.486   5.999  0.6061  0.8736  0.2964
 1584TIP3    H2 4694   4.682   2.631   5.964 -0.4723  0.4605 -0.7541
 1585TIP3   OH2 4695   4.625   3.859   6.362  0.1341  0.7589  0.2488
 1585TIP3    H1 4696   4.617   3.766   6.385  0.3255  0.9442  1.0897
 1585TIP3    H2 4697   4.554   3.902   6.411  0.0445  1.0581 -0.1382
 1586TIP3   OH2 4698   6.772   7.175   2.854  0.2283 -0.2122 -0.0482
 1586TIP3    H1 4699   6.766   7.130   2.938  1.6503  1.0677  0.7994
 1586TIP3    H2 4700   6.749   7.266   2.873 -2.9699 -0.4955 -1.7823
 1587TIP3   OH2 4701   7.405   0.302   6.746  0.3863  0.5602 -0.1736
 1587TIP3    H1 4702   7.342   0.290   6.676 -0.0623  1.4200  0.0668
 1587TIP3    H2 4703   7.480   0.246   6.722 -0.6520 -0.8692 -0.2028
 1588TIP3   OH2 4704   2.200   0.932   3.811 -0.0761  0.0908  0.6147
 1588TIP3    H1 4705   2.151   0.854   3.837 -1.0033  0.9579  1.5255
 1588TIP3    H2 4706   2.288   0.918   3.847 -0.4804 -0.1422  1.5270
 1589TIP3   OH2 4707   5.423   6.619   5.793  0.4395 -0.1591  0.9248
 1589TIP3    H1 4708   5.516   6.617   5.816  0.6269  1.1256  0.3854
 1589TIP3    H2 4709   5.421   6.610   5.698  0.1224  1.0346  0.7924
 1590TIP3   OH2 4710   7.353   6.576   6.762  0.1917  0.7746 -0.1491
 1590TIP3    H1 4711   7.375   6.593   6.854  0.0786  0.4321 -0.0578
 1590TIP3    H2 4712   7.259   6.594   6.756 -0.4173 -1.7956  0.4484
 1591TIP3   OH2 4713   3.787   1.163   4.029  0.3171  0.0489 -0.0347
 1591TIP3    H1 4714   3.801   1.128   4.117  0.3825 -1.2829 -0.5552
 1591TIP3    H2 4715   3.871   1.200   4.004 -0.1725  2.1736  1.1559
 1592TIP3   OH2 4716   8.306   0.314   4.878 -0.3864  0.1206  0.2417
 1592TIP3    H1 4717   8.260   0.262   4.943 -1.7327 -0.9010 -1.4348
 1592TIP3    H2 4718   8.301   0.262   4.798  2.3216  0.7207 -0.4231
 1593TIP3   OH2 4719   2.282   3.754   0.847 -0.3750  0.6392  0.6375
 1593TIP3    H1 4720   2.220   3.825   0.829 -2.8034 -0.6907  2.9604
 1593TIP3    H2 4721   2.318   3.776   0.933 -0.6286 -0.5347  1.0572
 1594TIP3   OH2 4722   5.098   5.390   6.125 -0.1452 -0.6449  0.1446
 1594TIP3    H1 4723   5.015   5.437   6.116 -0.2644 -0.7669  0.5619
 1594TIP3    H2 4724   5.078   5.318   6.186 -0.0873 -1.5075 -0.8195
 1595TIP3   OH2 4725   2.389   6.280   0.579 -0.2806  0.2452 -0.4552
 1595TIP3    H1 4726   2.404   6.186   0.568  0.5612  0.2571  0.4527
 1595TIP3    H2 4727   2.294   6.289   0.577 -0.3848 -0.6536 -0.3097
 1596TIP3   OH2 4728   2.368   4.033   2.744  0.0373 -0.7986  0.2238
 1596TIP3    H1 4729   2.384   4.089   2.668  0.8912 -0.6644  0.4961
 1596TIP3    H2 4730   2.385   3.944   2.712  0.7082 -0.7130  0.3464
 1597TIP3   OH2 4731   0.741   7.785   4.254  0.0711  0.6365 -0.0694
 1597TIP3    H1 4732   0.834   7.771   4.273  0.3145 -0.6782 -1.8848
 1597TIP3    H2 4733   0.695   7.718   4.305 -0.0117  1.8845  1.5638
 1598TIP3   OH2 4734   1.718   4.175   1.050  0.3521  0.0041  0.4630
 1598TIP3    H1 4735   1.733   4.268   1.066 -0.1059 -0.1682  2.0285
 1598TIP3    H2 4736   1.664   4.146   1.123 -1.2849 -1.0635 -1.0860
 1599TIP3   OH2 4737   5.661   2.993   4.786 -0.2096  0.3883  0.0975
 1599TIP3    H1 4738   5.582   2.989   4.839 -0.4025 -0.5781 -0.2389
 1599TIP3    H2 4739   5.708   2.912   4.807  0.4803  0.7366 -0.0445
 1600TIP3   OH2 4740   0.354   6.570   0.838  0.1964 -0.5934 -0.3116
 1600TIP3    H1 4741   0.282   6.556   0.776 -0.4106 -0.3341  0.3292
 1600TIP3    H2 4742   0.420   6.618   0.787 -0.4935  0.0323 -0.6306
 1601TIP3   OH2 4743   0.126   1.768   2.052 -0.4194 -0.5434 -0.3507
 1601TIP3    H1 4744   0.107   1.796   2.142 -1.2641 -2.1447  0.0131
 1601TIP3    H2 4745   0.127   1.672   2.056 -3.5244 -0.8455 -2.5584
 1602TIP3   OH2 4746   4.464   1.932   4.305 -0.1359  0.2143  0.0693
 1602TIP3    H1 4747   4.388   1.874   4.314  0.8379 -0.8216  2.4158
 1602TIP3    H2 4748   4.428   2.020   4.314 -1.3677 -0.0744 -1.4739
 1603TIP3   OH2 4749   0.380   5.326   3.552 -0.3533  0.0753  0.2239
 1603TIP3    H1 4750   0.382   5.237   3.517 -1.8735  0.4575 -0.9337
 1603TIP3    H2 4751   0.470   5.357   3.545 -0.0447 -0.9470 -0.4900
 1604TIP3   OH2 4752   7.285   6.357   4.094 -0.1405  0.5550 -0.0604
 1604TIP3    H1 4753   7.371   6.321   4.116  0.3272  2.0652  0.6586
 1604TIP3    H2 4754   7.301   6.410   4.016  0.0417  2.5573  1.2901
 1605TIP3   OH2 4755   0.246   7.331   0.284 -0.2471 -0.1421 -0.0737
 1605TIP3    H1 4756   0.284   7.408   0.242 -2.3772 -0.1296 -2.1875
 1605TIP3    H2 4757   0.273   7.257   0.229  0.3589 -0.7193  0.9572
 1606TIP3   OH2 4758   7.225   7.246   2.012  0.0379 -0.0331  0.1612
 1606TIP3    H1 4759   7.189   7.219   2.097 -0.6978  1.0266  0.1968
 1606TIP3    H2 4760   7.278   7.323   2.032  0.1983 -0.0236 -0.2853
 1607TIP3   OH2 4761   2.187   7.767   2.569 -0.0138  0.1801  0.1625
 1607TIP3    H1 4762   2.196   7.853   2.610  2.5090 -0.0725  0.2807
 1607TIP3    H2 4763   2.092   7.754   2.561 -0.4627  2.8580  0.3010
 1608TIP3   OH2 4764   2.359   0.085   3.906 -0.1134 -0.0793 -0.1260
 1608TIP3    H1 4765   2.310   0.003   3.902 -0.9836  0.4439 -2.9733
 1608TIP3    H2 4766   2.295   0.150   3.932 -0.2397  0.1408 -0.9438
 1609TIP3   OH2 4767   4.549   3.215   1.606  0.3099  0.2639 -0.4584
 1609TIP3    H1 4768   4.557   3.184   1.697 -0.3027 -1.2911 -0.9047
 1609TIP3    H2 4769   4.633   3.192   1.566  0.3602  0.4192 -0.4433
 1610TIP3   OH2 4770   4.216   4.053   0.917  0.5063  0.1171  0.4064
 1610TIP3    H1 4771   4.264   4.025   0.995  0.1360 -1.0930  0.2279
 1610TIP3    H2 4772   4.272   4.028   0.844  0.2772  0.0529  0.2492
 1611TIP3   OH2 4773   3.386   2.063   5.450  0.0766 -0.4144  0.1005
 1611TIP3    H1 4774   3.302   2.052   5.404 -0.8237 -0.0436  1.5814
 1611TIP3    H2 4775   3.363   2.061   5.543  1.4168  1.6759  0.5633
 1612TIP3   OH2 4776   2.846   4.729   0.060  0.0059 -0.1258  0.2062
 1612TIP3    H1 4777   2.914   4.715   0.126 -0.5795  0.8628  1.0409
 1612TIP3    H2 4778   2.894   4.732  -0.023  0.8382 -0.6138  0.6589
 1613TIP3   OH2 4779   5.683   6.713   4.462 -0.3409 -0.0619  0.0226
 1613TIP3    H1 4780   5.659   6.806   4.471  2.2642  0.5504  1.7183
 1613TIP3    H2 4781   5.662   6.675   4.547 -0.6167 -0.8433 -0.3906
 1614TIP3   OH2 4782   8.001   5.979   0.502  0.3299  0.3829 -0.6891
 1614TIP3    H1 4783   8.053   6.018   0.572 -0.6329 -0.1585  0.3532
 1614TIP3    H2 4784   7.910   5.993   0.529 -0.0675 -2.1646 -0.4565
 1615TIP3   OH2 4785   4.478   5.243   3.825 -0.1286  0.0644  0.4088
 1615TIP3    H1 4786   4.542   5.311   3.844  1.7401 -1.0320 -1.6063
 1615TIP3    H2 4787   4.519   5.162   3.856 -1.8714 -0.3679  1.8003
 1616TIP3   OH2 4788   6.306   3.229   0.060 -0.0589 -0.3756  0.2358
 1616TIP3    H1 4789   6.365   3.304   0.067 -2.7634  1.8975  0.3601
 1616TIP3    H2 4790   6.272   3.217   0.149  0.2368 -1.7186  0.1911
 1617TIP3   OH2 4791   0.226   2.498   4.890  0.4811  0.3056  0.1532
 1617TIP3    H1 4792   0.227   2.431   4.822  0.1557 -0.9100  1.2919
 1617TIP3    H2 4793   0.148   2.477   4.943 -0.0102  1.9967  0.1553
 1618TIP3   OH2 4794   3.028   3.158   5.965 -0.0363  0.8921 -0.0078
 1618TIP3    H1 4795   2.959   3.201   6.016  0.0743  0.2800  0.6710
 1618TIP3    H2 4796   3.101   3.148   6.026 -0.3581 -1.0260  0.1357
 1619TIP3   OH2 4797   6.971   4.095   2.546  0.0398  0.2661 -0.6481
 1619TIP3    H1 4798   7.065   4.089   2.532  0.2994  1.5311  0.3645
 1619TIP3    H2 4799   6.959   4.177   2.594 -1.6110  0.2909 -1.0349
 1620TIP3   OH2 4800   3.305   2.764   6.220  0.6414 -0.1575  0.5464
 1620TIP3    H1 4801   3.307   2.842   6.166 -1.0800 -0.5769 -0.2005
 1620TIP3    H2 4802   3.212   2.743   6.228  0.8708 -0.5820  3.0042
 1621TIP3   OH2 4803   3.041   5.845   5.009  0.5132 -0.2362 -0.2677
 1621TIP3    H1 4804   3.106   5.777   5.027 -0.8038 -1.0154  2.0562
 1621TIP3    H2 4805   2.984   5.844   5.086 -0.6920  2.2246 -1.0320
 1622TIP3   OH2 4806   7.133   5.153   2.656  0.3378  0.1442  0.6047
 1622TIP3    H1 4807   7.211   5.168   2.603 -0.6835 -0.4801 -1.1625
 1622TIP3    H2 4808   7.161   5.090   2.722  1.1073 -0.8708 -0.6392
 1623TIP3   OH2 4809   7.856   2.140   0.612  0.2780  0.3077 -0.0660
 1623TIP3    H1 4810   7.818   2.154   0.699  1.3079  1.3816  0.2246
 1623TIP3    H2 4811   7.797   2.187   0.553 -0.7679 -0.9273 -0.0507
 1624TIP3   OH2 4812   6.872   5.960   5.239  0.3449  0.5342 -0.1029
 1624TIP3    H1 4813   6.881   5.911   5.321 -1.3243  0.7446  0.2421
 1624TIP3    H2 4814   6.874   5.894   5.171  1.3763  0.3187  0.1307
 1625TIP3   OH2 4815   5.728   6.192   3.543  0.1486  0.0113  0.4234
 1625TIP3    H1 4816   5.735   6.137   3.465  0.1484 -0.5019  0.7804
 1625TIP3    H2 4817   5.809   6.243   3.543  1.8769 -2.5208  1.9682
 1626TIP3   OH2 4818   3.493   0.705   2.235  0.3213  0.4046  0.2346
 1626TIP3    H1 4819   3.545   0.737   2.161 -1.6392 -0.0858 -1.4276
 1626TIP3    H2 4820   3.556   0.656   2.288  2.1587  2.2326 -0.1281
 1627TIP3   OH2 4821   1.472   0.930   4.092  0.1934  0.2889  0.3270
 1627TIP3    H1 4822   1.398   0.990   4.082  0.7426  1.2311  1.5967
 1627TIP3    H2 4823   1.549   0.985   4.078  0.7626 -1.2447 -4.0625
 1628TIP3   OH2 4824   6.073   7.807   5.461  0.2930  0.0182 -0.0573
 1628TIP3    H1 4825   6.102   7.882   5.513  0.1728  1.4835 -2.0031
 1628TIP3    H2 4826   6.088   7.834   5.370  1.0538 -2.6547 -0.8180
 1629TIP3   OH2 4827   2.206   4.634   5.272 -0.5580  0.3093 -0.5418
 1629TIP3    H1 4828   2.270   4.678   5.216 -1.1619 -1.6070 -2.8894
 1629TIP3    H2 4829   2.233   4.542   5.272 -2.0198 -0.1548  0.3037
 1630TIP3   OH2 4830   0.699   4.202   2.033  0.0872  0.2385  0.0287
 1630TIP3    H1 4831   0.656   4.233   1.953 -1.5662 -0.5101  0.5949
 1630TIP3    H2 4832   0.775   4.152   2.001  0.6995  1.7622 -0.9819
 1631TIP3   OH2 4833   4.407   0.887   6.175  0.0674 -0.6308  0.1641
 1631TIP3    H1 4834   4.324   0.899   6.130 -0.3842  0.8767  1.3002
 1631TIP3    H2 4835   4.407   0.954   6.244  2.9784  0.6519 -0.9021
 1632TIP3   OH2 4836   0.730   4.052   0.465 -0.1768 -0.1796  0.0840
 1632TIP3    H1 4837   0.739   4.144   0.489 -0.0921 -0.3405  0.6987
 1632TIP3    H2 4838   0.648   4.047   0.416 -0.1172  0.2402 -0.0628
 1633TIP3   OH2 4839   6.300   1.114   6.563 -0.4360  0.4062 -0.8736
 1633TIP3    H1 4840   6.372   1.053   6.578 -1.3248 -0.2376  1.1735
 1633TIP3    H2 4841   6.319   1.189   6.619 -0.2645  1.2328 -2.0094
 1634TIP3   OH2 4842   2.559   4.417   4.734 -0.5130 -0.5313 -0.6663
 1634TIP3    H1 4843   2.571   4.323   4.744 -1.7775 -0.6476 -0.1274
 1634TIP3    H2 4844   2.645   4.449   4.708  0.1241 -1.7291 -0.1175
 1635TIP3   OH2 4845   4.553   5.655   4.994  0.5694 -0.1561  0.7237
 1635TIP3    H1 4846   4.604   5.599   4.935  0.0341 -0.1528  0.2490
 1635TIP3    H2 4847   4.551   5.607   5.077  0.1044 -0.8584  0.3210
 1636TIP3   OH2 4848   0.994   5.553   6.737  0.1248 -0.4424  0.6478
 1636TIP3    H1 4849   0.955   5.587   6.656 -0.6309 -0.1260  1.1339
 1636TIP3    H2 4850   1.085   5.538   6.715  0.5788  2.1575  0.4629
 1637TIP3   OH2 4851   0.937   0.439   4.131  0.3842 -0.0551 -0.0703
 1637TIP3    H1 4852   0.858   0.388   4.144  0.1466 -0.0463 -1.3233
 1637TIP3    H2 4853   0.926   0.479   4.045  2.9755 -2.3638 -1.6357
 1638TIP3   OH2 4854   7.179   3.552   1.388 -0.2998  0.4361  0.8596
 1638TIP3    H1 4855   7.117   3.511   1.328 -0.3629  0.0472  1.1863
 1638TIP3    H2 4856   7.217   3.479   1.437 -1.8370  0.8869  2.8394
 1639TIP3   OH2 4857   1.795   7.296   4.382  0.3985  0.3760 -0.2216
 1639TIP3    H1 4858   1.849   7.348   4.441 -0.6355 -0.1608  1.2358
 1639TIP3    H2 4859   1.707   7.331   4.392  0.0481 -0.2976 -0.8058
 1640TIP3   OH2 4860   4.884   5.374   2.106 -0.1185  0.1299  0.7473
 1640TIP3    H1 4861   4.961   5.429   2.119 -0.0757 -0.1662  1.7910
 1640TIP3    H2 4862   4.847   5.405   2.023  0.3516  1.1851  0.9164
 1641TIP3   OH2 4863   0.324   3.600   0.146 -0.0250 -0.0529 -0.1491
 1641TIP3    H1 4864   0.319   3.576   0.239 -2.5715  2.0048  0.3498
 1641TIP3    H2 4865   0.373   3.682   0.145 -1.8317  1.0876 -0.2758
 1642TIP3   OH2 4866   0.133   1.080   2.854  0.0912 -0.2986 -0.4070
 1642TIP3    H1 4867   0.227   1.102   2.848  0.2731 -0.5822  0.9636
 1642TIP3    H2 4868   0.109   1.051   2.766  1.7116 -1.8435 -0.3864
 1643TIP3   OH2 4869   6.435   5.444   5.884  0.4903  0.4421 -0.0328
 1643TIP3    H1 4870   6.401   5.517   5.936  1.9171  1.2196 -0.1378
 1643TIP3    H2 4871   6.430   5.474   5.793  0.3574  0.0952 -0.1421
 1644TIP3   OH2 4872   5.641   4.148   5.529 -0.1198  0.0078 -0.0586
 1644TIP3    H1 4873   5.651   4.083   5.599 -0.9123 -0.7926 -0.6668
 1644TIP3    H2 4874   5.548   4.147   5.508 -0.4449  2.4255  0.9142
 1645TIP3   OH2 4875   0.845   6.896   1.697  0.2050  0.2872 -0.1824
 1645TIP3    H1 4876   0.856   6.848   1.779  3.4986  0.3286 -0.4644
 1645TIP3    H2 4877   0.817   6.984   1.725 -0.4000 -0.1791  0.7413
 1646TIP3   OH2 4878   2.339   3.117   3.061  0.1529 -0.1522  0.3542
 1646TIP3    H1 4879   2.385   3.033   3.068 -0.2996 -0.3375  1.2081
 1646TIP3    H2 4880   2.247   3.094   3.049  0.1755  0.2217 -0.5479
 1647TIP3   OH2 4881   6.178   2.389   2.161  0.0228  0.1874 -0.7376
 1647TIP3    H1 4882   6.171   2.422   2.071 -0.0758 -1.1921 -1.2681
 1647TIP3    H2 4883   6.272   2.383   2.177  0.0453  1.3246 -0.3908
 1648TIP3   OH2 4884   7.756   5.775   1.051  0.2327  0.0422 -0.3364
 1648TIP3    H1 4885   7.850   5.757   1.054  0.2247 -0.0480 -0.6649
 1648TIP3    H2 4886   7.751   5.870   1.043  0.2808  0.1574  0.8173
 1649TIP3   OH2 4887   5.854   0.261   5.751  0.3776 -0.3231 -0.4595
 1649TIP3    H1 4888   5.861   0.204   5.828 -1.0316  2.3708  1.8224
 1649TIP3    H2 4889   5.938   0.305   5.745 -0.2157  1.1213  1.0394
 1650TIP3   OH2 4890   1.519   4.715   4.210  0.5068  0.1406 -0.3872
 1650TIP3    H1 4891   1.531   4.749   4.299  2.2796 -0.4121 -0.3731
 1650TIP3    H2 4892   1.436   4.752   4.181 -1.0829 -1.1214  2.1754
 1651TIP3   OH2 4893   1.948   0.420   2.540  0.0773  1.1129  0.1688
 1651TIP3    H1 4894   2.015   0.446   2.604  1.6005 -0.1893 -0.8126
 1651TIP3    H2 4895   1.895   0.355   2.586  1.2857  0.0326  0.0969
 1652TIP3   OH2 4896   0.743   5.532   1.023 -0.6698  0.6713 -0.3747
 1652TIP3    H1 4897   0.740   5.610   0.967 -1.6404  0.3173 -0.8331
 1652TIP3    H2 4898   0.673   5.476   0.990  0.5285 -0.7659 -0.5725
 1653TIP3   OH2 4899   4.276   2.409   0.489  0.4130 -0.1030 -0.0489
 1653TIP3    H1 4900   4.330   2.350   0.541  1.1141  0.8941  0.3745
 1653TIP3    H2 4901   4.186   2.378   0.503  0.9133 -2.6902 -1.9325
 1654TIP3   OH2 4902   2.975   6.688   5.712 -0.6717  0.0185  0.0402
 1654TIP3    H1 4903   3.017   6.604   5.732  0.4599  0.2748 -1.1028
 1654TIP3    H2 4904   3.043   6.753   5.729 -0.3288  0.3950 -2.4635
 1655TIP3   OH2 4905   4.688   6.428   4.147  0.1804  0.0164  0.0957
 1655TIP3    H1 4906   4.598   6.461   4.151  0.0228 -0.5001  2.7395
 1655TIP3    H2 4907   4.735   6.493   4.095 -1.4619  0.9428 -0.3018
 1656TIP3   OH2 4908   0.823   2.956   2.574 -0.0166 -0.1572 -0.0322
 1656TIP3    H1 4909   0.743   2.915   2.541  0.0951 -0.3127 -0.1103
 1656TIP3    H2 4910   0.894   2.904   2.536  0.1216  0.0018  0.0093
 1657TIP3   OH2 4911   3.368   1.358   1.377 -0.1491  0.0876  0.0677
 1657TIP3    H1 4912   3.431   1.419   1.416 -0.8955  0.6186  0.4801
 1657TIP3    H2 4913   3.418   1.311   1.310  0.5925  0.7474  0.1393
 1658TIP3   OH2 4914   5.058   7.664   1.645  0.2206 -0.0456 -0.0419
 1658TIP3    H1 4915   5.035   7.574   1.670  0.8374 -0.1507  0.1535
 1658TIP3    H2 4916   5.150   7.659   1.622  0.7538  0.8973  1.7089
 1659TIP3   OH2 4917   4.774   1.969   6.713 -0.5173  0.2764  0.0922
 1659TIP3    H1 4918   4.701   1.979   6.653 -0.7141 -0.5642  0.1842
 1659TIP3    H2 4919   4.735   1.932   6.793 -0.1855  0.9410  0.5763
 1660TIP3   OH2 4920   1.308   1.445   4.336 -0.2837  0.0565 -0.4455
 1660TIP3    H1 4921   1.343   1.436   4.248  0.2993  0.6916 -0.2911
 1660TIP3    H2 4922   1.217   1.416   4.329 -0.1303 -0.2792 -1.1617
 1661TIP3   OH2 4923   5.881   4.858   6.710  0.0761  0.1510  0.1061
 1661TIP3    H1 4924   5.844   4.901   6.633 -1.2026  0.4886  0.8765
 1661TIP3    H2 4925   5.958   4.909   6.732  0.8460 -0.3327 -1.3136
 1662TIP3   OH2 4926   6.165   5.150   1.940  0.8362 -0.0306 -0.5951
 1662TIP3    H1 4927   6.081   5.166   1.983  0.3143 -2.9992 -0.2466
 1662TIP3    H2 4928   6.152   5.176   1.849  0.1075  1.0429 -0.2051
 1663TIP3   OH2 4929   4.415   7.164   4.234  0.2184 -0.4074 -0.7221
 1663TIP3    H1 4930   4.360   7.235   4.201  0.7894 -0.5773 -2.0827
 1663TIP3    H2 4931   4.356   7.110   4.287 -0.7925 -0.2877 -1.7013
 1664TIP3   OH2 4932   4.587   3.616   5.521 -0.2425 -0.0586 -0.1651
 1664TIP3    H1 4933   4.524   3.603   5.449 -1.6075 -0.6799  1.0857
 1664TIP3    H2 4934   4.590   3.711   5.532 -0.7310 -0.0059 -0.4351
 1665TIP3   OH2 4935   2.098   3.697   5.844 -0.4924  0.1736  0.4347
 1665TIP3    H1 4936   2.039   3.749   5.898 -0.8673  1.3766 -1.0639
 1665TIP3    H2 4937   2.110   3.749   5.764  1.6438 -0.5846  0.1799
 1666TIP3   OH2 4938   7.906   0.045   3.576 -0.3740 -0.7656  1.0150
 1666TIP3    H1 4939   7.912   0.137   3.602  0.4520 -0.4764 -0.1227
 1666TIP3    H2 4940   7.996   0.022   3.551 -0.9332 -1.2885 -0.6363
 1667TIP3   OH2 4941   6.001   7.843   0.539 -0.0683 -0.4979  0.3337
 1667TIP3    H1 4942   5.940   7.785   0.584 -0.5326  0.1178  0.5203
 1667TIP3    H2 4943   6.051   7.885   0.610  1.6272 -2.0822  0.1448
 1668TIP3   OH2 4944   4.943   5.580   4.507  0.2550 -0.7500 -0.1683
 1668TIP3    H1 4945   4.879   5.633   4.555  0.4016 -2.1395  1.6434
 1668TIP3    H2 4946   4.991   5.644   4.453 -1.0426  0.6324  0.2365
 1669TIP3   OH2 4947   1.648   2.237   1.568 -0.5712 -0.4599 -0.2752
 1669TIP3    H1 4948   1.662   2.226   1.662  0.3257 -0.1486 -0.3594
 1669TIP3    H2 4949   1.642   2.147   1.535  1.7347 -0.6969 -0.2566
 1670TIP3   OH2 4950   4.723   3.640   1.128 -0.1611 -0.0589  0.3094
 1670TIP3    H1 4951   4.677   3.690   1.060  1.3691 -0.6150 -1.2163
 1670TIP3    H2 4952   4.669   3.563   1.142 -1.0843  0.6157  0.5954
 1671TIP3   OH2 4953   2.770   2.723   2.713 -0.0187  0.1286  0.0692
 1671TIP3    H1 4954   2.787   2.640   2.668  0.5690  0.3481 -0.1174
 1671TIP3    H2 4955   2.773   2.701   2.806  2.6209  0.3771  0.1134
 1672TIP3   OH2 4956   4.701   1.647   6.336  0.5002  0.1670 -0.0399
 1672TIP3    H1 4957   4.668   1.685   6.255 -0.4895  1.4304  0.9234
 1672TIP3    H2 4958   4.796   1.643   6.323  0.3666  0.4209 -1.2250
 1673TIP3   OH2 4959   1.086   3.346   1.446  0.2308  0.6025  0.0279
 1673TIP3    H1 4960   1.085   3.284   1.518 -0.3602  1.5349  0.8422
 1673TIP3    H2 4961   1.067   3.293   1.368 -1.6394 -0.0279  0.8763
 1674TIP3   OH2 4962   8.227   4.451   3.730  0.7300 -0.3629 -0.3163
 1674TIP3    H1 4963   8.219   4.358   3.711 -0.8785 -0.7530  1.7883
 1674TIP3    H2 4964   8.150   4.491   3.689 -0.8553 -0.6949  2.0594
 1675TIP3   OH2 4965   6.434   2.511   0.795 -0.4248 -0.1554 -0.5758
 1675TIP3    H1 4966   6.471   2.463   0.722 -0.8116  0.2633 -1.0525
 1675TIP3    H2 4967   6.455   2.603   0.777 -1.9245  0.1288 -1.0101
 1676TIP3   OH2 4968   3.985   0.727   5.498 -0.1178 -0.0731  0.5501
 1676TIP3    H1 4969   3.933   0.752   5.574 -0.6073 -0.4017  0.3246
 1676TIP3    H2 4970   3.930   0.665   5.450 -0.3517  1.1096 -0.7754
 1677TIP3   OH2 4971   0.682   0.585   2.035  0.3433 -0.3756  0.4305
 1677TIP3    H1 4972   0.734   0.643   2.091 -0.3689  0.3051  0.4022
 1677TIP3    H2 4973   0.606   0.637   2.010  1.4207 -0.0591 -2.5609
 1678TIP3   OH2 4974   6.389   7.019   5.518  0.1782  0.3048  0.7422
 1678TIP3    H1 4975   6.299   7.003   5.489  0.6603 -0.5932 -0.3542
 1678TIP3    H2 4976   6.421   7.087   5.459  1.6646 -2.5783 -2.1617
 1679TIP3   OH2 4977   4.711   6.665   4.486  0.5340 -0.0105 -0.0329
 1679TIP3    H1 4978   4.765   6.607   4.433  1.6650 -1.3594  2.3922
 1679TIP3    H2 4979   4.752   6.662   4.573  0.5543  4.3125  0.3227
 1680TIP3   OH2 4980   5.422   2.697   4.656  0.0139 -0.4101 -0.3627
 1680TIP3    H1 4981   5.453   2.615   4.696  0.0070  0.7528  2.1667
 1680TIP3    H2 4982   5.361   2.734   4.719 -0.0882  1.5118 -1.5037
 1681TIP3   OH2 4983   1.689   0.343   0.143  0.1308 -0.0875  0.0816
 1681TIP3    H1 4984   1.603   0.302   0.149  0.4167 -0.5287  1.6186
 1681TIP3    H2 4985   1.733   0.296   0.072  0.0407 -1.7075  1.0533
 1682TIP3   OH2 4986   7.238   6.838   0.237  0.0533 -0.8542  0.3119
 1682TIP3    H1 4987   7.286   6.781   0.177  1.5402  0.8881 -0.2373
 1682TIP3    H2 4988   7.267   6.926   0.215 -1.9039  0.1207  1.3708
 1683TIP3   OH2 4989   5.380   6.426   1.392  0.6111  0.2877 -0.5121
 1683TIP3    H1 4990   5.364   6.380   1.310  1.3485  0.3600 -0.7083
 1683TIP3    H2 4991   5.475   6.420   1.405  0.5500  0.5881  0.1492
 1684TIP3   OH2 4992   4.759   1.554   0.250  0.0098 -0.2870 -0.3554
 1684TIP3    H1 4993   4.736   1.618   0.182 -0.4686 -0.5699 -0.4647
 1684TIP3    H2 4994   4.707   1.580   0.326  0.2495 -0.2060 -0.2179
 1685TIP3   OH2 4995   6.863   2.498   1.514  0.2358 -0.3927 -0.3504
 1685TIP3    H1 4996   6.911   2.539   1.442  0.2713  0.0914 -0.0581
 1685TIP3    H2 4997   6.830   2.416   1.478 -0.5134  0.2561 -1.1992
 1686TIP3   OH2 4998   1.398   0.325   4.408  0.1115 -0.4929  0.0886
 1686TIP3    H1 4999   1.407   0.388   4.480  1.0585  0.3448 -0.7350
 1686TIP3    H2 5000   1.305   0.328   4.386 -0.1596 -0.6320  1.1626
 1687TIP3   OH2 5001   3.550   5.961   0.939 -0.8911  0.2404  0.0510
 1687TIP3    H1 5002   3.506   6.036   0.898 -1.6386 -0.8372 -1.2014
 1687TIP3    H2 5003   3.643   5.984   0.935 -1.0801  0.9475 -0.6777
 1688TIP3   OH2 5004   1.975   6.083   3.101 -0.8883  0.0449  0.1672
 1688TIP3    H1 5005   2.065   6.064   3.077 -0.4424  0.2462  1.5897
 1688TIP3    H2 5006   1.956   6.167   3.058 -0.2096  0.2691  0.2853
 1689TIP3   OH2 5007   6.097   4.340   3.521  0.4760 -0.1915 -0.0726
 1689TIP3    H1 5008   6.190   4.335   3.503  0.3140 -1.5570 -0.7114
 1689TIP3    H2 5009   6.067   4.249   3.517 -0.8885  0.2247  0.0736
 1690TIP3   OH2 5010   2.255   1.778   4.748  0.2986  0.3820  0.2449
 1690TIP3    H1 5011   2.283   1.764   4.658 -0.1147 -0.7270  0.2719
 1690TIP3    H2 5012   2.225   1.692   4.778 -2.0451  1.2331  0.5744
 1691TIP3   OH2 5013   3.437   3.170   0.530 -0.2240  0.5005 -0.2142
 1691TIP3    H1 5014   3.525   3.207   0.521 -0.1822  0.5355  0.2930
 1691TIP3    H2 5015   3.387   3.237   0.577 -0.4563  0.3864 -0.2979
 1692TIP3   OH2 5016   4.549   6.615   5.187 -0.2789 -0.2068  0.2675
 1692TIP3    H1 5017   4.565   6.557   5.262  0.6720  0.6086  0.7203
 1692TIP3    H2 5018   4.454   6.617   5.179 -0.3477 -2.9811 -0.7073
 1693TIP3   OH2 5019   0.489   5.919   3.948 -0.3004  0.3631  1.1293
 1693TIP3    H1 5020   0.528   5.961   4.025 -1.0395  1.1275  1.1059
 1693TIP3    H2 5021   0.423   5.859   3.983 -0.9371  1.0258  1.0967
 1694TIP3   OH2 5022   1.532   7.779   5.809  0.3472 -0.0200 -0.0651
 1694TIP3    H1 5023   1.562   7.852   5.755 -0.8962  1.2252  0.8840
 1694TIP3    H2 5024   1.610   7.753   5.859  0.3198  1.9999  1.0838
 1695TIP3   OH2 5025   5.351   7.907   1.181  0.1418 -0.5922 -0.0492
 1695TIP3    H1 5026   5.259   7.881   1.192  0.5186 -1.3810  1.6506
 1695TIP3    H2 5027   5.365   7.975   1.246  1.1316 -1.5384  0.7558
 1696TIP3   OH2 5028   2.046   5.813   2.369  0.0051 -0.0302  0.1354
 1696TIP3    H1 5029   1.996   5.763   2.434 -0.6342  0.1545 -0.1990
 1696TIP3    H2 5030   2.003   5.899   2.367 -1.3931 -0.6878 -2.0402
 1697TIP3   OH2 5031   8.221   3.249   4.152  0.6483  0.5897  0.5092
 1697TIP3    H1 5032   8.146   3.222   4.101 -0.1629  0.7097  1.5918
 1697TIP3    H2 5033   8.264   3.316   4.099 -0.3935  0.9948  0.1576
 1698TIP3   OH2 5034   3.080   0.543   6.795 -0.3428  0.0008  0.0754
 1698TIP3    H1 5035   3.027   0.622   6.779 -0.0091  0.2861  0.3732
 1698TIP3    H2 5036   3.103   0.548   6.888 -2.0298 -1.4963  0.6433
 1699TIP3   OH2 5037   0.160   6.870   6.738 -0.4375  0.6945 -0.2921
 1699TIP3    H1 5038   0.233   6.924   6.770 -0.2352  0.6374 -0.6514
 1699TIP3    H2 5039   0.159   6.885   6.643  0.3030 -0.7382 -0.5601
 1700TIP3   OH2 5040   7.016   6.091   0.126 -0.0755  0.1297 -0.1382
 1700TIP3    H1 5041   6.933   6.049   0.147  0.1847  0.0409  0.7244
 1700TIP3    H2 5042   6.996   6.143   0.047 -1.5369  1.8418  1.2528
 1701TIP3   OH2 5043   5.303   6.150   2.008  0.3201 -1.0964  0.3767
 1701TIP3    H1 5044   5.364   6.211   2.048  1.4012 -1.7822 -0.1587
 1701TIP3    H2 5045   5.350   6.066   2.007 -0.6970 -1.6831  0.1064
 1702TIP3   OH2 5046   4.727   4.273   3.435  0.2166 -0.5475 -0.2704
 1702TIP3    H1 5047   4.726   4.363   3.402 -0.7403  0.0461  1.2736
 1702TIP3    H2 5048   4.756   4.282   3.526  2.3989 -2.0812 -0.7279
 1703TIP3   OH2 5049   0.310   0.200   3.052 -0.0796  0.0036 -0.4210
 1703TIP3    H1 5050   0.401   0.194   3.023  1.1646  0.4559  2.8846
 1703TIP3    H2 5051   0.315   0.243   3.138 -3.5051  0.5989 -0.3608
 1704TIP3   OH2 5052   7.044   7.090   2.249 -0.2376 -1.0839  0.0683
 1704TIP3    H1 5053   6.991   7.114   2.325 -0.6157 -0.9846 -0.2258
 1704TIP3    H2 5054   7.007   7.008   2.219 -0.2739 -0.9762 -0.1836
 1705TIP3   OH2 5055   7.602   3.582   0.700  0.0876 -0.0794  0.2623
 1705TIP3    H1 5056   7.635   3.539   0.779  0.4098 -0.0510  0.1441
 1705TIP3    H2 5057   7.507   3.582   0.711  0.1165 -0.3150  0.5259
 1706TIP3   OH2 5058   7.194   5.224   4.157  0.1512  1.0480 -0.1198
 1706TIP3    H1 5059   7.209   5.243   4.064 -1.1005 -0.0113 -0.5672
 1706TIP3    H2 5060   7.268   5.265   4.202 -0.0090  2.8710 -1.4309
 1707TIP3   OH2 5061   0.538   5.567   0.234 -0.3483  0.2926 -0.0030
 1707TIP3    H1 5062   0.535   5.662   0.220 -1.7608  0.6577  2.3129
 1707TIP3    H2 5063   0.565   5.556   0.325 -2.9747 -1.3678  0.6951
 1708TIP3   OH2 5064   3.590   6.501   2.810 -0.2475 -0.4428  0.1303
 1708TIP3    H1 5065   3.628   6.451   2.882 -0.8430  0.3504  1.0301
 1708TIP3    H2 5066   3.643   6.581   2.806 -1.1961  0.2457  0.7803
 1709TIP3   OH2 5067   7.971   0.165   2.689  0.4123 -0.0268 -0.0880
 1709TIP3    H1 5068   7.950   0.190   2.599  1.3498  1.2978  0.0392
 1709TIP3    H2 5069   7.966   0.069   2.689  1.1109 -0.0921 -1.7441
 1710TIP3   OH2 5070   5.648   3.791   5.389  0.0504  0.2874 -0.1477
 1710TIP3    H1 5071   5.605   3.874   5.370  1.4540  1.2544  0.6634
 1710TIP3    H2 5072   5.585   3.724   5.364 -1.8240  1.6170  0.8004
 1711TIP3   OH2 5073   5.891   7.857   5.104 -0.1474  0.5613  0.1136
 1711TIP3    H1 5074   5.937   7.911   5.169  1.2286  0.0076 -0.3628
 1711TIP3    H2 5075   5.960   7.829   5.044 -1.1244 -0.3457 -0.6079
 1712TIP3   OH2 5076   6.256   6.275   2.669 -0.2490 -0.2280 -0.3593
 1712TIP3    H1 5077   6.314   6.330   2.722 -1.5041  3.1583 -2.1603
 1712TIP3    H2 5078   6.297   6.273   2.582 -1.9553  0.9907 -1.2652
 1713TIP3   OH2 5079   6.353   2.939   4.983  0.5639  0.1142  0.1470
 1713TIP3    H1 5080   6.336   2.848   5.006 -1.1811  0.6786  1.2387
 1713TIP3    H2 5081   6.293   2.956   4.910  1.0963  0.3320 -0.2495
 1714TIP3   OH2 5082   2.581   3.290   4.364  0.0407  0.0185 -0.5896
 1714TIP3    H1 5083   2.493   3.253   4.373  0.3933 -0.8623 -0.7285
 1714TIP3    H2 5084   2.623   3.236   4.298  0.3802  1.0366 -1.2356
 1715TIP3   OH2 5085   2.780   1.701   1.547 -0.4127 -0.0896  0.4214
 1715TIP3    H1 5086   2.869   1.685   1.515 -0.8931 -1.3012 -0.3713
 1715TIP3    H2 5087   2.753   1.781   1.503  0.3237  0.3559  0.7608
 1716TIP3   OH2 5088   7.730   0.322   3.159 -0.3287  0.2247 -0.0828
 1716TIP3    H1 5089   7.684   0.353   3.237 -2.2767 -2.8717  0.1508
 1716TIP3    H2 5090   7.673   0.346   3.086  0.4876  1.2801 -0.4061
 1717TIP3   OH2 5091   5.952   5.714   6.151  0.3376 -0.0697 -0.1116
 1717TIP3    H1 5092   5.945   5.686   6.060 -0.1883 -3.5705  0.8408
 1717TIP3    H2 5093   5.885   5.782   6.161 -1.2623 -1.3110 -1.7977
 1718TIP3   OH2 5094   5.476   6.096   1.711  0.4763 -0.2472 -0.2754
 1718TIP3    H1 5095   5.391   6.136   1.692  0.5635 -1.0587 -2.6705
 1718TIP3    H2 5096   5.499   6.128   1.798 -0.7464  2.6449 -0.9189
 1719TIP3   OH2 5097   7.963   5.974   3.115  0.6227  0.4650  0.0085
 1719TIP3    H1 5098   7.955   5.883   3.144  2.1969  0.1253 -0.5212
 1719TIP3    H2 5099   7.989   6.022   3.194  1.3943  0.1555 -0.0466
 1720TIP3   OH2 5100   4.470   5.734   4.574  0.4703  0.6456  0.0585
 1720TIP3    H1 5101   4.463   5.732   4.478  0.6271 -1.2058  0.0524
 1720TIP3    H2 5102   4.564   5.740   4.591  0.5630 -0.4691  0.0573
 1721TIP3   OH2 5103   4.291   5.280   0.829  0.0683  0.3445 -0.4209
 1721TIP3    H1 5104   4.386   5.278   0.841 -0.1028  2.3753  2.2617
 1721TIP3    H2 5105   4.272   5.369   0.800 -1.1044  0.3339  0.2509
 1722TIP3   OH2 5106   6.095   3.425   2.212 -0.1817  0.3214 -0.2994
 1722TIP3    H1 5107   6.160   3.372   2.165  0.7444  1.4773 -0.3615
 1722TIP3    H2 5108   6.098   3.393   2.302 -0.2140 -0.2680 -0.5038
 1723TIP3   OH2 5109   8.198   1.793   3.442 -0.3125 -0.0881 -0.3813
 1723TIP3    H1 5110   8.209   1.869   3.385  1.0108  0.3555  0.4319
 1723TIP3    H2 5111   8.275   1.738   3.423  0.2186  0.1333  1.0453
 1724TIP3   OH2 5112   3.617   5.420   5.179 -0.1621 -0.5069  0.4339
 1724TIP3    H1 5113   3.528   5.455   5.167 -0.8326 -2.2366  0.0935
 1724TIP3    H2 5114   3.669   5.462   5.110 -0.7270  0.4285  0.5523
 1725TIP3   OH2 5115   7.019   4.971   3.923  0.0680  0.0042 -0.4992
 1725TIP3    H1 5116   6.938   4.961   3.873  0.2934 -1.8354 -0.5354
 1725TIP3    H2 5117   6.992   5.015   4.004 -0.5081  1.8351 -1.6170
 1726TIP3   OH2 5118   2.420   2.159   1.131  0.1134  0.5073  0.0440
 1726TIP3    H1 5119   2.490   2.124   1.077  0.8041  2.3971 -0.3433
 1726TIP3    H2 5120   2.362   2.203   1.070 -0.2737  0.7983  0.6102
 1727TIP3   OH2 5121   5.657   5.681   3.117 -0.3893  0.2880 -0.3395
 1727TIP3    H1 5122   5.623   5.592   3.109 -2.9354  1.0244  1.2724
 1727TIP3    H2 5123   5.605   5.732   3.055  0.1583  0.8799 -0.3190
 1728TIP3   OH2 5124   8.113   2.242   5.092  0.2888  0.3488 -0.6023
 1728TIP3    H1 5125   8.064   2.306   5.144  0.2744  0.5386 -0.8471
 1728TIP3    H2 5126   8.181   2.293   5.048 -1.0459  0.6014 -2.5109
 1729TIP3   OH2 5127   3.719   4.429   0.359 -0.1335  0.2004 -1.1521
 1729TIP3    H1 5128   3.659   4.355   0.357 -1.5388  1.2869 -0.5482
 1729TIP3    H2 5129   3.665   4.505   0.340  1.3440  1.0626 -2.1377
 1730TIP3   OH2 5130   0.046   2.578   4.608 -0.3430 -0.0981 -0.3178
 1730TIP3    H1 5131   0.028   2.627   4.528 -2.3474  0.4932  0.4356
 1730TIP3    H2 5132  -0.035   2.584   4.658  0.0608 -2.4436  0.7287
 1731TIP3   OH2 5133   5.882   5.225   6.400 -0.1592  0.2468  0.3688
 1731TIP3    H1 5134   5.972   5.198   6.419 -0.4977 -0.8808  0.4096
 1731TIP3    H2 5135   5.892   5.307   6.350  0.9616 -0.7701 -1.1640
 1732TIP3   OH2 5136   0.044   6.469   2.625  0.1771 -0.4276 -0.5542
 1732TIP3    H1 5137   0.105   6.404   2.590  2.4972  1.6073 -0.6006
 1732TIP3    H2 5138   0.027   6.528   2.551 -1.5878 -0.7406 -0.4291
 1733TIP3   OH2 5139   3.943   7.110   3.709 -0.0031 -0.3150  0.2603
 1733TIP3    H1 5140   4.016   7.079   3.656 -0.8857 -2.0166 -0.0366
 1733TIP3    H2 5141   3.872   7.123   3.646 -0.8630 -1.7212  0.8677
 1734TIP3   OH2 5142   1.741   7.179   5.750  0.7233  0.1587 -0.0145
 1734TIP3    H1 5143   1.804   7.110   5.727  0.2598  0.2127 -1.5433
 1734TIP3    H2 5144   1.790   7.260   5.739  1.0948  0.1273  1.2213
 1735TIP3   OH2 5145   2.546   5.138   4.074 -1.0690  0.6345 -0.4219
 1735TIP3    H1 5146   2.587   5.219   4.043 -0.0337  1.5473  2.8970
 1735TIP3    H2 5147   2.605   5.068   4.045  0.4582  1.5290  0.3975
 1736TIP3   OH2 5148   6.776   2.482   5.995 -0.0319 -0.2556  0.1507
 1736TIP3    H1 5149   6.755   2.410   5.935 -1.5155 -0.8210  1.2830
 1736TIP3    H2 5150   6.808   2.439   6.074  0.1993  0.3893  0.4136
 1737TIP3   OH2 5151   4.292   6.522   5.701  0.5589  0.4636 -0.4004
 1737TIP3    H1 5152   4.207   6.478   5.697  0.5056 -0.2282  3.5332
 1737TIP3    H2 5153   4.354   6.461   5.662 -0.1584 -1.1902  0.9492
 1738TIP3   OH2 5154   4.240   5.586   0.027 -0.0553 -0.2907 -0.4562
 1738TIP3    H1 5155   4.302   5.634  -0.027 -0.4938 -0.2156 -0.9046
 1738TIP3    H2 5156   4.277   5.498   0.035  0.1606 -0.2145 -0.6220
 1739TIP3   OH2 5157   8.165   1.090   1.709 -0.2341 -0.0638  0.4758
 1739TIP3    H1 5158   8.244   1.143   1.707 -1.7722  2.4227  1.3438
 1739TIP3    H2 5159   8.174   1.037   1.789  0.5467  0.1581  0.5436
 1740TIP3   OH2 5160   5.451   5.488   4.312  0.6537  0.3977  0.2724
 1740TIP3    H1 5161   5.525   5.545   4.332 -0.6680  3.4117 -2.5970
 1740TIP3    H2 5162   5.488   5.418   4.258  1.3299  2.7368 -2.4869
 1741TIP3   OH2 5163   2.064   0.387   5.806  0.6030 -0.1946 -0.2817
 1741TIP3    H1 5164   2.060   0.430   5.721  0.9248  0.1644 -0.1134
 1741TIP3    H2 5165   2.123   0.441   5.858 -1.3363  0.8813  0.9083
 1742TIP3   OH2 5166   6.340   2.218   0.783  0.0512 -0.4309 -0.4561
 1742TIP3    H1 5167   6.311   2.138   0.825  1.3614 -0.4376  0.4895
 1742TIP3    H2 5168   6.319   2.206   0.690 -2.2384 -0.7038  0.0488
 1743TIP3   OH2 5169   4.688   2.597   1.931 -0.4609  0.0726 -0.3808
 1743TIP3    H1 5170   4.775   2.584   1.967  0.5407  2.4647 -1.7001
 1743TIP3    H2 5171   4.690   2.553   1.846 -0.5600  0.0806 -0.3872
 1744TIP3   OH2 5172   7.631   5.411   0.389  0.2989  0.4606  0.4001
 1744TIP3    H1 5173   7.536   5.402   0.399  0.5178 -0.2264  2.5578
 1744TIP3    H2 5174   7.646   5.505   0.383 -0.3878  0.7665  2.6185
 1745TIP3   OH2 5175   6.935   6.190   3.901  0.3179 -0.2641  0.1373
 1745TIP3    H1 5176   6.981   6.198   3.985  0.5710 -0.6340  0.0347
 1745TIP3    H2 5177   6.992   6.135   3.848 -0.8823 -1.9107  0.4737
 1746TIP3   OH2 5178   5.462   7.398   5.237 -0.0034 -0.1120 -0.2735
 1746TIP3    H1 5179   5.367   7.395   5.228  0.0271  2.2071 -2.1032
 1746TIP3    H2 5180   5.495   7.347   5.162  0.2034  0.0942 -0.3228
 1747TIP3   OH2 5181   1.341   5.685   2.547 -0.4637 -0.3256 -0.1070
 1747TIP3    H1 5182   1.414   5.697   2.607 -1.3416  0.1856  0.9058
 1747TIP3    H2 5183   1.274   5.747   2.577 -2.0363 -2.0546  0.1779
 1748TIP3   OH2 5184   0.802   7.224   2.467 -0.4535  0.1331  0.0429
 1748TIP3    H1 5185   0.727   7.284   2.469 -0.4797  0.2142 -1.5796
 1748TIP3    H2 5186   0.820   7.213   2.374  1.6689  0.2366  0.4034
 1749TIP3   OH2 5187   5.584   0.687   0.370 -0.2017 -0.0572  0.0589
 1749TIP3    H1 5188   5.602   0.618   0.433 -2.1284 -1.2894 -0.6470
 1749TIP3    H2 5189   5.669   0.730   0.356  0.5728 -0.7511  2.2544
 1750TIP3   OH2 5190   7.870   4.101   4.091 -0.0770  0.9574 -0.0726
 1750TIP3    H1 5191   7.790   4.051   4.107  1.0797 -1.5003 -1.3579
 1750TIP3    H2 5192   7.940   4.045   4.124  1.2724  1.8908 -1.2387
 1751TIP3   OH2 5193   7.555   6.265   4.042 -0.0003 -0.6036  0.5467
 1751TIP3    H1 5194   7.623   6.213   4.000 -0.5555 -0.9745  0.0870
 1751TIP3    H2 5195   7.602   6.330   4.094  0.7465 -2.2077  1.9753
 1752TIP3   OH2 5196   6.861   5.699   3.543 -0.0293 -0.6226 -0.0586
 1752TIP3    H1 5197   6.881   5.731   3.631  1.4989 -0.3735 -0.4616
 1752TIP3    H2 5198   6.766   5.687   3.542 -0.2255  0.6295  1.1961
 1753TIP3   OH2 5199   3.548   4.146   3.806  0.2074 -0.0553 -0.1310
 1753TIP3    H1 5200   3.582   4.214   3.865 -1.4466  0.8512 -0.1454
 1753TIP3    H2 5201   3.457   4.135   3.833 -0.3376 -0.2689 -1.9452
 1754TIP3   OH2 5202   1.581   4.445   4.186  0.2991  0.3790  0.0084
 1754TIP3    H1 5203   1.555   4.536   4.200 -1.0764  0.0362 -0.2323
 1754TIP3    H2 5204   1.589   4.408   4.274  4.6780  1.6579  0.4234
 1755TIP3   OH2 5205   4.758   5.275   4.618  1.0700 -0.2494 -0.7944
 1755TIP3    H1 5206   4.849   5.251   4.600  0.8408 -0.1243 -2.2647
 1755TIP3    H2 5207   4.707   5.203   4.579  0.4824  0.9873 -2.4285
 1756TIP3   OH2 5208   5.199   4.799   5.822 -0.1074 -0.2841 -0.2896
 1756TIP3    H1 5209   5.269   4.737   5.807 -0.4881 -0.9375  0.5206
 1756TIP3    H2 5210   5.133   4.778   5.757 -0.5428 -1.2264  0.4304
 1757TIP3   OH2 5211   0.255   0.325   3.569 -0.1860 -0.2798 -0.2212
 1757TIP3    H1 5212   0.345   0.303   3.594 -1.0065 -0.5340  3.0698
 1757TIP3    H2 5213   0.264   0.399   3.509  2.2105  0.1430  0.5356
 1758TIP3   OH2 5214   3.935   4.947   3.840 -0.0894  0.7912 -0.1236
 1758TIP3    H1 5215   3.993   5.022   3.829  0.9247  0.0652  0.1336
 1758TIP3    H2 5216   3.909   4.951   3.932  3.7259 -1.7164  1.3113
 1759TIP3   OH2 5217   0.619   3.084   0.553 -0.1416  0.4790 -0.1142
 1759TIP3    H1 5218   0.542   3.051   0.507 -0.8702  1.7776  0.1457
 1759TIP3    H2 5219   0.625   3.176   0.528  1.6662  0.2721 -0.5627
 1760TIP3   OH2 5220   1.614   0.766   2.751  0.4505  0.5122  0.0069
 1760TIP3    H1 5221   1.673   0.691   2.755 -0.1687  0.0112 -0.1520
 1760TIP3    H2 5222   1.673   0.842   2.749  1.1051  0.0010 -0.7551
 1761TIP3   OH2 5223   2.052   1.502   5.191 -0.4540  0.4268  0.1239
 1761TIP3    H1 5224   2.137   1.508   5.235 -0.8131 -0.5866  0.9692
 1761TIP3    H2 5225   1.997   1.566   5.235 -0.2885  0.7144 -0.0816
 1762TIP3   OH2 5226   0.754   5.570   5.633  0.1843  0.8994 -0.5482
 1762TIP3    H1 5227   0.735   5.478   5.618 -0.0285  0.9458 -0.5709
 1762TIP3    H2 5228   0.750   5.610   5.547  0.1561  0.9504 -0.5236
 1763TIP3   OH2 5229   4.669   7.332   0.675  0.0987  0.1411 -0.4717
 1763TIP3    H1 5230   4.741   7.332   0.611 -1.0558 -1.0433 -1.8424
 1763TIP3    H2 5231   4.713   7.335   0.760  1.8113 -1.0232 -1.2629
 1764TIP3   OH2 5232   0.208   5.224   4.363  0.2553  0.1746  0.2796
 1764TIP3    H1 5233   0.158   5.277   4.425  0.2357 -1.8202  2.0651
 1764TIP3    H2 5234   0.143   5.197   4.298 -0.4317 -0.2014  1.0950
 1765TIP3   OH2 5235   0.341   6.103   1.570 -0.7696 -0.1124 -0.0629
 1765TIP3    H1 5236   0.344   6.024   1.625 -1.4821 -0.0567  0.0677
 1765TIP3    H2 5237   0.430   6.112   1.537 -0.3279 -0.1738  1.0537
 1766TIP3   OH2 5238   7.219   3.130   1.736 -0.5517 -0.8605  0.0807
 1766TIP3    H1 5239   7.200   3.037   1.730 -1.4370 -0.8063  1.5075
 1766TIP3    H2 5240   7.280   3.138   1.810  0.1328 -0.3767 -0.5209
 1767TIP3   OH2 5241   3.326   7.186   2.094  0.0211 -0.0784 -0.1933
 1767TIP3    H1 5242   3.301   7.144   2.011  1.6572 -0.8178 -0.3433
 1767TIP3    H2 5243   3.292   7.275   2.086  0.0584 -0.1647 -1.6150
 1768TIP3   OH2 5244   5.107   5.004   5.462  0.3060 -0.6452 -0.2144
 1768TIP3    H1 5245   5.111   5.044   5.549 -1.5051 -0.7833 -0.0387
 1768TIP3    H2 5246   5.132   5.074   5.402 -0.0275 -0.0853  0.2973
 1769TIP3   OH2 5247   2.554   3.424   1.310 -0.1682  0.0470 -0.2009
 1769TIP3    H1 5248   2.471   3.403   1.267  0.0709 -0.4791 -0.4290
 1769TIP3    H2 5249   2.586   3.501   1.264 -0.6273  0.3704  0.0231
 1770TIP3   OH2 5250   7.237  -0.024   4.366 -0.6922  0.1712 -0.6566
 1770TIP3    H1 5251   7.321  -0.044   4.325 -0.3488 -0.5515  0.3406
 1770TIP3    H2 5252   7.224   0.069   4.351 -0.2882  0.0539 -1.8443
 1771TIP3   OH2 5253   7.889   5.461   0.771 -0.0285  0.2189 -0.2557
 1771TIP3    H1 5254   7.859   5.394   0.710 -0.9324 -0.0206  0.4358
 1771TIP3    H2 5255   7.835   5.537   0.751  1.3960  0.9611 -1.4378
 1772TIP3   OH2 5256   3.669   4.353   3.331 -0.2501  0.0509 -0.5994
 1772TIP3    H1 5257   3.651   4.277   3.387  0.8769  0.8079  0.8709
 1772TIP3    H2 5258   3.595   4.412   3.346 -0.2551 -0.0154 -0.3551
 1773TIP3   OH2 5259   5.169   0.576   0.345 -0.1720  0.1938 -0.6968
 1773TIP3    H1 5260   5.131   0.663   0.358 -0.9835  0.0180 -1.7579
 1773TIP3    H2 5261   5.116   0.519   0.402  0.9654  0.5035  0.7344
 1774TIP3   OH2 5262   4.550   4.051   2.747 -1.3122 -0.1135 -0.0673
 1774TIP3    H1 5263   4.537   4.060   2.842 -0.0723  0.2893  0.0824
 1774TIP3    H2 5264   4.639   4.018   2.738 -2.0532 -1.9996 -1.0560
 1775TIP3   OH2 5265   7.959   7.046   2.226  0.3083  0.5138  0.7578
 1775TIP3    H1 5266   8.032   7.034   2.165  0.1455  1.2771  0.3970
 1775TIP3    H2 5267   7.998   7.038   2.313  0.9735  1.6055  0.5856
 1776TIP3   OH2 5268   3.626   2.644   2.567  0.5732 -0.0607  0.1908
 1776TIP3    H1 5269   3.706   2.676   2.610  0.3526  0.4336  0.2416
 1776TIP3    H2 5270   3.566   2.718   2.570  1.2421  0.7388 -2.8262
 1777TIP3   OH2 5271   4.236   3.138   5.919  1.0194 -0.0235  0.3716
 1777TIP3    H1 5272   4.283   3.200   5.863 -0.7098  2.2142  1.2602
 1777TIP3    H2 5273   4.170   3.100   5.861  0.1124  1.2753  0.5252
 1778TIP3   OH2 5274   1.655   4.457   6.039 -0.1181  0.3161  0.0562
 1778TIP3    H1 5275   1.719   4.528   6.046 -1.8359  2.0807 -1.2997
 1778TIP3    H2 5276   1.648   4.439   5.945  0.2211 -1.6763  0.3525
 1779TIP3   OH2 5277   4.088   7.381   0.693  0.4024 -0.0190  0.1080
 1779TIP3    H1 5278   4.028   7.312   0.722 -0.1704  0.5054  0.2028
 1779TIP3    H2 5279   4.161   7.335   0.653 -0.3714 -0.6742 -0.5982
 1780TIP3   OH2 5280   1.988   0.049   6.210  0.2998 -0.5074 -0.0742
 1780TIP3    H1 5281   1.943   0.094   6.282  1.7758  2.8074 -1.0049
 1780TIP3    H2 5282   1.938   0.072   6.132  1.3177 -0.1242 -0.6327
 1781TIP3   OH2 5283   4.482   2.556   4.535  0.1457 -0.0419 -0.5595
 1781TIP3    H1 5284   4.573   2.558   4.506  0.2635 -1.8629 -0.4314
 1781TIP3    H2 5285   4.431   2.543   4.455  0.2725 -2.2392 -0.3495
 1782TIP3   OH2 5286   2.363   7.513   1.510 -0.5392 -0.6190  0.0779
 1782TIP3    H1 5287   2.330   7.448   1.448 -1.0650  0.0220 -0.3272
 1782TIP3    H2 5288   2.362   7.595   1.461 -0.4721 -0.1946  0.7780
 1783TIP3   OH2 5289   7.776   7.114   0.617  0.2277 -0.6703  0.2220
 1783TIP3    H1 5290   7.752   7.135   0.527 -3.3523 -0.2459  1.1029
 1783TIP3    H2 5291   7.864   7.148   0.627 -1.0044  3.8894 -1.8002
 1784TIP3   OH2 5292   0.394   5.286   1.057 -0.6399  0.2391 -0.1028
 1784TIP3    H1 5293   0.393   5.358   0.994 -2.3496  0.9134  0.6294
 1784TIP3    H2 5294   0.369   5.209   1.006  0.1087  0.3683 -0.6725
 1785TIP3   OH2 5295   8.278   1.440   3.272  0.7407  0.1061  0.6632
 1785TIP3    H1 5296   8.298   1.384   3.197 -1.0284  0.8090 -0.4005
 1785TIP3    H2 5297   8.264   1.380   3.345  0.0721 -0.7630 -0.1596
 1786TIP3   OH2 5298   1.052   6.737   2.868 -0.4999  0.4604 -0.3944
 1786TIP3    H1 5299   1.110   6.745   2.792  0.6750 -1.1760  0.2767
 1786TIP3    H2 5300   1.096   6.786   2.937  0.2747 -1.0015  0.1906
 1787TIP3   OH2 5301   3.917   7.599   3.122 -0.1675  0.0920  0.2871
 1787TIP3    H1 5302   3.851   7.529   3.123  1.7766 -1.8480  1.1270
 1787TIP3    H2 5303   3.937   7.615   3.214  1.1147  0.0261  0.0406
 1788TIP3   OH2 5304   1.460   3.159   0.859 -0.4030 -0.0380  0.1841
 1788TIP3    H1 5305   1.546   3.193   0.884 -0.6104  0.1226  0.6776
 1788TIP3    H2 5306   1.479   3.093   0.792 -0.0070  1.1225 -0.8750
 1789TIP3   OH2 5307   2.293   2.904   6.095 -0.6113 -0.0362 -0.5307
 1789TIP3    H1 5308   2.289   2.809   6.102  0.6023 -0.1198 -0.7224
 1789TIP3    H2 5309   2.261   2.923   6.007  1.0053 -0.4653 -1.2619
 1790TIP3   OH2 5310   0.651   5.951   3.251 -0.6234 -0.6807 -0.2504
 1790TIP3    H1 5311   0.567   5.967   3.208 -1.0310 -0.9164  0.4479
 1790TIP3    H2 5312   0.654   5.856   3.264 -0.3872 -0.6400  0.0055
 1791TIP3   OH2 5313   1.122   1.236   0.853 -0.2572 -0.5220  0.3134
 1791TIP3    H1 5314   1.161   1.266   0.935 -0.7823 -3.0292  1.5918
 1791TIP3    H2 5315   1.051   1.298   0.837 -1.5244 -1.1047  2.9827
 1792TIP3   OH2 5316   7.355   5.842   2.891 -0.1453  0.0030 -0.0184
 1792TIP3    H1 5317   7.377   5.760   2.846  0.6068 -0.6630  1.4759
 1792TIP3    H2 5318   7.259   5.843   2.893 -0.1700 -0.6068 -0.4644
 1793TIP3   OH2 5319   4.826   5.026   5.810  0.0077 -0.4681 -0.0859
 1793TIP3    H1 5320   4.798   5.108   5.770  1.3177  0.5147  0.8970
 1793TIP3    H2 5321   4.879   5.053   5.885  1.0453 -2.2096 -0.1332
 1794TIP3   OH2 5322   2.702   3.555   2.465 -0.6307  0.2858 -0.1548
 1794TIP3    H1 5323   2.626   3.515   2.422 -0.5296  1.2743 -1.3198
 1794TIP3    H2 5324   2.775   3.533   2.407  0.7642 -3.8151  2.7550
 1795TIP3   OH2 5325   0.061   4.237   0.766 -0.3682  0.6941  0.2959
 1795TIP3    H1 5326   0.151   4.245   0.797 -1.1485  1.0880  2.6637
 1795TIP3    H2 5327   0.060   4.288   0.685  1.3110  1.5354  0.7390
 1796TIP3   OH2 5328   4.023   7.362   6.625 -0.2089 -0.2348 -0.1869
 1796TIP3    H1 5329   4.026   7.277   6.581 -1.0744 -0.7825  0.7798
 1796TIP3    H2 5330   4.105   7.368   6.673 -0.7077 -1.1274  0.8054
 1797TIP3   OH2 5331   2.465   3.032   1.000 -0.0826 -0.3383  0.1620
 1797TIP3    H1 5332   2.457   2.971   1.072  1.4649 -0.6478  0.1198
 1797TIP3    H2 5333   2.548   3.008   0.957  0.3527  1.4878 -0.1235
 1798TIP3   OH2 5334   3.232   3.031   1.482  0.5375 -0.3569  0.1525
 1798TIP3    H1 5335   3.177   3.104   1.454 -0.4277 -1.0328  0.2380
 1798TIP3    H2 5336   3.289   3.069   1.550 -0.4342  0.1660  0.7026
 1799TIP3   OH2 5337   3.799   0.742   0.481  0.1618  0.2552  0.2465
 1799TIP3    H1 5338   3.860   0.760   0.553 -1.0042 -0.4176  1.4525
 1799TIP3    H2 5339   3.739   0.816   0.482  0.0418  0.1601  0.0870
 1800TIP3   OH2 5340   5.367   5.880   2.118 -0.0620  0.0204 -0.1910
 1800TIP3    H1 5341   5.323   5.834   2.047 -0.6380 -0.1515  0.2748
 1800TIP3    H2 5342   5.301   5.888   2.186  1.2496 -2.4582  1.5533
 1801TIP3   OH2 5343   0.305   1.299   6.235  0.0342 -0.4048  0.2745
 1801TIP3    H1 5344   0.283   1.299   6.329  1.7733 -0.2516  0.7132
 1801TIP3    H2 5345   0.307   1.391   6.211  3.7950 -0.0651  1.2264
 1802TIP3   OH2 5346   2.156   1.419   6.724 -0.5784  0.3286  0.5000
 1802TIP3    H1 5347   2.188   1.390   6.809  0.4252 -0.9077 -0.2576
 1802TIP3    H2 5348   2.134   1.338   6.678 -1.8672  1.0077 -0.1528
 1803TIP3   OH2 5349   3.959   1.086   3.583  0.2868 -0.0008 -0.1481
 1803TIP3    H1 5350   4.051   1.063   3.602  0.7553  1.9200  0.0705
 1803TIP3    H2 5351   3.909   1.010   3.614  1.7469 -0.8431  0.2634
 1804TIP3   OH2 5352   8.015   5.500   0.219  0.0385 -0.6426 -0.0983
 1804TIP3    H1 5353   8.031   5.492   0.313  2.6219  0.3677 -0.3618
 1804TIP3    H2 5354   7.928   5.462   0.206  0.3384 -2.4559  2.4146
 1805TIP3   OH2 5355   5.294   5.663   4.162  0.5072  0.1475  0.0714
 1805TIP3    H1 5356   5.351   5.733   4.131  0.9760  0.2168  1.0496
 1805TIP3    H2 5357   5.351   5.606   4.213 -0.2187  0.0273  0.7792
 1806TIP3   OH2 5358   3.296   6.648   6.134  0.0156  0.4561  0.3368
 1806TIP3    H1 5359   3.334   6.598   6.205 -0.8575 -0.8954 -0.1198
 1806TIP3    H2 5360   3.208   6.671   6.164  0.0256  0.8134  0.1106
 1807TIP3   OH2 5361   6.991   1.000   0.967  0.3454  0.8787 -0.3397
 1807TIP3    H1 5362   6.906   0.959   0.985  1.2412 -0.3750  1.3695
 1807TIP3    H2 5363   7.014   1.044   1.049  0.8624  2.1437 -1.1410
 1808TIP3   OH2 5364   4.004   2.934   4.541  0.2629 -0.3641  0.4360
 1808TIP3    H1 5365   3.982   2.841   4.549  1.2652 -0.7924 -1.2388
 1808TIP3    H2 5366   3.969   2.959   4.456  1.7717  0.2386 -0.0331
 1809TIP3   OH2 5367   6.877   2.928   4.033  0.2651  0.4534  0.2482
 1809TIP3    H1 5368   6.970   2.930   4.054  0.4410 -2.1981  0.0599
 1809TIP3    H2 5369   6.865   2.997   3.968  2.7617 -1.1505 -2.0921
 1810TIP3   OH2 5370   2.038   3.721   2.242 -0.2834 -0.6219 -0.3361
 1810TIP3    H1 5371   1.945   3.732   2.264  0.1752  0.4196  1.2842
 1810TIP3    H2 5372   2.068   3.809   2.218  0.8161 -0.3927  1.6174
 1811TIP3   OH2 5373   7.149   4.934   1.178  0.1232  0.4250  0.2144
 1811TIP3    H1 5374   7.182   4.927   1.088  0.7442 -1.9406  0.5538
 1811TIP3    H2 5375   7.054   4.934   1.168  0.1353  2.9768 -0.5407
 1812TIP3   OH2 5376   4.124   6.649   5.893 -0.3022  0.2414 -0.0641
 1812TIP3    H1 5377   4.124   6.739   5.861 -1.8871 -0.2774 -1.6887
 1812TIP3    H2 5378   4.200   6.609   5.852 -0.7966  0.2959 -1.0518
 1813TIP3   OH2 5379   0.728   1.821   0.130 -0.0107 -0.4632 -0.1323
 1813TIP3    H1 5380   0.789   1.761   0.172  1.7362  1.2850 -0.0077
 1813TIP3    H2 5381   0.782   1.869   0.066 -0.9179  1.9765  0.7995
 1814TIP3   OH2 5382   5.264   3.250   2.489 -1.1854  0.6216 -0.2073
 1814TIP3    H1 5383   5.268   3.191   2.564 -0.1277  1.4769  0.4440
 1814TIP3    H2 5384   5.281   3.194   2.413  0.9957  0.2221  0.4959
 1815TIP3   OH2 5385   5.925   2.598   5.438 -0.0741 -0.2190  0.2843
 1815TIP3    H1 5386   5.837   2.573   5.468 -1.7111  3.9187 -0.3625
 1815TIP3    H2 5387   5.950   2.671   5.495  2.0859 -0.0256 -0.8247
 1816TIP3   OH2 5388   4.343   0.285   6.798  0.1379  0.1516 -0.0646
 1816TIP3    H1 5389   4.303   0.237   6.726  1.7304  0.7189 -1.4042
 1816TIP3    H2 5390   4.434   0.298   6.770  1.2092 -0.7363  2.6071
 1817TIP3   OH2 5391   5.107   3.011   1.812 -0.0936 -0.0703 -0.6089
 1817TIP3    H1 5392   5.073   3.027   1.724  2.1309  1.0146 -1.3279
 1817TIP3    H2 5393   5.190   3.058   1.815  0.3822 -0.9288  1.7445
 1818TIP3   OH2 5394   0.394   7.184   1.136  0.5656  0.1302 -0.2040
 1818TIP3    H1 5395   0.306   7.186   1.174  0.7781  1.4040  0.2707
 1818TIP3    H2 5396   0.381   7.191   1.042  0.1957  4.0504 -0.0154
 1819TIP3   OH2 5397   4.300   7.706   2.155  0.4842  0.1749  0.1556
 1819TIP3    H1 5398   4.321   7.799   2.152  0.5419  0.1465 -0.7623
 1819TIP3    H2 5399   4.256   7.689   2.071 -1.7659 -0.1030  1.3270
 1820TIP3   OH2 5400   2.800   0.743   4.236 -0.1998  0.3595  0.0751
 1820TIP3    H1 5401   2.806   0.648   4.252 -2.1445  0.0477 -0.7499
 1820TIP3    H2 5402   2.855   0.758   4.159 -0.0016 -0.1345  0.1165
 1821TIP3   OH2 5403   4.908   0.268   3.868 -0.0543  0.3678 -0.0859
 1821TIP3    H1 5404   4.864   0.227   3.793  0.2175 -1.4699  0.6890
 1821TIP3    H2 5405   4.877   0.358   3.868 -0.0200  0.4243 -2.4236
 1822TIP3   OH2 5406   5.550   6.771   0.403 -0.2330  0.4777  0.2882
 1822TIP3    H1 5407   5.462   6.739   0.423  0.6931 -2.1380  0.4895
 1822TIP3    H2 5408   5.586   6.797   0.488 -0.5449  0.8863  0.2994
 1823TIP3   OH2 5409   7.347   6.309   0.944  0.0927 -0.5146  0.4017
 1823TIP3    H1 5410   7.336   6.363   1.023  0.6070 -0.1183  0.2054
 1823TIP3    H2 5411   7.418   6.249   0.966  0.6114 -0.0344  0.0429
 1824TIP3   OH2 5412   0.613   4.729   0.591  0.1905  0.3072  0.1644
 1824TIP3    H1 5413   0.671   4.770   0.527  0.7176 -1.4883 -0.5733
 1824TIP3    H2 5414   0.672   4.700   0.661  0.0616 -0.6056 -0.0973
 1825TIP3   OH2 5415   0.453   1.868   3.998  0.1378  0.1934 -0.1747
 1825TIP3    H1 5416   0.430   1.944   4.052  0.3177  1.1186 -1.3621
 1825TIP3    H2 5417   0.391   1.800   4.024  0.9176  0.2274  1.9959
 1826TIP3   OH2 5418   1.383   0.675   4.075 -0.3910  0.0889 -0.2016
 1826TIP3    H1 5419   1.430   0.758   4.072 -0.6760  0.2225 -1.3399
 1826TIP3    H2 5420   1.448   0.612   4.106  1.0260 -0.0027 -3.0485
 1827TIP3   OH2 5421   0.737   4.194   5.934  0.1319 -0.3024 -0.1831
 1827TIP3    H1 5422   0.648   4.160   5.924  0.0124  0.2885 -1.3375
 1827TIP3    H2 5423   0.792   4.115   5.938 -0.3869 -0.6639  0.0409
 1828TIP3   OH2 5424   5.333   1.696   2.509  0.0019 -0.7964 -0.2738
 1828TIP3    H1 5425   5.342   1.605   2.535  0.1685 -0.6218  0.2812
 1828TIP3    H2 5426   5.259   1.729   2.559 -0.3620 -0.7493 -0.8261
 1829TIP3   OH2 5427   8.202   7.013   6.330  0.7071  0.5288  0.4128
 1829TIP3    H1 5428   8.278   6.979   6.283  0.5925  0.5299  0.2244
 1829TIP3    H2 5429   8.152   7.060   6.263  0.1649 -0.0912  0.3712
 1830TIP3   OH2 5430   0.581   3.512   6.721 -0.7846 -0.4839  0.0029
 1830TIP3    H1 5431   0.497   3.558   6.723 -0.8345 -0.5860  0.4314
 1830TIP3    H2 5432   0.638   3.565   6.777  0.4421  1.4619 -2.8932
 1831TIP3   OH2 5433   2.076   7.051   0.837 -0.1977 -0.4301  0.2482
 1831TIP3    H1 5434   2.017   6.982   0.806  0.8751 -1.5375  0.6267
 1831TIP3    H2 5435   2.111   7.090   0.758 -2.4547  1.2218 -0.0568
 1832TIP3   OH2 5436   7.730   7.372   3.662 -0.4248 -0.1032  0.3672
 1832TIP3    H1 5437   7.749   7.444   3.602  1.5440 -0.4183  0.5478
 1832TIP3    H2 5438   7.686   7.306   3.608  1.7373 -0.5856 -0.9314
 1833TIP3   OH2 5439   7.825   3.539   0.525 -0.1046  0.6965 -0.4419
 1833TIP3    H1 5440   7.770   3.577   0.593  1.5047  0.8332  0.8275
 1833TIP3    H2 5441   7.797   3.447   0.519  0.8699  0.2171  1.6595
 1834TIP3   OH2 5442   3.554   3.512   4.517  0.0130  0.1041 -0.0631
 1834TIP3    H1 5443   3.493   3.457   4.566  1.7782 -1.1465  0.8487
 1834TIP3    H2 5444   3.594   3.568   4.583  0.6933  0.0747 -0.4418
 1835TIP3   OH2 5445   1.459   0.775   3.089  0.1785  0.4724  0.1396
 1835TIP3    H1 5446   1.497   0.863   3.099 -1.0847  1.1358 -0.5474
 1835TIP3    H2 5447   1.426   0.774   2.999 -1.3015 -0.0836  0.6578
 1836TIP3   OH2 5448   3.727   0.390   1.352  0.1769  0.4218 -0.2355
 1836TIP3    H1 5449   3.729   0.295   1.343  1.5119  0.3903  0.1949
 1836TIP3    H2 5450   3.709   0.406   1.444 -0.0931  0.5843 -0.3155
 1837TIP3   OH2 5451   2.725   4.379   2.474 -0.6447 -0.4626  0.1803
 1837TIP3    H1 5452   2.681   4.367   2.390 -1.3660  1.1979  0.2811
 1837TIP3    H2 5453   2.789   4.308   2.478 -1.9729 -1.7704 -0.8571
 1838TIP3   OH2 5454   3.026   2.680   3.990  0.0053 -0.2039 -0.3796
 1838TIP3    H1 5455   3.045   2.674   3.896 -1.7209 -0.9871 -0.7233
 1838TIP3    H2 5456   3.103   2.724   4.027 -0.4658  2.8136 -2.5636
 1839TIP3   OH2 5457   4.388   4.887   4.567  0.0029  0.2561 -0.2564
 1839TIP3    H1 5458   4.306   4.892   4.616  1.2913  0.8473  2.0237
 1839TIP3    H2 5459   4.390   4.968   4.515 -0.3056  0.8838  0.6703
 1840TIP3   OH2 5460   0.392   6.278   0.806  0.6813  0.4836 -0.3356
 1840TIP3    H1 5461   0.362   6.276   0.715  2.1774  0.1017 -0.8420
 1840TIP3    H2 5462   0.365   6.364   0.839 -0.7830  0.2302 -0.7917
 1841TIP3   OH2 5463   0.209   4.800   6.333 -0.7396  0.1790  1.0302
 1841TIP3    H1 5464   0.273   4.862   6.300 -1.2570 -0.2367 -0.9085
 1841TIP3    H2 5465   0.228   4.718   6.287 -2.7179  0.0770  0.2744
 1842TIP3   OH2 5466   3.337   1.692   1.649  0.9297 -0.3370 -0.7112
 1842TIP3    H1 5467   3.312   1.660   1.735 -0.9083 -0.0376 -1.1002
 1842TIP3    H2 5468   3.342   1.787   1.659  1.4159 -0.3518 -0.7768
 1843TIP3   OH2 5469   4.743   0.381   4.979 -0.1848 -0.2081  0.4605
 1843TIP3    H1 5470   4.785   0.335   4.906  0.3829  0.3054  0.4563
 1843TIP3    H2 5471   4.763   0.473   4.964 -0.9014 -0.0017  0.7379
 1844TIP3   OH2 5472   5.148   0.848   0.140  0.2493  0.0526 -0.0991
 1844TIP3    H1 5473   5.055   0.864   0.126  0.4806  1.0979 -0.5668
 1844TIP3    H2 5474   5.183   0.933   0.167  1.3835  0.1344 -1.6768
 1845TIP3   OH2 5475   2.092   3.871   1.730 -0.7092  0.4723  0.2801
 1845TIP3    H1 5476   2.030   3.811   1.688 -1.8854  2.0150 -0.3207
 1845TIP3    H2 5477   2.081   3.953   1.682 -0.2148  1.5822  1.9794
 1846TIP3   OH2 5478   7.633   2.427   2.206  0.9105 -0.5503 -0.1482
 1846TIP3    H1 5479   7.584   2.359   2.252  1.4245 -0.9887 -0.2563
 1846TIP3    H2 5480   7.645   2.496   2.271 -0.8243  0.0616 -0.4214
 1847TIP3   OH2 5481   7.508   2.119   0.275  0.2308  0.0827 -0.0073
 1847TIP3    H1 5482   7.588   2.104   0.225  1.4276 -1.3675  2.1828
 1847TIP3    H2 5483   7.451   2.045   0.253 -0.3428  0.8408 -1.1685
 1848TIP3   OH2 5484   3.545   1.891   3.677 -0.3679 -0.5617 -0.0210
 1848TIP3    H1 5485   3.459   1.849   3.675 -0.2684 -0.8448  1.0402
 1848TIP3    H2 5486   3.589   1.859   3.598 -1.3851 -0.0520 -0.8239
 1849TIP3   OH2 5487   7.914   3.621   5.038  0.6384 -0.1409  0.0647
 1849TIP3    H1 5488   7.979   3.616   4.968 -0.8846  1.9470 -1.6131
 1849TIP3    H2 5489   7.952   3.683   5.101  0.8362  0.0826 -0.2694
 1850TIP3   OH2 5490   6.826   1.809   1.941 -0.6587 -0.1475  0.3827
 1850TIP3    H1 5491   6.745   1.764   1.919 -0.4612 -0.7807  0.9332
 1850TIP3    H2 5492   6.894   1.761   1.895 -0.6361  0.6676 -0.4627
 1851TIP3   OH2 5493   4.130   4.383   2.923 -0.0203  0.2443  0.1102
 1851TIP3    H1 5494   4.141   4.413   3.013  0.5011 -0.2992  0.2341
 1851TIP3    H2 5495   4.061   4.317   2.927  0.9985 -0.8458  0.3726
 1852TIP3   OH2 5496   7.917   5.419   1.053  0.4978 -0.1874  0.5170
 1852TIP3    H1 5497   7.832   5.439   1.092 -0.3372 -1.9122 -0.3037
 1852TIP3    H2 5498   7.903   5.427   0.959  1.8201  1.4662  0.4196
 1853TIP3   OH2 5499   5.098   4.017   3.104 -0.4778 -0.1821  0.2158
 1853TIP3    H1 5500   5.062   4.102   3.075  1.4199 -0.2554 -2.7690
 1853TIP3    H2 5501   5.065   3.955   3.039  0.9749 -1.0934  0.3258
 1854TIP3   OH2 5502   5.865   0.031   6.181 -0.5082  0.0818 -0.2417
 1854TIP3    H1 5503   5.841   0.112   6.226 -1.4117  0.3741 -1.2004
 1854TIP3    H2 5504   5.899   0.060   6.097  0.5023 -0.4903 -0.0469
 1855TIP3   OH2 5505   5.634   2.832   5.984  0.0674  0.3258 -0.1596
 1855TIP3    H1 5506   5.668   2.912   5.942  0.7676  1.3317  2.1419
 1855TIP3    H2 5507   5.556   2.861   6.030  0.8328 -0.0488  1.4584
 1856TIP3   OH2 5508   0.568   6.233   6.520  0.4803 -0.1234  0.1161
 1856TIP3    H1 5509   0.506   6.306   6.518  0.4452 -0.1641 -0.2940
 1856TIP3    H2 5510   0.651   6.271   6.492  0.2496 -0.4370 -1.0595
 1857TIP3   OH2 5511   4.650   6.365   2.857  0.1338 -0.1458  0.6030
 1857TIP3    H1 5512   4.720   6.317   2.900 -1.0453 -0.3032  2.4529
 1857TIP3    H2 5513   4.569   6.330   2.895 -0.7995  3.1635  2.0426
 1858TIP3   OH2 5514   1.965   0.466   1.455 -0.4979 -0.4437 -0.1050
 1858TIP3    H1 5515   2.056   0.496   1.445 -0.3039 -1.2513 -0.8463
 1858TIP3    H2 5516   1.921   0.499   1.377 -0.4924 -1.3056 -0.4753
 1859TIP3   OH2 5517   5.809   3.834   4.516 -0.1360  0.5492  0.2152
 1859TIP3    H1 5518   5.805   3.908   4.455  0.4157  0.4899  0.1009
 1859TIP3    H2 5519   5.819   3.758   4.460  2.4346  0.6661  0.4159
 1860TIP3   OH2 5520   0.262   1.617   1.460  0.4034  0.0186 -0.9023
 1860TIP3    H1 5521   0.181   1.588   1.418  0.4542  2.3499 -2.8125
 1860TIP3    H2 5522   0.329   1.559   1.424 -0.1956 -1.1950 -0.1657
 1861TIP3   OH2 5523   0.450   1.041   1.288  0.0701  0.1155 -0.3792
 1861TIP3    H1 5524   0.375   1.087   1.251 -0.7338 -2.1495 -1.7654
 1861TIP3    H2 5525   0.519   1.051   1.222 -0.6195 -1.8988 -1.5068
 1862TIP3   OH2 5526   2.804   3.843   4.489  0.1035 -0.2041 -0.3477
 1862TIP3    H1 5527   2.876   3.876   4.542  0.1322  2.4746 -1.9040
 1862TIP3    H2 5528   2.844   3.825   4.403 -0.9790  0.9985 -1.1275
 1863TIP3   OH2 5529   4.542   6.322   5.215  0.7260  0.5095 -0.4728
 1863TIP3    H1 5530   4.461   6.346   5.262  0.9071  1.8347 -0.8022
 1863TIP3    H2 5531   4.516   6.316   5.123  0.9537  0.6975 -0.5498
 1864TIP3   OH2 5532   5.895  -0.021   0.407 -0.3216  0.2652 -0.5342
 1864TIP3    H1 5533   5.983   0.007   0.384 -0.4667 -0.8937 -2.8693
 1864TIP3    H2 5534   5.842   0.059   0.402  0.1290  0.5058 -2.0070
 1865TIP3   OH2 5535   1.796   4.961   3.027  0.0172  0.3106  0.0613
 1865TIP3    H1 5536   1.753   4.875   3.034 -0.8557  0.8336  1.6810
 1865TIP3    H2 5537   1.781   4.988   2.936  1.0945 -1.6131 -0.7430
 1866TIP3   OH2 5538   1.505   2.558   5.369  0.2668  0.1632  0.2589
 1866TIP3    H1 5539   1.530   2.524   5.454 -0.3403 -1.2827 -0.1181
 1866TIP3    H2 5540   1.452   2.635   5.389  0.5170  0.1121  1.1613
 1867TIP3   OH2 5541   2.816   6.965   3.834 -0.0749 -0.2880 -0.4781
 1867TIP3    H1 5542   2.890   6.904   3.840 -1.2217 -1.6621  0.2243
 1867TIP3    H2 5543   2.748   6.916   3.789 -1.5169 -0.0762  1.3307
 1868TIP3   OH2 5544   0.389   1.407   0.395  0.2489 -0.1138  1.0397
 1868TIP3    H1 5545   0.435   1.436   0.474  1.4359 -1.0178  0.7106
 1868TIP3    H2 5546   0.393   1.311   0.400  0.1423 -0.1808 -0.0072
 1869TIP3   OH2 5547   5.388   0.587   5.763 -0.0930 -0.1042  0.1548
 1869TIP3    H1 5548   5.313   0.539   5.728 -0.2662 -0.2024  0.6525
 1869TIP3    H2 5549   5.450   0.519   5.790  0.5479 -0.0195 -1.0212
 1870TIP3   OH2 5550   4.606   3.823   0.948 -0.5868 -0.2029 -0.4537
 1870TIP3    H1 5551   4.613   3.904   0.896 -0.6166  0.3341  0.3546
 1870TIP3    H2 5552   4.535   3.774   0.907 -0.2593 -0.0352 -1.2390
 1871TIP3   OH2 5553   4.946   4.520   5.387  0.0441 -0.1279  0.4475
 1871TIP3    H1 5554   4.946   4.603   5.435 -0.7244  0.6672 -0.8776
 1871TIP3    H2 5555   4.864   4.478   5.413  0.3525 -0.4057  0.9867
 1872TIP3   OH2 5556   0.308   2.678   2.798  0.0617  0.1419  0.1008
 1872TIP3    H1 5557   0.348   2.748   2.848  4.3190 -2.5517  1.0493
 1872TIP3    H2 5558   0.353   2.680   2.713 -1.1091 -0.3131 -0.5603
 1873TIP3   OH2 5559   0.812   3.206   1.703 -0.2867  0.8247  0.4058
 1873TIP3    H1 5560   0.788   3.132   1.648  2.0699  0.3762 -0.1541
 1873TIP3    H2 5561   0.736   3.264   1.701 -2.2087 -1.5482  0.8870
 1874TIP3   OH2 5562   3.121   1.794   3.010 -0.2590 -0.4250  0.1878
 1874TIP3    H1 5563   3.214   1.771   3.020 -0.0274  0.5492  0.3715
 1874TIP3    H2 5564   3.121   1.888   2.991 -1.1409 -0.7061 -1.3648
 1875TIP3   OH2 5565   2.385   5.032   3.219  0.0250 -0.0747 -0.1667
 1875TIP3    H1 5566   2.366   4.943   3.190 -0.7619 -0.4170  1.3271
 1875TIP3    H2 5567   2.357   5.034   3.310  0.6777  1.5085  0.0221
 1876TIP3   OH2 5568   5.714   3.440   2.593  0.3408  0.2149  0.9528
 1876TIP3    H1 5569   5.652   3.468   2.526  0.6811  1.2965  1.0754
 1876TIP3    H2 5570   5.765   3.518   2.613 -0.0209  0.0301  2.7798
 1877TIP3   OH2 5571   7.976   3.392   4.400  0.0535  0.0839 -0.0680
 1877TIP3    H1 5572   7.973   3.367   4.492 -0.4811 -1.0345 -0.3780
 1877TIP3    H2 5573   8.069   3.412   4.384 -0.0139  1.3576  0.9677
 1878TIP3   OH2 5574   1.654   7.627   0.716 -0.7124 -0.2106  0.3352
 1878TIP3    H1 5575   1.591   7.697   0.735  0.4509  1.2251 -0.8777
 1878TIP3    H2 5576   1.618   7.550   0.761 -1.8686  1.2161  1.9860
 1879TIP3   OH2 5577   1.760   4.366   2.380  0.2238  0.0373 -0.2085
 1879TIP3    H1 5578   1.807   4.449   2.392 -0.2152  0.1934  0.4834
 1879TIP3    H2 5579   1.673   4.392   2.350 -0.4357 -0.0716  1.5357
 1880TIP3   OH2 5580   0.042   0.107   0.906  0.0024 -0.8894  0.0310
 1880TIP3    H1 5581   0.067   0.057   0.828  0.3685 -1.4413  0.4930
 1880TIP3    H2 5582   0.116   0.097   0.966 -0.6642 -1.2580  0.8191
 1881TIP3   OH2 5583   3.095   5.306   4.158  0.3817  0.0386 -0.4302
 1881TIP3    H1 5584   3.093   5.245   4.084 -0.3219  2.6570 -2.7327
 1881TIP3    H2 5585   3.014   5.356   4.150 -0.5272 -0.6038  3.1548
 1882TIP3   OH2 5586   2.364   3.693   1.216 -0.0904  0.4200 -0.1212
 1882TIP3    H1 5587   2.451   3.658   1.200 -1.1885 -2.4338 -0.4838
 1882TIP3    H2 5588   2.362   3.776   1.168  2.3533  0.5227 -0.1483
 1883TIP3   OH2 5589   4.689   1.852   2.186 -0.2227 -0.6159  0.4471
 1883TIP3    H1 5590   4.615   1.796   2.162 -0.1514 -0.3291 -0.4868
 1883TIP3    H2 5591   4.672   1.876   2.277 -1.0361 -0.9312  0.3931
 1884TIP3   OH2 5592   5.877   0.368   1.108 -0.5167 -0.1661 -0.1452
 1884TIP3    H1 5593   5.906   0.414   1.029  1.9766 -0.2625  0.6238
 1884TIP3    H2 5594   5.921   0.283   1.104  1.6127  0.6771  2.3985
 1885TIP3   OH2 5595   6.551   1.373   3.927 -0.2231  0.8380  0.6013
 1885TIP3    H1 5596   6.646   1.361   3.930 -0.1775 -0.6481 -2.2650
 1885TIP3    H2 5597   6.529   1.420   4.007  2.7619  0.1652  1.9499
 1886TIP3   OH2 5598   0.491   3.837   4.044  0.0387  0.3608 -0.4628
 1886TIP3    H1 5599   0.513   3.929   4.060 -0.8599  0.2773  1.5165
 1886TIP3    H2 5600   0.573   3.790   4.057 -0.1993  0.5365  2.2079
 1887TIP3   OH2 5601   3.803   5.368   5.364 -0.2778  0.2649 -0.5852
 1887TIP3    H1 5602   3.774   5.301   5.426 -1.3283 -0.3174 -1.6418
 1887TIP3    H2 5603   3.723   5.393   5.317  0.4644  0.7461 -1.6308
 1888TIP3   OH2 5604   2.081   2.853   4.649  0.2087  0.0651  0.1523
 1888TIP3    H1 5605   2.162   2.803   4.642  0.2988  0.1716  0.4002
 1888TIP3    H2 5606   2.110   2.942   4.669  0.1133  0.4895 -1.4411
 1889TIP3   OH2 5607   1.966   2.267   6.348 -0.0219 -0.3010  0.0698
 1889TIP3    H1 5608   2.024   2.307   6.283 -0.7354 -0.1591 -0.4875
 1889TIP3    H2 5609   1.884   2.314   6.340  0.3588  0.8990  2.2783
 1890TIP3   OH2 5610   1.460   0.529   5.936 -0.1583  0.1856  0.0422
 1890TIP3    H1 5611   1.499   0.547   5.851 -1.3879  0.5947 -0.4593
 1890TIP3    H2 5612   1.367   0.517   5.918 -0.0670 -2.7230  0.9032
 1891TIP3   OH2 5613   4.846   4.430   1.439  0.5178  0.1679 -0.4540
 1891TIP3    H1 5614   4.907   4.392   1.375  0.8090 -1.6070  0.7989
 1891TIP3    H2 5615   4.880   4.402   1.524 -0.4752  1.5414  0.4273
 1892TIP3   OH2 5616   5.631   2.166   0.243  0.1602 -0.5547 -0.0209
 1892TIP3    H1 5617   5.575   2.238   0.215 -0.7586 -1.6012 -0.9483
 1892TIP3    H2 5618   5.614   2.157   0.336 -1.6362 -1.1872 -0.3801
 1893TIP3   OH2 5619   7.083   1.246   1.890  0.5093  0.0381  0.3099
 1893TIP3    H1 5620   7.072   1.313   1.958 -3.1697  0.1627 -0.2100
 1893TIP3    H2 5621   7.129   1.290   1.819  0.0089  1.4033  0.8050
 1894TIP3   OH2 5622   7.943   1.670   3.975 -0.2890  0.1346 -0.6306
 1894TIP3    H1 5623   7.862   1.630   4.008  1.0331 -0.7855  1.7675
 1894TIP3    H2 5624   7.922   1.763   3.966 -1.2573  0.1617  1.3605
 1895TIP3   OH2 5625   2.864   1.931   3.412  0.3142  0.0716  0.1755
 1895TIP3    H1 5626   2.832   1.849   3.449  1.6688 -1.3462 -1.6039
 1895TIP3    H2 5627   2.808   1.947   3.336 -0.4412  1.2569  0.9492
 1896TIP3   OH2 5628   7.802   3.662   2.323 -0.3520  0.3719  0.1111
 1896TIP3    H1 5629   7.858   3.584   2.314 -0.6882  0.0548  0.6601
 1896TIP3    H2 5630   7.815   3.690   2.414  1.6239  2.4184 -0.7013
 1897TIP3   OH2 5631   2.819   6.551   3.048 -0.2350  0.0617  0.3550
 1897TIP3    H1 5632   2.847   6.634   3.085 -0.5020  0.2400  0.1552
 1897TIP3    H2 5633   2.726   6.563   3.028 -0.1579 -0.1202 -0.1258
 1898TIP3   OH2 5634   2.749   1.471   3.701 -0.0132  0.4365 -0.7210
 1898TIP3    H1 5635   2.767   1.387   3.742 -1.5168  0.3391 -0.1980
 1898TIP3    H2 5636   2.703   1.521   3.769  1.1390  1.8143 -0.9098
 1899TIP3   OH2 5637   5.988   2.548   4.043  0.0781  0.3399  0.1082
 1899TIP3    H1 5638   5.978   2.566   3.950 -2.3712  1.0341  0.4276
 1899TIP3    H2 5639   6.045   2.618   4.075  2.5213 -0.9742 -1.1129
 1900TIP3   OH2 5640   2.305   6.207   6.873  0.0301 -0.3374  0.8491
 1900TIP3    H1 5641   2.390   6.170   6.847  0.1231 -0.6643  1.6061
 1900TIP3    H2 5642   2.306   6.296   6.838 -0.0050 -0.8768 -0.6154
 1901TIP3   OH2 5643   5.880   3.743   1.865  0.0793 -0.2416 -0.1752
 1901TIP3    H1 5644   5.924   3.718   1.946  0.3525  1.2779  0.1763
 1901TIP3    H2 5645   5.789   3.715   1.877 -0.0939  0.7654  1.0502
 1902TIP3   OH2 5646   1.868   6.953   5.690  0.5342 -0.4456 -0.5472
 1902TIP3    H1 5647   1.936   6.897   5.653  0.1665 -1.4260  0.2302
 1902TIP3    H2 5648   1.842   6.910   5.771 -0.0672  0.6255 -0.1401
 1903TIP3   OH2 5649   0.538   1.216   3.789 -0.5823  0.0750 -0.1872
 1903TIP3    H1 5650   0.533   1.136   3.841 -0.7024 -0.6175 -1.2302
 1903TIP3    H2 5651   0.566   1.186   3.702 -1.7926  1.0058 -0.9300
 1904TIP3   OH2 5652   6.174   3.177   3.262  0.8478  0.2407 -0.0051
 1904TIP3    H1 5653   6.112   3.231   3.213  1.2750  1.3768  0.6724
 1904TIP3    H2 5654   6.260   3.206   3.232  1.0973  0.4004  0.8302
 1905TIP3   OH2 5655   5.744   7.045   6.642 -0.5412  0.1527 -0.3374
 1905TIP3    H1 5656   5.813   7.079   6.585 -1.1978  1.1634 -0.5552
 1905TIP3    H2 5657   5.789   7.024   6.724 -0.3071  3.1845  0.4489
 1906TIP3   OH2 5658   7.722   1.499   2.285  0.0806 -0.3904  0.1854
 1906TIP3    H1 5659   7.804   1.533   2.321 -0.2821  0.0330  0.6361
 1906TIP3    H2 5660   7.683   1.575   2.240 -0.1477 -0.5411  0.1283
 1907TIP3   OH2 5661   5.687   5.007   1.390 -0.0769  0.6052 -0.0672
 1907TIP3    H1 5662   5.611   5.065   1.385 -0.4763 -0.0048 -2.3730
 1907TIP3    H2 5663   5.658   4.927   1.346  1.4290 -0.2004  0.3574
 1908TIP3   OH2 5664   0.231   2.919   2.986  0.2627 -0.5634  0.2050
 1908TIP3    H1 5665   0.160   2.971   2.950 -0.1564  0.0935  1.8814
 1908TIP3    H2 5666   0.308   2.945   2.936 -0.2307  0.5157 -0.0265
 1909TIP3   OH2 5667   4.424   1.699   1.924  0.4679 -0.0365 -0.5483
 1909TIP3    H1 5668   4.390   1.636   1.859 -1.7526  0.5265 -0.0139
 1909TIP3    H2 5669   4.484   1.754   1.874  0.4660 -0.9669 -1.6214
 1910TIP3   OH2 5670   5.711   6.037   4.504  0.4892 -0.5366 -0.1212
 1910TIP3    H1 5671   5.776   6.010   4.439  1.2194  0.0667  0.3425
 1910TIP3    H2 5672   5.722   5.976   4.576  2.0505  0.8322  0.8710
 1911TIP3   OH2 5673   5.173   3.091   6.254  0.3150  0.3345  0.4469
 1911TIP3    H1 5674   5.141   3.170   6.297  0.4705  0.2490  0.7200
 1911TIP3    H2 5675   5.268   3.104   6.248  0.3196  0.2483  0.3287
 1912TIP3   OH2 5676   8.171   7.028   6.604 -0.3122  0.3475  0.0291
 1912TIP3    H1 5677   8.175   7.035   6.508  0.0076 -1.4145 -0.1330
 1912TIP3    H2 5678   8.220   6.947   6.623 -0.5529  0.5633  1.6653
 1913TIP3   OH2 5679   5.654   6.141   5.512 -0.1062 -0.0432  0.3167
 1913TIP3    H1 5680   5.730   6.094   5.478 -1.6943 -2.0144 -0.7577
 1913TIP3    H2 5681   5.613   6.179   5.434 -0.9979 -0.2535  0.6677
 1914TIP3   OH2 5682   7.086   2.532   5.174 -0.3133  0.8834 -0.2347
 1914TIP3    H1 5683   7.131   2.448   5.165  0.2523  1.1033  0.4390
 1914TIP3    H2 5684   7.128   2.573   5.249 -0.8774  1.5888 -0.2997
 1915TIP3   OH2 5685   5.702   7.902   0.688  0.1247  0.0825  0.0367
 1915TIP3    H1 5686   5.631   7.848   0.654 -0.4978  0.6379  0.4382
 1915TIP3    H2 5687   5.764   7.839   0.725 -0.5172 -0.3655  0.3717
 1916TIP3   OH2 5688   3.823   7.606   6.771 -0.5209 -0.1103  0.6958
 1916TIP3    H1 5689   3.793   7.694   6.795  2.4376  1.6824 -1.5077
 1916TIP3    H2 5690   3.885   7.583   6.840  0.2145  0.4661  0.2428
 1917TIP3   OH2 5691   3.261   0.964   4.712  0.6719  0.4926  0.0872
 1917TIP3    H1 5692   3.259   0.944   4.806 -0.8493 -0.3606 -0.0947
 1917TIP3    H2 5693   3.187   0.916   4.676  0.9074  1.2489 -1.4773
 1918TIP3   OH2 5694   5.971   6.477   0.136 -0.2032 -0.2587  0.5215
 1918TIP3    H1 5695   5.940   6.394   0.172 -0.9434 -1.8996 -3.3660
 1918TIP3    H2 5696   6.055   6.456   0.096 -0.9286  0.4710 -1.5383
 1919TIP3   OH2 5697   8.398   5.460   2.394  0.6288  0.1706  0.4493
 1919TIP3    H1 5698   8.429   5.498   2.311 -0.3048  0.5450  0.2550
 1919TIP3    H2 5699   8.384   5.536   2.451 -0.6234  0.0999  0.2784
 1920TIP3   OH2 5700   1.235   5.259   2.623  0.0368 -0.2843  0.5131
 1920TIP3    H1 5701   1.204   5.181   2.576 -0.6640 -0.1476  0.7383
 1920TIP3    H2 5702   1.190   5.332   2.581  1.5786  0.1518 -0.4863
 1921TIP3   OH2 5703   2.098   5.278   1.881 -0.4959 -0.4798 -0.5656
 1921TIP3    H1 5704   2.062   5.359   1.918 -0.1861  0.0403 -1.3721
 1921TIP3    H2 5705   2.187   5.274   1.914 -0.9554 -1.2600  0.6420
 1922TIP3   OH2 5706   2.284   3.915   4.333  0.7142 -0.0314  0.0562
 1922TIP3    H1 5707   2.278   3.820   4.339  0.1906  0.0550  1.0403
 1922TIP3    H2 5708   2.378   3.934   4.338  0.8051 -0.4754  0.0818
 1923TIP3   OH2 5709   6.049   3.869   3.666  0.2500 -0.3235 -0.5376
 1923TIP3    H1 5710   5.985   3.876   3.737  0.0767  0.3557 -0.7609
 1923TIP3    H2 5711   6.114   3.936   3.686  0.8030 -0.8825 -0.4152
 1924TIP3   OH2 5712   1.625   3.572   3.685  0.5674 -0.0331 -0.1692
 1924TIP3    H1 5713   1.670   3.599   3.764 -0.6723  2.5585 -0.2432
 1924TIP3    H2 5714   1.692   3.530   3.631  1.2768 -2.6152  2.4890
 1925TIP3   OH2 5715   5.195   1.631   1.006  0.3001 -0.6889  0.1731
 1925TIP3    H1 5716   5.127   1.593   1.061 -0.5571 -0.7642 -0.9018
 1925TIP3    H2 5717   5.192   1.725   1.024  0.6837 -0.8246  0.9552
 1926TIP3   OH2 5718   1.349   7.431   1.054 -0.4768  0.2414  0.7144
 1926TIP3    H1 5719   1.285   7.499   1.075 -0.6100 -0.2528  1.9778
 1926TIP3    H2 5720   1.304   7.374   0.992 -0.4524  1.1548 -0.1618
 1927TIP3   OH2 5721   1.062   7.592   0.003  0.5197 -0.8419  0.5621
 1927TIP3    H1 5722   1.113   7.518  -0.029  1.9934  0.1779  0.4624
 1927TIP3    H2 5723   1.021   7.559   0.084  1.4011 -1.6592  0.6956
 1928TIP3   OH2 5724   1.249   5.433   4.843  0.3003 -0.1466 -0.0727
 1928TIP3    H1 5725   1.293   5.458   4.762 -2.7976  0.4419 -1.7440
 1928TIP3    H2 5726   1.279   5.497   4.908  1.2839  0.6946 -1.3094
 1929TIP3   OH2 5727   7.006   1.969   3.059  0.0451 -0.0407  0.4617
 1929TIP3    H1 5728   7.060   1.997   3.133  1.5926 -0.0627 -0.6410
 1929TIP3    H2 5729   7.003   1.873   3.067  1.2754 -0.1534 -0.1938
 1930TIP3   OH2 5730   7.018   0.290   6.566 -0.0151 -0.8406 -0.1988
 1930TIP3    H1 5731   7.107   0.262   6.543 -0.3500 -0.7052 -1.8210
 1930TIP3    H2 5732   6.998   0.360   6.503 -0.8424 -0.0372  0.9137
 1931TIP3   OH2 5733   8.394   5.841   4.471 -0.5256 -0.0379  0.3591
 1931TIP3    H1 5734   8.343   5.911   4.431  1.2465  0.9965 -0.2326
 1931TIP3    H2 5735   8.331   5.790   4.521 -2.2358  0.6871 -0.9702
 1932TIP3   OH2 5736   0.671   5.602   3.618 -0.0743 -0.1174  0.3231
 1932TIP3    H1 5737   0.616   5.677   3.638 -0.1237 -0.3064  0.9070
 1932TIP3    H2 5738   0.753   5.641   3.585 -0.3926  0.1694 -0.1378
 1933TIP3   OH2 5739   3.304   5.369   3.041  0.5943  0.0630 -0.4556
 1933TIP3    H1 5740   3.340   5.282   3.022  0.8859 -0.4835  2.1952
 1933TIP3    H2 5741   3.213   5.364   3.009  0.8560 -0.8888 -1.1221
 1934TIP3   OH2 5742   4.901   3.929   1.901 -0.0514 -0.5686 -0.1003
 1934TIP3    H1 5743   4.840   3.998   1.876 -0.4472 -0.3538  1.3851
 1934TIP3    H2 5744   4.980   3.975   1.928 -0.2816 -0.6772  0.8003
 1935TIP3   OH2 5745   2.581   6.267   3.716  0.2048 -0.4787 -0.4372
 1935TIP3    H1 5746   2.639   6.231   3.649  2.6870  0.6301  1.0074
 1935TIP3    H2 5747   2.495   6.231   3.694  1.2483 -1.6413 -3.0879
 1936TIP3   OH2 5748   0.967   4.152   6.648  0.0644  0.0118  0.7127
 1936TIP3    H1 5749   1.059   4.180   6.645 -0.0207  0.2564 -2.2446
 1936TIP3    H2 5750   0.970   4.058   6.630 -0.2388 -0.0133  0.7920
 1937TIP3   OH2 5751   8.365   5.793   3.381 -0.1538 -0.0096  0.4845
 1937TIP3    H1 5752   8.389   5.835   3.298  1.4072  0.5325  1.1655
 1937TIP3    H2 5753   8.311   5.858   3.426 -0.8079 -0.2124  0.0104
 1938TIP3   OH2 5754   8.049   3.874   4.120 -0.1544  0.1518  0.6772
 1938TIP3    H1 5755   8.130   3.822   4.120  0.9475  1.7757 -0.1967
 1938TIP3    H2 5756   8.014   3.864   4.208  1.7137  0.4276  1.4999
 1939TIP3   OH2 5757   2.003   0.909   4.595 -0.0344  0.2249 -0.4094
 1939TIP3    H1 5758   1.908   0.900   4.589 -0.0006 -1.8798  0.9041
 1939TIP3    H2 5759   2.037   0.832   4.549  0.9709  0.1693  0.3883
 1940TIP3   OH2 5760   0.316   5.636   2.348  0.5539  0.4139  0.1967
 1940TIP3    H1 5761   0.285   5.721   2.381 -0.8984 -0.3999  1.0382
 1940TIP3    H2 5762   0.249   5.608   2.286  1.7937  0.5534 -1.2587
 1941TIP3   OH2 5763   2.040   6.205   0.584 -0.8105  0.6094  0.1178
 1941TIP3    H1 5764   1.958   6.216   0.633 -1.7097  2.2942 -1.6379
 1941TIP3    H2 5765   2.013   6.164   0.502  0.2568  0.3304 -0.1012
 1942TIP3   OH2 5766   8.199   7.466   2.967  0.3444 -0.7965  0.5105
 1942TIP3    H1 5767   8.147   7.530   3.016  1.4632  1.8267 -1.5039
 1942TIP3    H2 5768   8.289   7.480   2.996  0.4695 -2.5255  1.0724
 1943TIP3   OH2 5769   8.133   2.756   2.328 -0.4234  0.3216  0.2816
 1943TIP3    H1 5770   8.152   2.775   2.236  0.3038  0.3848  0.4417
 1943TIP3    H2 5771   8.189   2.682   2.349  1.8938  2.2712  1.5469
 1944TIP3   OH2 5772   4.978   0.376   1.432 -0.5458  0.5040 -0.0439
 1944TIP3    H1 5773   4.987   0.415   1.520  0.9767 -1.2182  0.6319
 1944TIP3    H2 5774   5.040   0.425   1.378  2.0236 -1.4006  1.0082
 1945TIP3   OH2 5775   3.235  -0.012   2.647  0.4103 -0.0674 -0.4078
 1945TIP3    H1 5776   3.285   0.056   2.601 -1.5308  1.6568 -0.0805
 1945TIP3    H2 5777   3.277  -0.018   2.732 -0.0977  1.6262 -0.0012
 1946TIP3   OH2 5778   5.641   5.084   1.785 -0.2785 -0.4584 -0.2545
 1946TIP3    H1 5779   5.583   5.158   1.806 -0.3443 -0.3338 -0.8655
 1946TIP3    H2 5780   5.691   5.070   1.866  0.4292  0.8890 -0.4372
 1947TIP3   OH2 5781   7.537   5.493   5.650  0.1188  0.5535 -0.1539
 1947TIP3    H1 5782   7.607   5.520   5.709 -1.1187  3.6421  0.0988
 1947TIP3    H2 5783   7.502   5.575   5.615 -2.3659 -0.9350 -1.4524
 1948TIP3   OH2 5784   5.977   0.109   3.413 -0.3107 -0.5172 -0.2436
 1948TIP3    H1 5785   5.950   0.048   3.345  1.8800 -1.3776 -0.4083
 1948TIP3    H2 5786   6.070   0.093   3.425 -0.0881  1.4098  1.1589
 1949TIP3   OH2 5787   5.645   5.553   0.587  0.6660 -0.2450  0.1994
 1949TIP3    H1 5788   5.561   5.574   0.629  0.6175 -1.3807  0.7193
 1949TIP3    H2 5789   5.706   5.546   0.660  1.4164  1.3206 -0.2287
 1950TIP3   OH2 5790   2.068   5.931   4.255 -0.1009 -0.1932 -0.5376
 1950TIP3    H1 5791   2.048   5.906   4.345 -4.8595  2.0663 -0.6515
 1950TIP3    H2 5792   2.145   5.987   4.261  1.1037 -1.9291  1.6827
 1951TIP3   OH2 5793   4.317   3.647   2.197 -0.6136  0.1095 -0.0999
 1951TIP3    H1 5794   4.262   3.644   2.275  0.8976 -0.9212  0.9749
 1951TIP3    H2 5795   4.295   3.566   2.150  0.2649 -0.5219  0.5523
 1952TIP3   OH2 5796   5.082   5.397   0.933  0.1598  0.2012  0.6110
 1952TIP3    H1 5797   5.149   5.455   0.898 -0.6952  0.8377 -0.0117
 1952TIP3    H2 5798   5.108   5.383   1.024  0.5225  1.3553  0.7011
 1953TIP3   OH2 5799   5.283   0.013   0.096 -0.0881  0.5300 -0.4905
 1953TIP3    H1 5800   5.362  -0.026   0.133 -0.3903 -0.7367 -1.1278
 1953TIP3    H2 5801   5.231   0.039   0.172  0.8285  1.1777 -0.0687
 1954TIP3   OH2 5802   7.495   5.015   1.432 -0.3798 -0.3641  0.0801
 1954TIP3    H1 5803   7.477   5.008   1.526  0.7707  2.1890  0.5937
 1954TIP3    H2 5804   7.421   5.065   1.397  0.6243  1.3930  0.3009
 1955TIP3   OH2 5805   4.026   6.336   0.481  0.8635  0.0332  0.2219
 1955TIP3    H1 5806   4.028   6.267   0.548 -2.2719  1.9458  2.5602
 1955TIP3    H2 5807   3.996   6.292   0.402  2.4994 -1.9009  0.5926
 1956TIP3   OH2 5808   5.408   1.443   2.130 -0.1338 -0.1173  0.3458
 1956TIP3    H1 5809   5.474   1.510   2.113 -0.4148  0.1707  0.3806
 1956TIP3    H2 5810   5.437   1.402   2.211  1.2322 -1.5352 -0.8153
 1957TIP3   OH2 5811   4.075   1.770   4.999 -0.2331  0.2671 -0.3075
 1957TIP3    H1 5812   4.132   1.842   4.970  1.1577 -0.5192  0.3671
 1957TIP3    H2 5813   4.132   1.715   5.052 -2.0682  0.3391  1.8575
 1958TIP3   OH2 5814   0.206   5.126   1.787  0.3805  0.4388 -0.4558
 1958TIP3    H1 5815   0.210   5.073   1.866 -0.6185  1.6368  0.4298
 1958TIP3    H2 5816   0.114   5.150   1.778  0.5725  0.7869 -1.6811
 1959TIP3   OH2 5817   0.949   2.402   1.210 -0.3970 -0.1103  0.5747
 1959TIP3    H1 5818   1.001   2.379   1.287 -1.4972 -0.1085  1.3382
 1959TIP3    H2 5819   0.873   2.345   1.214 -0.3016 -0.3524 -0.7181
 1960TIP3   OH2 5820   4.490   4.998   0.170  0.2886  0.0356  0.1480
 1960TIP3    H1 5821   4.484   4.903   0.178  0.7290  0.0207  0.3014
 1960TIP3    H2 5822   4.581   5.015   0.146  0.3000  0.4398  0.4580
 1961TIP3   OH2 5823   5.882   7.369   4.332  0.4838  0.4598 -0.1570
 1961TIP3    H1 5824   5.890   7.325   4.417  3.7480 -0.0125 -0.5948
 1961TIP3    H2 5825   5.852   7.301   4.272  0.9564  0.0356  0.0809
 1962TIP3   OH2 5826   4.441   2.748   6.361  0.5167 -0.4645  0.3064
 1962TIP3    H1 5827   4.491   2.821   6.325  1.9526 -1.2019  0.7306
 1962TIP3    H2 5828   4.359   2.748   6.312  0.3405  1.6134  0.5220
 1963TIP3   OH2 5829   3.216   0.634   3.969 -0.0532 -0.4106 -0.0639
 1963TIP3    H1 5830   3.306   0.662   3.985  0.4299 -1.2956 -1.0961
 1963TIP3    H2 5831   3.223   0.569   3.899 -1.5843  0.1665 -0.8082
 1964TIP3   OH2 5832   3.610   1.330   0.063 -0.0006 -0.0114 -0.4182
 1964TIP3    H1 5833   3.554   1.378   0.002 -1.3375 -1.5745 -0.4866
 1964TIP3    H2 5834   3.567   1.245   0.074  0.3881  0.0466  2.3998
 1965TIP3   OH2 5835   4.030   6.376   6.013  0.1029  0.1948 -0.1947
 1965TIP3    H1 5836   4.076   6.456   5.987  0.3429  0.2297  0.3377
 1965TIP3    H2 5837   4.018   6.384   6.107  1.6448 -1.1722  0.1691
 1966TIP3   OH2 5838   4.976   6.475   6.213 -0.4232 -0.0518 -0.3463
 1966TIP3    H1 5839   5.068   6.496   6.229 -0.5251  0.7311 -0.7562
 1966TIP3    H2 5840   4.963   6.389   6.255 -0.0715  0.8056  1.6566
 1967TIP3   OH2 5841   3.166   7.803   1.957  0.1596  0.3120 -0.4110
 1967TIP3    H1 5842   3.110   7.727   1.973 -0.7097  1.0391  0.1308
 1967TIP3    H2 5843   3.251   7.767   1.932 -0.2962 -0.8244 -0.3472
 1968TIP3   OH2 5844   6.547   5.584   2.821  0.0069 -0.5054  0.3222
 1968TIP3    H1 5845   6.452   5.593   2.809 -0.0086 -1.2993 -0.2705
 1968TIP3    H2 5846   6.580   5.561   2.733  1.0740  2.1082 -0.0343
 1969TIP3   OH2 5847   5.660   2.502   4.016  0.0200  0.0474  0.8839
 1969TIP3    H1 5848   5.716   2.435   4.056  1.3036  0.9980  0.7302
 1969TIP3    H2 5849   5.581   2.500   4.069  1.2013  0.4385  2.7715
 1970TIP3   OH2 5850   1.095   4.940   3.657 -0.1887 -0.0366 -0.6246
 1970TIP3    H1 5851   1.057   4.863   3.614  2.6008 -0.9606 -1.6629
 1970TIP3    H2 5852   1.189   4.931   3.643  0.3572  2.8019  0.5779
 1971TIP3   OH2 5853   5.545   4.454   5.532 -0.1367 -0.5460  0.3814
 1971TIP3    H1 5854   5.489   4.520   5.491  1.2922 -0.2495 -1.1882
 1971TIP3    H2 5855   5.507   4.371   5.504 -0.1944 -0.3606 -0.0973
 1972TIP3   OH2 5856   8.249   4.693   0.533  0.6430  0.6272 -0.4234
 1972TIP3    H1 5857   8.345   4.697   0.541  0.7096 -1.2790  0.2417
 1972TIP3    H2 5858   8.217   4.747   0.606  1.2296  0.1254  0.2211
 1973TIP3   OH2 5859   2.227   4.493   5.645  0.2241 -0.3704  0.1532
 1973TIP3    H1 5860   2.245   4.513   5.737 -1.8271  0.0847  0.4958
 1973TIP3    H2 5861   2.225   4.578   5.602  0.0792 -0.5058 -0.1068
 1974TIP3   OH2 5862   1.416   7.873   5.282  0.3728 -0.0333 -0.4017
 1974TIP3    H1 5863   1.479   7.929   5.328 -1.0979  0.5458  1.0090
 1974TIP3    H2 5864   1.470   7.818   5.225  2.0707  1.0325  0.1059
 1975TIP3   OH2 5865   0.543   1.313   3.254 -0.1681  0.3360  0.3087
 1975TIP3    H1 5866   0.550   1.403   3.223 -1.0769  0.4468  0.4010
 1975TIP3    H2 5867   0.625   1.271   3.226 -0.9631  0.3952 -2.3895
 1976TIP3   OH2 5868   3.335   4.098   1.081 -0.1984 -0.2441  0.1190
 1976TIP3    H1 5869   3.333   4.171   1.142 -1.0262 -0.6428  0.5855
 1976TIP3    H2 5870   3.244   4.074   1.069  0.0645 -1.3498  0.1715
 1977TIP3   OH2 5871   4.536   6.065   4.301 -0.1249 -0.6002  0.4911
 1977TIP3    H1 5872   4.517   6.094   4.390  0.7126  0.3405  0.3859
 1977TIP3    H2 5873   4.450   6.055   4.260 -0.5637 -1.8091  1.6102
 1978TIP3   OH2 5874   5.230   4.986   0.400  0.1804  0.6000 -0.1056
 1978TIP3    H1 5875   5.266   5.040   0.471  1.3527  0.2031 -0.3759
 1978TIP3    H2 5876   5.199   4.907   0.443 -0.3312  0.9153  0.1204
 1979TIP3   OH2 5877   2.077   6.414   2.080  0.4127  0.2451  0.3668
 1979TIP3    H1 5878   1.997   6.436   2.127  1.3771  0.6316  1.9017
 1979TIP3    H2 5879   2.110   6.497   2.048 -0.6139 -0.0914 -1.7168
 1980TIP3   OH2 5880   3.617   7.582   2.946  0.5860  0.2480 -0.5041
 1980TIP3    H1 5881   3.604   7.622   2.860 -1.3723  0.2041 -0.2833
 1980TIP3    H2 5882   3.623   7.657   3.006 -1.6421  0.3080 -0.2736
 1981TIP3   OH2 5883   6.290   4.557   6.288 -0.0282  0.2038 -0.4973
 1981TIP3    H1 5884   6.227   4.617   6.249 -0.1623 -0.0116 -0.6143
 1981TIP3    H2 5885   6.348   4.532   6.217  1.9516  2.5599  0.1382
 1982TIP3   OH2 5886   4.391   7.556   2.378  0.0282 -0.7867 -0.5860
 1982TIP3    H1 5887   4.422   7.477   2.332  1.3550  0.2929 -1.6246
 1982TIP3    H2 5888   4.359   7.613   2.308 -0.2364 -0.1033  0.0832
 1983TIP3   OH2 5889   1.914   5.301   0.742 -0.3127  0.2319  0.5182
 1983TIP3    H1 5890   1.893   5.223   0.691  0.3985 -0.6227  1.4931
 1983TIP3    H2 5891   1.926   5.370   0.677  1.4540 -1.0174 -0.5550
 1984TIP3   OH2 5892   0.666   5.334   3.610  0.1929 -0.4861  0.1408
 1984TIP3    H1 5893   0.666   5.429   3.610 -1.0135 -0.3761 -2.7241
 1984TIP3    H2 5894   0.687   5.310   3.519  2.8806 -3.0485  1.2675
 1985TIP3   OH2 5895   6.107   4.995   6.793 -0.3862 -0.4326 -0.3505
 1985TIP3    H1 5896   6.056   5.015   6.872 -0.5264  1.9984 -0.9857
 1985TIP3    H2 5897   6.195   4.978   6.825 -0.0225  2.2484  0.2613
 1986TIP3   OH2 5898   3.376   6.639   2.113 -0.2120 -0.7889  0.1173
 1986TIP3    H1 5899   3.437   6.679   2.052 -0.2882 -0.6194  0.1528
 1986TIP3    H2 5900   3.407   6.549   2.122  0.2383 -0.6071  0.4005
 1987TIP3   OH2 5901   3.223   0.377   0.419 -0.3292 -0.4136 -0.3624
 1987TIP3    H1 5902   3.271   0.319   0.479 -0.0570  2.0375  1.9732
 1987TIP3    H2 5903   3.133   0.374   0.451 -0.4261  0.0130 -0.5953
 1988TIP3   OH2 5904   4.708   0.702   4.933 -0.1718  0.1545 -0.4781
 1988TIP3    H1 5905   4.773   0.750   4.985  1.1681 -0.0443 -1.9069
 1988TIP3    H2 5906   4.640   0.678   4.996  1.2445  0.1815  1.1284
 1989TIP3   OH2 5907   3.407   2.804   2.409 -0.3429  0.1044 -0.2425
 1989TIP3    H1 5908   3.435   2.893   2.431 -1.3507  0.5347 -0.6538
 1989TIP3    H2 5909   3.363   2.772   2.487  0.2152 -0.1235 -0.0168
 1990TIP3   OH2 5910   6.148   5.008   6.245 -0.2341 -0.1806  0.3823
 1990TIP3    H1 5911   6.195   4.974   6.321  0.1913 -1.9044 -0.6191
 1990TIP3    H2 5912   6.190   5.092   6.227  0.2296 -0.1518  1.5103
 1991TIP3   OH2 5913   0.017   4.418   1.185  0.3384  0.4748  0.5846
 1991TIP3    H1 5914  -0.022   4.419   1.272 -0.3618  0.1873  0.2847
 1991TIP3    H2 5915   0.056   4.331   1.177  2.4459  1.2705  1.4643
 1992TIP3   OH2 5916   0.328   4.457   6.557 -0.0449 -0.0393 -0.4296
 1992TIP3    H1 5917   0.331   4.508   6.638  1.9302  1.2092 -1.2343
 1992TIP3    H2 5918   0.399   4.393   6.566 -0.0698 -0.1544 -0.9998
 1993TIP3   OH2 5919   7.345   0.992   5.045  0.4691  0.2558 -0.4917
 1993TIP3    H1 5920   7.401   1.007   5.121 -0.6043  2.0105  0.0084
 1993TIP3    H2 5921   7.276   1.058   5.053 -1.3919 -1.4801 -1.3400
 1994TIP3   OH2 5922   2.355   4.837   3.667  0.0830 -0.4002  1.1417
 1994TIP3    H1 5923   2.348   4.742   3.677 -1.5061 -0.2241  2.0267
 1994TIP3    H2 5924   2.428   4.850   3.607  0.4484 -2.1742  1.1677
 1995TIP3   OH2 5925   7.641   2.292   1.456 -0.4897 -0.5666 -0.0957
 1995TIP3    H1 5926   7.646   2.227   1.385  0.5955 -0.8068  0.1799
 1995TIP3    H2 5927   7.669   2.244   1.534 -1.5068 -0.2560  0.4761
 1996TIP3   OH2 5928   2.396   1.081   6.634  0.2356  0.0469  1.0790
 1996TIP3    H1 5929   2.334   1.075   6.706 -2.0697 -0.6237 -0.8509
 1996TIP3    H2 5930   2.350   1.043   6.559  2.6614  0.3490 -0.6805
 1997TIP3   OH2 5931   0.876   0.190   1.638 -0.0631 -0.0921  0.6362
 1997TIP3    H1 5932   0.939   0.154   1.576 -0.9025  1.7657 -1.4153
 1997TIP3    H2 5933   0.843   0.269   1.596 -0.7311  1.2650  3.4619
 1998TIP3   OH2 5934   6.979   3.587   0.992 -0.7402 -0.0899  0.4780
 1998TIP3    H1 5935   6.975   3.677   1.024 -0.1691 -0.1492  0.7324
 1998TIP3    H2 5936   7.035   3.591   0.914 -1.5365 -0.0654 -0.1068
 1999TIP3   OH2 5937   6.981   5.684   0.906 -1.1437  0.2252  0.5250
 1999TIP3    H1 5938   7.075   5.699   0.908 -1.2997  1.2223  1.0331
 1999TIP3    H2 5939   6.945   5.749   0.966 -2.3046  1.0287 -0.9817
 2000TIP3   OH2 5940   4.771   1.094   2.091 -0.3061 -0.2742  0.6299
 2000TIP3    H1 5941   4.783   1.011   2.138 -2.3755 -0.7442  0.4006
 2000TIP3    H2 5942   4.804   1.160   2.152  0.0178 -1.1354  1.4147
 2001TIP3   OH2 5943   3.063   1.473   0.302 -0.4015 -0.2693  0.1837
 2001TIP3    H1 5944   3.095   1.434   0.383 -0.1780  1.3323  0.9058
 2001TIP3    H2 5945   3.033   1.561   0.327  1.4587  1.0363 -1.7574
 2002TIP3   OH2 5946   7.376   7.486   2.141 -0.2583 -0.1183  0.3486
 2002TIP3    H1 5947   7.364   7.537   2.220 -0.6296  1.2620 -0.5556
 2002TIP3    H2 5948   7.459   7.516   2.104  1.2215 -2.5289  1.4288
 2003TIP3   OH2 5949   8.112   0.531   1.116  0.0286 -0.3226 -0.0208
 2003TIP3    H1 5950   8.056   0.606   1.136 -0.1109 -0.7496  1.3215
 2003TIP3    H2 5951   8.052   0.456   1.113  0.4303 -0.6970  0.8533
 2004TIP3   OH2 5952   6.614   0.526   5.698 -0.0347 -0.1917  0.2056
 2004TIP3    H1 5953   6.562   0.525   5.618 -0.4113 -0.2917  0.4454
 2004TIP3    H2 5954   6.556   0.489   5.765 -0.0093  0.6223  0.6945
 2005TIP3   OH2 5955   1.623   7.381   2.971  0.5562 -0.6381  0.3461
 2005TIP3    H1 5956   1.576   7.301   2.995  0.0466  0.6068  4.3373
 2005TIP3    H2 5957   1.709   7.350   2.943 -0.5098 -2.6636 -0.9581
 2006TIP3   OH2 5958   8.150   0.333   5.811  0.1475  0.1155  0.7516
 2006TIP3    H1 5959   8.101   0.365   5.886  0.4267 -0.2055  1.0745
 2006TIP3    H2 5960   8.087   0.332   5.739 -0.4095 -0.6432  1.2491
 2007TIP3   OH2 5961   8.119   7.034   1.660  0.3388 -0.3482 -0.1254
 2007TIP3    H1 5962   8.191   6.979   1.631  0.2838  0.0340 -1.0460
 2007TIP3    H2 5963   8.126   7.113   1.606 -0.0439  0.2136  0.6200
 2008TIP3   OH2 5964   3.022   6.798   0.607  0.0493  0.7224 -0.2688
 2008TIP3    H1 5965   3.041   6.745   0.685 -0.0777  0.3770 -0.4711
 2008TIP3    H2 5966   2.935   6.768   0.579 -0.6843  2.0653  0.4699
 2009TIP3   OH2 5967   4.054   1.877   1.134  0.6140 -0.3810  0.4785
 2009TIP3    H1 5968   4.099   1.873   1.049  0.6681 -0.0946  0.4916
 2009TIP3    H2 5969   4.054   1.970   1.156 -0.9315 -0.2254 -0.0364
 2010TIP3   OH2 5970   2.075   2.092   3.805  0.0741  0.0520  0.0379
 2010TIP3    H1 5971   2.018   2.072   3.879 -0.3182 -0.9734 -0.5157
 2010TIP3    H2 5972   2.016   2.095   3.730  0.8705 -2.2944 -0.7541
 2011TIP3   OH2 5973   0.694   7.720   3.412  0.4922 -0.4146  0.3381
 2011TIP3    H1 5974   0.747   7.640   3.407  1.3028  0.0750  0.9554
 2011TIP3    H2 5975   0.617   7.700   3.358  1.7918 -0.7608 -1.5066
 2012TIP3   OH2 5976   2.879   2.938   6.432 -0.9209 -0.3048  0.1204
 2012TIP3    H1 5977   2.786   2.918   6.438 -0.8754 -0.0611  1.9949
 2012TIP3    H2 5978   2.913   2.922   6.520  1.2742 -2.5939 -1.0128
 2013TIP3   OH2 5979   1.923   4.623   2.281  0.0666 -0.4145  0.2094
 2013TIP3    H1 5980   1.838   4.656   2.312  0.9695  2.3016  0.0493
 2013TIP3    H2 5981   1.984   4.643   2.352  0.5218 -3.0579  0.6593
 2014TIP3   OH2 5982   7.932   3.128   0.760  0.1555  0.0681 -0.4200
 2014TIP3    H1 5983   7.958   3.212   0.799  0.8583  0.6552 -2.0616
 2014TIP3    H2 5984   7.987   3.063   0.803  1.5992  0.8180 -1.1011
 2015TIP3   OH2 5985   3.494   7.727   3.177 -0.4964 -0.3349  0.0092
 2015TIP3    H1 5986   3.447   7.759   3.100 -0.0334  0.2344 -0.0440
 2015TIP3    H2 5987   3.582   7.764   3.168 -0.2457 -0.8118  0.4677
 2016TIP3   OH2 5988   6.073   0.991   6.670 -0.4003  0.3325 -0.4357
 2016TIP3    H1 5989   6.003   1.039   6.714 -0.1686  1.2413 -1.0535
 2016TIP3    H2 5990   6.146   1.052   6.666  0.1297 -0.3028 -0.6284
 2017TIP3   OH2 5991   0.224   0.040   0.352  0.3564 -0.1173  0.6824
 2017TIP3    H1 5992   0.161  -0.030   0.368  0.7729 -0.1766  2.1854
 2017TIP3    H2 5993   0.307   0.007   0.386  1.1934  0.0471 -1.0743
 2018TIP3   OH2 5994   0.521   6.804   6.163 -0.1367  0.4403  0.3594
 2018TIP3    H1 5995   0.529   6.708   6.159 -0.1210  0.4456  0.2582
 2018TIP3    H2 5996   0.611   6.835   6.176 -0.3622  0.3421  2.4908
 2019TIP3   OH2 5997   5.824   0.451   6.433 -0.0102 -0.1179 -0.1736
 2019TIP3    H1 5998   5.849   0.464   6.525 -1.2779  0.5133  0.1061
 2019TIP3    H2 5999   5.753   0.514   6.419 -0.3132 -0.7132 -1.3773
 2020TIP3   OH2 6000   5.453   0.906   5.726 -0.0076 -0.4590 -0.5305
 2020TIP3    H1 6001   5.462   0.812   5.709  1.1518 -0.3096 -0.8381
 2020TIP3    H2 6002   5.467   0.915   5.820  0.0647 -0.5807 -0.5299
 2021TIP3   OH2 6003   5.902   3.035   3.400  0.0879  0.0436  0.4437
 2021TIP3    H1 6004   5.904   3.115   3.348  0.5087  1.2609  2.2608
 2021TIP3    H2 6005   5.964   2.976   3.355 -0.2040  0.7177 -0.8902
 2022TIP3   OH2 6006   1.783   5.534   3.137  0.0288 -0.2661 -0.1254
 2022TIP3    H1 6007   1.760   5.566   3.050  1.5536  1.6477  0.1234
 2022TIP3    H2 6008   1.865   5.579   3.159 -0.7519 -0.0131  2.6524
 2023TIP3   OH2 6009   0.248   3.991   6.530 -0.4611 -0.2781  0.4400
 2023TIP3    H1 6010   0.197   3.936   6.590  0.7527 -2.6711 -0.5939
 2023TIP3    H2 6011   0.336   3.952   6.531  0.2138  1.0943 -1.0899
 2024TIP3   OH2 6012   8.127   2.991   2.482  0.2738  0.3414  0.0204
 2024TIP3    H1 6013   8.146   2.900   2.461  0.8467  0.2881  0.7261
 2024TIP3    H2 6014   8.152   3.000   2.573  0.7724  1.3549 -0.2042
 2025TIP3   OH2 6015   4.314   3.547   6.024  0.1616  0.2653  0.2279
 2025TIP3    H1 6016   4.306   3.565   5.930  0.4328  0.6796  0.2832
 2025TIP3    H2 6017   4.235   3.497   6.045  0.1731  0.0363 -0.2513
 2026TIP3   OH2 6018   4.594   2.477   1.123  0.1666  0.3910  0.4330
 2026TIP3    H1 6019   4.666   2.454   1.181 -0.4432  0.1975  1.1377
 2026TIP3    H2 6020   4.636   2.500   1.040  0.9875 -0.4007  0.6090
 2027TIP3   OH2 6021   1.968   5.870   3.382 -0.4799  0.0186  0.1361
 2027TIP3    H1 6022   2.061   5.852   3.394 -0.5368 -0.0755  0.4399
 2027TIP3    H2 6023   1.953   5.856   3.288 -0.1719  0.1170  0.0711
 2028TIP3   OH2 6024   7.274   0.078   0.809  0.4216 -0.0958  0.1276
 2028TIP3    H1 6025   7.352   0.035   0.773  1.5446  1.3565  0.7073
 2028TIP3    H2 6026   7.287   0.170   0.789 -1.3460  0.1387 -0.0515
 2029TIP3   OH2 6027   0.353   6.710   3.102  0.0113 -0.4015 -0.2456
 2029TIP3    H1 6028   0.320   6.799   3.114  1.0898 -0.1420  1.1202
 2029TIP3    H2 6029   0.276   6.658   3.079 -0.3431  1.2094 -3.1842
 2030TIP3   OH2 6030   5.947   2.593   1.081 -0.5652  0.2626 -0.3093
 2030TIP3    H1 6031   6.026   2.644   1.064 -0.1518 -0.2134  0.1699
 2030TIP3    H2 6032   5.877   2.658   1.083 -0.0443  0.8168  0.3196
 2031TIP3   OH2 6033   4.529   0.493   4.126  0.0541  0.2073 -0.5237
 2031TIP3    H1 6034   4.462   0.535   4.072  0.5237  2.3782  0.4836
 2031TIP3    H2 6035   4.598   0.560   4.135  1.9853 -1.6382 -0.8266
 2032TIP3   OH2 6036   4.561   3.157   1.884 -0.3045 -0.0822 -0.0782
 2032TIP3    H1 6037   4.600   3.137   1.969  2.1366 -0.3370 -1.1849
 2032TIP3    H2 6038   4.480   3.105   1.883 -1.1982  1.0633  2.6171
 2033TIP3   OH2 6039   4.796   4.141   2.501  0.5545 -0.3016  0.0845
 2033TIP3    H1 6040   4.762   4.228   2.522  1.0527 -0.2209  0.5769
 2033TIP3    H2 6041   4.869   4.128   2.562  0.2765 -1.2039  0.2362
 2034TIP3   OH2 6042   3.281   1.089   3.798 -0.7040  0.4954  0.2368
 2034TIP3    H1 6043   3.361   1.053   3.838 -1.1239  1.2065  1.8141
 2034TIP3    H2 6044   3.306   1.108   3.708  0.9892  0.9283  0.7524
 2035TIP3   OH2 6045   0.302   2.018   2.487 -0.6428 -0.2870 -0.0958
 2035TIP3    H1 6046   0.383   1.968   2.498  0.4720  1.5115  0.3215
 2035TIP3    H2 6047   0.244   1.986   2.556  0.5822 -0.0157  1.1090
 2036TIP3   OH2 6048   3.861   5.041   1.697  0.1311  0.2169  0.1319
 2036TIP3    H1 6049   3.789   5.003   1.747 -0.7299  1.0413 -0.4462
 2036TIP3    H2 6050   3.887   5.118   1.748  1.2635 -0.5929  0.8302
 2037TIP3   OH2 6051   5.682   1.369   3.046 -0.1519 -0.1259  0.4352
 2037TIP3    H1 6052   5.653   1.384   3.136 -0.5674 -0.4030  0.3501
 2037TIP3    H2 6053   5.774   1.397   3.045 -0.1723 -0.0373  0.9210
 2038TIP3   OH2 6054   0.394   7.344   3.559 -0.0236 -0.0968 -0.0334
 2038TIP3    H1 6055   0.408   7.433   3.590 -1.4793  0.3977 -0.7246
 2038TIP3    H2 6056   0.299   7.335   3.550  0.1888 -0.6921 -2.7913
 2039TIP3   OH2 6057   5.351   0.033   4.429  0.5342  0.4194 -0.3055
 2039TIP3    H1 6058   5.435   0.047   4.473  0.1472  0.5831  0.3964
 2039TIP3    H2 6059   5.361   0.077   4.344  2.3174 -2.2903 -1.6560
 2040TIP3   OH2 6060   0.447   5.497   3.184  0.1701  0.0639  0.1317
 2040TIP3    H1 6061   0.476   5.482   3.094  0.3623  0.9285  0.0365
 2040TIP3    H2 6062   0.352   5.492   3.180  0.1960 -0.3129 -0.0396
 2041TIP3   OH2 6063   5.043   6.383   4.076  0.0220 -0.2386  0.3895
 2041TIP3    H1 6064   5.024   6.370   4.169 -0.3933 -1.0707  0.1970
 2041TIP3    H2 6065   5.001   6.466   4.054 -0.0235 -0.1250  0.9088
 2042TIP3   OH2 6066   1.462   5.338   1.109  0.7918 -0.9478 -0.0259
 2042TIP3    H1 6067   1.463   5.421   1.157 -0.8388 -1.6130  1.2596
 2042TIP3    H2 6068   1.397   5.285   1.154 -0.0176 -2.0466 -2.3092
 2043TIP3   OH2 6069   4.120   0.966   4.510  0.1377 -0.0905 -0.2637
 2043TIP3    H1 6070   4.186   1.029   4.541 -2.0768  2.8725 -1.1176
 2043TIP3    H2 6071   4.146   0.947   4.420  0.1048  0.7189 -0.4532
 2044TIP3   OH2 6072   0.738   0.143   2.192 -0.1224  0.4142  0.2091
 2044TIP3    H1 6073   0.695   0.075   2.244  0.0194 -0.1628 -0.4057
 2044TIP3    H2 6074   0.668   0.203   2.168 -0.1565  0.7801  1.2046
 2045TIP3   OH2 6075   0.240   6.774   6.231  0.3373  0.3246 -0.5088
 2045TIP3    H1 6076   0.225   6.719   6.154  1.4505 -0.7891  0.0393
 2045TIP3    H2 6077   0.330   6.806   6.220  0.2573  0.7329 -0.0195
 2046TIP3   OH2 6078   6.434   7.569   2.857  0.1958 -0.4684  0.3423
 2046TIP3    H1 6079   6.474   7.652   2.830 -1.7283  0.2574 -0.4300
 2046TIP3    H2 6080   6.389   7.537   2.779  0.4411 -1.9828  0.7857
 2047TIP3   OH2 6081   6.576   4.860   0.411 -0.4543  0.0314  0.2060
 2047TIP3    H1 6082   6.646   4.923   0.432 -0.5616  0.3350 -0.3481
 2047TIP3    H2 6083   6.498   4.898   0.450 -0.5641  0.3644 -0.3279
 2048TIP3   OH2 6084   6.793   3.733   6.415 -0.0233  0.4970  0.0100
 2048TIP3    H1 6085   6.769   3.648   6.452  2.3579 -0.1047  0.3160
 2048TIP3    H2 6086   6.860   3.767   6.474 -0.2532  2.1599 -0.6434
 2049TIP3   OH2 6087   7.681   1.058   6.497  0.0224  0.2960 -0.1586
 2049TIP3    H1 6088   7.660   1.130   6.556 -0.9246 -1.5697  1.9461
 2049TIP3    H2 6089   7.766   1.027   6.526  0.3608  0.4672 -0.9515
 2050TIP3   OH2 6090   2.689   1.809   4.230 -0.1836  0.6388 -0.5692
 2050TIP3    H1 6091   2.683   1.719   4.197 -0.1151  0.2757  0.3697
 2050TIP3    H2 6092   2.764   1.846   4.183  0.8904 -0.3659  0.2794
 2051TIP3   OH2 6093   2.517   0.120   3.710 -0.3302  0.7423  0.8537
 2051TIP3    H1 6094   2.477   0.115   3.623  0.8962 -0.4699  0.3279
 2051TIP3    H2 6095   2.446   0.095   3.769 -0.5775 -0.7072  0.0020
 2052TIP3   OH2 6096   7.008   2.075   2.037 -0.0963 -0.1617  0.3804
 2052TIP3    H1 6097   6.926   2.027   2.031  0.1585 -0.5028 -0.5111
 2052TIP3    H2 6098   7.047   2.047   2.120 -1.5031  1.0253  1.4952
 2053TIP3   OH2 6099   2.055   3.215   6.572  0.1634 -0.3018 -0.2465
 2053TIP3    H1 6100   2.107   3.146   6.531  0.2757 -0.2121 -0.2559
 2053TIP3    H2 6101   2.059   3.195   6.666  0.4151 -0.1564 -0.2272
 2054TIP3   OH2 6102   5.967   2.121   4.189  0.0176  0.9581 -0.1899
 2054TIP3    H1 6103   5.991   2.182   4.259 -1.8926  1.2084  0.3089
 2054TIP3    H2 6104   5.877   2.096   4.209  0.0889 -0.4896 -1.5000
 2055TIP3   OH2 6105   5.924   5.974   6.417 -0.5772 -0.5744 -0.0937
 2055TIP3    H1 6106   5.946   5.920   6.493 -1.0648 -0.8710 -0.1551
 2055TIP3    H2 6107   6.001   6.028   6.402 -0.0884 -1.2363 -0.0100
 2056TIP3   OH2 6108   4.135   1.417   0.032  0.7679 -0.7701 -0.1902
 2056TIP3    H1 6109   4.127   1.322   0.040 -0.1447 -0.6336  0.7125
 2056TIP3    H2 6110   4.198   1.429  -0.038  1.0487 -2.0459 -0.1916
 2057TIP3   OH2 6111   2.346   2.968   0.445 -0.1349 -0.1379  0.1653
 2057TIP3    H1 6112   2.374   2.973   0.354 -0.5841  0.9248  0.0739
 2057TIP3    H2 6113   2.364   3.055   0.480 -2.6336  0.3921  0.2960
 2058TIP3   OH2 6114   0.324   5.313   2.252 -0.2440  0.5617  0.2834
 2058TIP3    H1 6115   0.324   5.362   2.335  0.3624  1.6736 -0.3538
 2058TIP3    H2 6116   0.256   5.356   2.200 -1.4673 -0.8998  0.6123
 2059TIP3   OH2 6117   7.205   5.904   0.131 -0.1299 -0.2404  0.0319
 2059TIP3    H1 6118   7.147   5.833   0.160  0.4155 -0.3856  0.7981
 2059TIP3    H2 6119   7.146   5.978   0.116 -0.3573  0.2096  2.6965
 2060TIP3   OH2 6120   1.480   5.146   2.391 -0.1209 -0.1382 -0.4917
 2060TIP3    H1 6121   1.460   5.226   2.341  0.8018 -0.6795 -1.7763
 2060TIP3    H2 6122   1.498   5.080   2.324  0.1367 -1.1705  0.5691
 2061TIP3   OH2 6123   1.512   2.543   5.644  0.2733  0.0744 -0.7886
 2061TIP3    H1 6124   1.556   2.461   5.667 -1.3700  0.0929  3.1293
 2061TIP3    H2 6125   1.558   2.610   5.694 -1.0968  0.8541 -0.5436
 2062TIP3   OH2 6126   5.453   4.958   6.648 -0.3188  0.0576 -0.2031
 2062TIP3    H1 6127   5.454   4.863   6.645 -2.5477 -0.0296 -0.2807
 2062TIP3    H2 6128   5.519   4.982   6.712 -1.6252 -1.7182  1.9343
 2063TIP3   OH2 6129   2.781   7.025   3.158 -0.0621 -0.3751 -0.1835
 2063TIP3    H1 6130   2.824   7.076   3.226  1.8024 -0.8723 -0.9367
 2063TIP3    H2 6131   2.813   7.063   3.076 -0.3078 -1.3836 -0.7573
 2064TIP3   OH2 6132   7.856   0.765   3.323 -0.0891 -0.3699 -0.1348
 2064TIP3    H1 6133   7.897   0.782   3.239  0.2544 -0.6766 -0.0311
 2064TIP3    H2 6134   7.929   0.744   3.382 -0.2095  0.9665  0.5285
 2065TIP3   OH2 6135   4.478   4.602   1.871 -0.3838 -0.0747 -0.2676
 2065TIP3    H1 6136   4.438   4.680   1.833 -1.5061 -0.6492 -0.3133
 2065TIP3    H2 6137   4.563   4.595   1.826  0.9388  2.5208  1.5717
 2066TIP3   OH2 6138   0.919   5.561   0.327  0.0986  0.1441  0.3804
 2066TIP3    H1 6139   0.870   5.491   0.371  0.0501 -0.0690 -0.0082
 2066TIP3    H2 6140   0.890   5.641   0.370  0.0240 -0.0593  0.7117
 2067TIP3   OH2 6141   2.706   3.119   1.237 -0.0140  0.1572 -0.3333
 2067TIP3    H1 6142   2.614   3.113   1.265 -0.1902 -2.9906 -1.2559
 2067TIP3    H2 6143   2.701   3.138   1.143  0.3630  1.5307 -0.0959
 2068TIP3   OH2 6144   3.007   4.026   4.637  0.0694  0.1745  0.2790
 2068TIP3    H1 6145   2.950   4.065   4.571 -0.2076 -0.6121  0.0420
 2068TIP3    H2 6146   3.088   4.076   4.631 -0.2410  0.6419 -0.0907
 2069TIP3   OH2 6147   3.897   4.957   1.288  0.3289 -0.0317 -0.3278
 2069TIP3    H1 6148   3.953   4.973   1.365  0.7177  1.3220 -0.8592
 2069TIP3    H2 6149   3.819   5.010   1.304 -0.0749 -0.6076 -0.3690
 2070TIP3   OH2 6150   6.179   7.222   3.834  0.5540 -0.4851 -0.3962
 2070TIP3    H1 6151   6.177   7.318   3.829 -2.2763 -0.3371  1.5619
 2070TIP3    H2 6152   6.246   7.203   3.900 -0.7964  0.3720  1.3098
 2071TIP3   OH2 6153   5.631   7.765   4.632  0.3855  0.3836 -0.0810
 2071TIP3    H1 6154   5.725   7.776   4.643  0.2292  1.7597  0.1067
 2071TIP3    H2 6155   5.612   7.804   4.547 -0.1539  1.1473  0.3715
 2072TIP3   OH2 6156   3.404   2.638   5.285 -0.5307  0.0530  0.0084
 2072TIP3    H1 6157   3.357   2.637   5.202 -0.0267  2.2243 -0.3610
 2072TIP3    H2 6158   3.494   2.615   5.262 -0.9186 -2.2050  0.4426
 2073TIP3   OH2 6159   8.407   7.471   0.736 -0.3802 -0.1787 -0.4025
 2073TIP3    H1 6160   8.462   7.503   0.664  2.7370 -0.7445  1.5127
 2073TIP3    H2 6161   8.319   7.503   0.715  0.7134  1.2796 -3.4373
 2074TIP3   OH2 6162   1.847   1.652   0.616  0.0157  0.5524  0.5620
 2074TIP3    H1 6163   1.801   1.588   0.561  1.6308 -0.6550  0.5616
 2074TIP3    H2 6164   1.833   1.736   0.571 -1.8669  0.1939  0.3934
 2075TIP3   OH2 6165   6.049   5.671   1.648  0.7213 -0.5563 -0.2900
 2075TIP3    H1 6166   6.040   5.763   1.620 -0.3927 -1.1980 -2.2802
 2075TIP3    H2 6167   6.143   5.654   1.644  0.8147  0.1033 -1.3080
 2076TIP3   OH2 6168   3.983   3.889   4.589  0.3922  0.6289  0.2473
 2076TIP3    H1 6169   4.051   3.841   4.542 -1.0024 -2.0194  0.7649
 2076TIP3    H2 6170   4.025   3.915   4.672  1.0468 -0.1080  0.1579
 2077TIP3   OH2 6171   5.728   1.904   1.131 -0.3502  0.0126 -0.4020
 2077TIP3    H1 6172   5.785   1.940   1.064 -0.9017 -0.5791 -1.2141
 2077TIP3    H2 6173   5.785   1.887   1.206  0.2053  1.0225 -0.5832
 2078TIP3   OH2 6174   6.437   3.613   2.414 -0.3105 -0.9173  0.2221
 2078TIP3    H1 6175   6.427   3.562   2.495 -0.6593 -1.9595 -0.4672
 2078TIP3    H2 6176   6.433   3.704   2.443 -0.6172 -1.2772  1.3606
 2079TIP3   OH2 6177   0.473   6.650   4.074  0.7807 -0.0577  0.3814
 2079TIP3    H1 6178   0.563   6.644   4.044  1.0079  1.4025  0.6910
 2079TIP3    H2 6179   0.466   6.737   4.112 -0.6995 -0.2343  0.5865
 2080TIP3   OH2 6180   1.551   7.612   5.529 -0.2029 -0.1381 -0.2370
 2080TIP3    H1 6181   1.568   7.597   5.622 -0.3869 -0.1695 -0.2072
 2080TIP3    H2 6182   1.570   7.705   5.516  0.1063 -0.1989 -0.2325
 2081TIP3   OH2 6183   5.599   6.758   5.561  0.5184  0.1994 -0.7759
 2081TIP3    H1 6184   5.615   6.829   5.622 -1.4335 -0.2870  0.3984
 2081TIP3    H2 6185   5.685   6.737   5.525  1.9371 -0.0601  2.4610
 2082TIP3   OH2 6186   0.138   4.758   3.022 -0.3960 -0.8666 -0.3763
 2082TIP3    H1 6187   0.219   4.748   2.973  0.8593  1.5678  1.0195
 2082TIP3    H2 6188   0.102   4.841   2.992 -0.7978 -0.4713  1.1227
 2083TIP3   OH2 6189   8.267   0.727   6.291  0.2133  0.0540 -0.1218
 2083TIP3    H1 6190   8.323   0.742   6.367  0.3737  0.1997 -0.2673
 2083TIP3    H2 6191   8.245   0.634   6.295  1.6812 -0.3537 -0.8825
 2084TIP3   OH2 6192   8.261   6.244   3.170 -0.6292 -0.2213 -0.4710
 2084TIP3    H1 6193   8.270   6.258   3.075 -0.9561 -1.0866 -0.6397
 2084TIP3    H2 6194   8.166   6.236   3.184 -0.6544  0.8833  0.0866
 2085TIP3   OH2 6195   3.086   7.335   3.819  0.2175  0.6595  0.6112
 2085TIP3    H1 6196   3.158   7.398   3.831  2.2889 -1.1274 -1.6465
 2085TIP3    H2 6197   3.114   7.258   3.868  0.2825 -0.3357 -0.9402
 2086TIP3   OH2 6198   0.117   0.666   5.518 -0.1880 -0.2093  0.4079
 2086TIP3    H1 6199   0.074   0.655   5.603 -0.6888 -2.5142 -0.0653
 2086TIP3    H2 6200   0.072   0.740   5.477 -0.7899  0.1319  1.6457
 2087TIP3   OH2 6201   8.237   4.446   1.819  0.4071  0.2272  0.0418
 2087TIP3    H1 6202   8.252   4.480   1.907 -1.1093 -0.9152  0.7985
 2087TIP3    H2 6203   8.243   4.522   1.762 -0.6682  1.3872  1.3990
 2088TIP3   OH2 6204   3.119   4.114   0.436  0.0485  0.9520 -0.1421
 2088TIP3    H1 6205   3.144   4.194   0.482 -0.1133  0.5788  0.6136
 2088TIP3    H2 6206   3.025   4.125   0.418 -0.7428 -0.3231  2.6865
 2089TIP3   OH2 6207   2.939   4.456   3.403 -0.0912  0.1773 -0.0634
 2089TIP3    H1 6208   2.918   4.542   3.439 -1.1571  0.6981 -1.8138
 2089TIP3    H2 6209   2.855   4.411   3.398  0.2262 -0.3765 -0.5894
 2090TIP3   OH2 6210   7.100   6.049   3.732 -0.2246 -0.6395 -0.4457
 2090TIP3    H1 6211   7.069   5.958   3.731  0.7098 -1.0031  0.5597
 2090TIP3    H2 6212   7.192   6.042   3.758  0.0342  0.5615 -0.9723
 2091TIP3   OH2 6213   1.206   0.956   0.442 -0.2105  0.5366 -0.3405
 2091TIP3    H1 6214   1.152   0.905   0.382  0.3072  0.3880 -0.6824
 2091TIP3    H2 6215   1.282   0.901   0.458 -0.0097  0.8815 -0.1093
 2092TIP3   OH2 6216   3.153   2.766   5.114  0.4590 -0.3145 -0.0852
 2092TIP3    H1 6217   3.111   2.695   5.163 -1.2301  0.6377 -0.0911
 2092TIP3    H2 6218   3.081   2.811   5.071  0.9335  3.4817  2.6010
 2093TIP3   OH2 6219   5.557   7.233   6.565 -0.0326  0.6905  0.7492
 2093TIP3    H1 6220   5.630   7.175   6.587 -0.5392 -0.4617 -0.4502
 2093TIP3    H2 6221   5.488   7.210   6.627 -0.6302 -0.8672 -0.4113
 2094TIP3   OH2 6222   2.504   7.257   3.449  0.5342  0.3208 -0.6720
 2094TIP3    H1 6223   2.422   7.306   3.452  0.7826  0.7753  2.6946
 2094TIP3    H2 6224   2.491   7.192   3.381 -3.0133 -0.2120  0.3272
 2095TIP3   OH2 6225   0.660   2.095   4.518  0.5385  0.1192 -0.0783
 2095TIP3    H1 6226   0.660   2.040   4.440 -1.5286 -1.2764  0.8025
 2095TIP3    H2 6227   0.752   2.116   4.533  1.1881 -1.3777 -1.6367
 2096TIP3   OH2 6228   6.936   3.904   2.148 -0.1177  0.4664 -0.2209
 2096TIP3    H1 6229   6.919   3.819   2.108  0.3094  0.8277 -1.1952
 2096TIP3    H2 6230   7.027   3.923   2.125  0.1136  0.7358  0.8477
 2097TIP3   OH2 6231   0.089   2.281   5.548  0.1102 -0.0444  0.2255
 2097TIP3    H1 6232   0.009   2.269   5.599  0.2182  0.4116  0.5023
 2097TIP3    H2 6233   0.158   2.241   5.602 -0.4060 -3.9727 -1.6420
 2098TIP3   OH2 6234   5.481   0.900   0.853 -0.2260 -0.1332  0.4956
 2098TIP3    H1 6235   5.400   0.898   0.902 -0.1746 -2.0984  0.5848
 2098TIP3    H2 6236   5.494   0.810   0.824  1.1126  0.4461 -0.8630
 2099TIP3   OH2 6237   6.687   2.723   3.482 -0.2441  0.4097 -0.4146
 2099TIP3    H1 6238   6.691   2.652   3.546 -0.2509  1.0229  0.2766
 2099TIP3    H2 6239   6.777   2.735   3.453 -0.4468 -0.8985 -1.6871
 2100TIP3   OH2 6240   4.362   0.147   5.998 -0.1078  0.5449 -0.0497
 2100TIP3    H1 6241   4.362   0.197   6.080 -0.0625  0.3918  0.0441
 2100TIP3    H2 6242   4.455   0.138   5.975 -0.0348 -0.6786  0.6591
 2101TIP3   OH2 6243   0.809   6.392   3.626  0.3657  0.4177  0.2805
 2101TIP3    H1 6244   0.892   6.387   3.580  0.2444 -1.6551  0.2039
 2101TIP3    H2 6245   0.819   6.333   3.700 -0.0240  2.4172  2.0391
 2102TIP3   OH2 6246   3.709   4.546   0.915 -0.3164 -0.1724 -0.1485
 2102TIP3    H1 6247   3.765   4.504   0.849  0.0539 -1.0100  0.6805
 2102TIP3    H2 6248   3.629   4.493   0.915 -0.6720  0.3431 -0.5147
 2103TIP3   OH2 6249   2.422   7.315   1.680 -0.3381 -0.1581 -0.1544
 2103TIP3    H1 6250   2.517   7.309   1.675 -0.3613  0.3661 -2.0054
 2103TIP3    H2 6251   2.399   7.386   1.620 -1.9218 -0.6118 -0.1301
 2104TIP3   OH2 6252   1.280   3.720   3.088  0.0266 -0.0285  0.8097
 2104TIP3    H1 6253   1.224   3.788   3.051  0.7979  0.8136  1.1672
 2104TIP3    H2 6254   1.230   3.685   3.162  0.0206  0.8102  1.2084
 2105TIP3   OH2 6255   7.396   2.764   2.000  0.1368 -0.0088 -0.1591
 2105TIP3    H1 6256   7.366   2.734   2.085  2.9152 -1.9178  0.2779
 2105TIP3    H2 6257   7.466   2.703   1.976 -1.7301 -0.7630 -4.7132
 2106TIP3   OH2 6258   2.076   4.868   1.198  0.2290  0.1305 -0.3286
 2106TIP3    H1 6259   2.038   4.792   1.242 -0.2138  0.1708 -0.6363
 2106TIP3    H2 6260   2.110   4.923   1.269 -0.8072  0.3734 -0.0089
 2107TIP3   OH2 6261   6.225   6.401   5.572 -0.1045  0.0773 -1.0061
 2107TIP3    H1 6262   6.146   6.412   5.519  0.0961 -0.0174 -1.3302
 2107TIP3    H2 6263   6.266   6.321   5.538  1.0006  1.0107 -1.9813
 2108TIP3   OH2 6264   4.845   3.261   4.826 -0.4824  0.0917 -0.2599
 2108TIP3    H1 6265   4.907   3.253   4.898  0.9380  2.5090 -1.1069
 2108TIP3    H2 6266   4.766   3.296   4.866 -1.1323 -2.3219  0.7095
 2109TIP3   OH2 6267   7.161   3.562   0.125  0.4976  0.1933 -0.1170
 2109TIP3    H1 6268   7.158   3.469   0.146 -0.4771  0.3343  0.4451
 2109TIP3    H2 6269   7.195   3.603   0.205 -1.7758  0.5816  0.7331
 2110TIP3   OH2 6270   1.377   0.748   0.423  0.2496  0.5322 -0.2641
 2110TIP3    H1 6271   1.353   0.661   0.453  2.2905 -0.0092 -0.1085
 2110TIP3    H2 6272   1.395   0.737   0.329  0.7436  0.7198 -0.1951
 2111TIP3   OH2 6273   5.535   6.112   4.984  0.4041  0.1404 -0.2240
 2111TIP3    H1 6274   5.448   6.070   4.983  1.0310 -1.1945 -1.1813
 2111TIP3    H2 6275   5.516   6.206   4.975 -0.9859 -0.0191  0.6899
 2112TIP3   OH2 6276   5.484   5.344   2.125 -0.3755 -0.1488 -0.6253
 2112TIP3    H1 6277   5.511   5.294   2.048  1.2739  0.1893 -0.3072
 2112TIP3    H2 6278   5.467   5.278   2.192  0.6138 -0.3537 -0.5652
 2113TIP3   OH2 6279   6.157   3.004   6.436 -0.2135  0.0935  0.0437
 2113TIP3    H1 6280   6.248   3.032   6.441 -0.5604  1.1851  0.7521
 2113TIP3    H2 6281   6.109   3.083   6.411 -1.0587 -0.2527  0.5196
 2114TIP3   OH2 6282   2.021   5.028   2.720 -0.2751 -0.5102  0.0537
 2114TIP3    H1 6283   2.055   5.117   2.729  0.8757 -1.0356  1.3749
 2114TIP3    H2 6284   1.927   5.039   2.705 -0.3172  0.9179  1.1713
 2115TIP3   OH2 6285   0.181   1.417   3.742  0.6615  0.4138  0.0626
 2115TIP3    H1 6286   0.134   1.479   3.687  0.4556  0.5129  0.3428
 2115TIP3    H2 6287   0.217   1.352   3.682 -0.9644 -0.4137 -0.0513
 2116TIP3   OH2 6288   6.901   7.811   5.316  0.2991  0.2289  0.6491
 2116TIP3    H1 6289   6.817   7.857   5.314  1.0145  1.7270 -2.6907
 2116TIP3    H2 6290   6.964   7.878   5.343  0.6727 -0.4052  1.3857
 2117TIP3   OH2 6291   7.214   2.952   2.436 -0.0284 -0.2159 -0.4276
 2117TIP3    H1 6292   7.221   3.048   2.428  1.9620  0.0973  3.2284
 2117TIP3    H2 6293   7.153   2.938   2.508  1.0935 -1.6229  0.2916
 2118TIP3   OH2 6294   0.990   2.824   2.914 -0.2827  0.1901  0.1957
 2118TIP3    H1 6295   0.948   2.739   2.901 -0.1104 -0.0107  0.8722
 2118TIP3    H2 6296   0.938   2.885   2.862 -0.8108 -0.2239  0.2259
 2119TIP3   OH2 6297   5.083   2.871   5.268  0.0444 -0.4291 -0.3864
 2119TIP3    H1 6298   5.016   2.823   5.316 -2.1280  1.7268 -1.0487
 2119TIP3    H2 6299   5.086   2.957   5.310  1.8549 -0.1946 -0.8981
 2120TIP3   OH2 6300   5.357   7.652   6.102 -0.4094 -0.0683  0.1794
 2120TIP3    H1 6301   5.276   7.697   6.127  0.5257  1.2259  1.0354
 2120TIP3    H2 6302   5.348   7.637   6.008 -1.5039  0.3583  0.1935
 2121TIP3   OH2 6303   6.828   1.867   6.153 -0.3477 -0.2551  0.0279
 2121TIP3    H1 6304   6.798   1.873   6.244 -0.5289 -0.6613 -0.0053
 2121TIP3    H2 6305   6.918   1.835   6.160  0.0299  0.7665  0.1150
 2122TIP3   OH2 6306   6.724   3.406   2.699 -0.0859 -0.8463 -0.3443
 2122TIP3    H1 6307   6.711   3.391   2.606  0.7591 -1.4716 -0.3691
 2122TIP3    H2 6308   6.770   3.489   2.705  0.1944 -0.9914 -0.5037
 2123TIP3   OH2 6309   8.066   5.054   6.554 -0.0473  0.1655 -0.0685
 2123TIP3    H1 6310   8.087   5.071   6.646 -1.3241  0.8107  0.1203
 2123TIP3    H2 6311   7.977   5.020   6.555  0.6237 -1.7146 -0.9212
 2124TIP3   OH2 6312   1.516   6.995   3.837 -0.2042 -0.1190 -0.5789
 2124TIP3    H1 6313   1.441   7.032   3.884 -0.6004 -0.1003 -1.2062
 2124TIP3    H2 6314   1.558   7.071   3.795 -1.0891 -0.3466 -1.9669
 2125TIP3   OH2 6315   3.601   3.213   1.638  0.3733  0.6709 -0.1188
 2125TIP3    H1 6316   3.601   3.128   1.595 -1.5969  0.5972 -0.0469
 2125TIP3    H2 6317   3.516   3.251   1.617  0.0319  1.3760  2.2436
 2126TIP3   OH2 6318   4.046   3.817   0.437 -0.2340 -0.5046  0.2813
 2126TIP3    H1 6319   4.117   3.812   0.501 -1.0411  1.6004  1.4685
 2126TIP3    H2 6320   4.082   3.778   0.357  2.1083  0.1189  0.9615
 2127TIP3   OH2 6321   4.558   1.815   0.713  0.2090  0.4111  0.2354
 2127TIP3    H1 6322   4.617   1.774   0.650  1.2027  0.1671  1.2945
 2127TIP3    H2 6323   4.562   1.760   0.790 -1.1195  0.6189  0.4856
 2128TIP3   OH2 6324   3.846   1.066   3.196  0.0316 -0.3324 -0.4949
 2128TIP3    H1 6325   3.825   0.989   3.249  0.1984  0.6590  1.0833
 2128TIP3    H2 6326   3.802   1.051   3.113 -1.7860 -1.1452  0.5524
 2129TIP3   OH2 6327   2.765   5.117   1.213  0.7662  0.1537 -0.2336
 2129TIP3    H1 6328   2.732   5.060   1.144  0.3641 -0.4989  0.4802
 2129TIP3    H2 6329   2.846   5.154   1.177  1.7127 -1.8210 -0.3011
 2130TIP3   OH2 6330   3.642   2.132   1.733  0.4171 -0.2070 -0.3005
 2130TIP3    H1 6331   3.592   2.181   1.667  1.7405  2.6041  0.6332
 2130TIP3    H2 6332   3.575   2.084   1.782 -0.6922 -1.6082 -2.9763
 2131TIP3   OH2 6333   6.564   3.103   1.379 -0.7777 -0.5744  0.1180
 2131TIP3    H1 6334   6.633   3.081   1.442 -0.8793 -1.0205  0.0756
 2131TIP3    H2 6335   6.611   3.145   1.306 -0.5549 -0.8493  0.1026
 2132TIP3   OH2 6336   0.050   1.674   5.692  0.5160 -0.2120  0.1575
 2132TIP3    H1 6337   0.090   1.593   5.724 -1.3319 -1.1379  0.2412
 2132TIP3    H2 6338  -0.014   1.645   5.626 -1.0276  1.0398  1.0371
 2133TIP3   OH2 6339   5.271   6.677   3.705  0.4349 -0.0552  0.5063
 2133TIP3    H1 6340   5.357   6.694   3.666  0.7359  0.5145  1.3840
 2133TIP3    H2 6341   5.290   6.624   3.782 -0.0544 -0.3534  0.4197
 2134TIP3   OH2 6342   1.020   2.686   4.365 -0.7657  0.3975  0.3739
 2134TIP3    H1 6343   1.015   2.675   4.270 -1.4069  2.6292  0.0964
 2134TIP3    H2 6344   1.111   2.706   4.383 -0.9383  1.5801 -0.0027
 2135TIP3   OH2 6345   3.080   0.518   4.993  0.5851 -0.0808  0.4498
 2135TIP3    H1 6346   3.083   0.565   4.910  1.3518 -0.7157  0.1077
 2135TIP3    H2 6347   3.170   0.488   5.007  0.1500 -1.2651  0.7700
 2136TIP3   OH2 6348   5.710   3.892   5.638  0.1883  0.3490 -0.3140
 2136TIP3    H1 6349   5.766   3.852   5.705 -0.7435 -0.2034  0.1575
 2136TIP3    H2 6350   5.687   3.819   5.580 -0.2199  0.5247 -0.3748
 2137TIP3   OH2 6351   1.718   1.976   5.650 -0.1693  0.0132 -0.2043
 2137TIP3    H1 6352   1.784   1.989   5.583  0.3980 -1.8159 -0.0586
 2137TIP3    H2 6353   1.654   1.917   5.610  0.3384 -1.3564  0.9269
 2138TIP3   OH2 6354   4.748   5.090   0.091  0.2645  0.1596 -0.2471
 2138TIP3    H1 6355   4.722   5.179   0.115  1.7058  1.0405 -1.6981
 2138TIP3    H2 6356   4.817   5.067   0.154  1.5000  1.0292 -1.2201
 2139TIP3   OH2 6357   8.268   5.537   4.479  1.1299 -0.1125  0.3506
 2139TIP3    H1 6358   8.207   5.577   4.417  0.7506  1.3532  1.6018
 2139TIP3    H2 6359   8.263   5.593   4.557  1.8096 -1.7000  1.6014
 2140TIP3   OH2 6360   2.456   2.559   3.952 -0.0022  0.4840 -0.1406
 2140TIP3    H1 6361   2.399   2.524   3.884 -0.2197  1.4628 -0.4705
 2140TIP3    H2 6362   2.522   2.491   3.965 -0.8128 -0.3433 -0.2755
 2141TIP3   OH2 6363   2.681   0.391   6.344  0.3133  0.2053 -0.0165
 2141TIP3    H1 6364   2.777   0.388   6.336  0.2576 -1.5464 -0.6573
 2141TIP3    H2 6365   2.650   0.391   6.253 -0.2982  0.4857  0.1885
 2142TIP3   OH2 6366   0.305   4.814   4.721  0.2390 -0.3824  0.5310
 2142TIP3    H1 6367   0.302   4.747   4.789  1.0717 -0.4617  0.4927
 2142TIP3    H2 6368   0.256   4.888   4.758 -0.6722 -0.9948  0.5776
 2143TIP3   OH2 6369   1.329   6.307   3.041 -0.7714 -0.3757 -0.1827
 2143TIP3    H1 6370   1.417   6.328   3.074 -1.0751  0.9158 -0.1585
 2143TIP3    H2 6371   1.312   6.373   2.974 -1.8998 -0.3552  0.1052
 2144TIP3   OH2 6372   2.391   0.037   6.717  0.2184 -0.1828 -0.9103
 2144TIP3    H1 6373   2.314   0.077   6.757 -0.7169  0.4702 -3.1789
 2144TIP3    H2 6374   2.450   0.018   6.790 -1.7200  0.0935  0.7990
 2145TIP3   OH2 6375   2.379   7.451   5.592 -0.2129 -0.1992 -0.2237
 2145TIP3    H1 6376   2.390   7.359   5.616  0.1345 -0.7085 -2.1365
 2145TIP3    H2 6377   2.469   7.482   5.575 -0.4529 -0.0804 -1.4103
 2146TIP3   OH2 6378   6.266   1.309   3.746 -0.1159 -0.4320  0.2720
 2146TIP3    H1 6379   6.323   1.241   3.783 -0.9833 -0.6185  1.3169
 2146TIP3    H2 6380   6.250   1.368   3.820  1.0622  1.2369 -0.7429
 2147TIP3   OH2 6381   2.448   7.388   4.289 -0.0427 -0.1171  0.5506
 2147TIP3    H1 6382   2.436   7.482   4.305  1.1585  0.3824 -1.1457
 2147TIP3    H2 6383   2.486   7.354   4.370  0.4472  1.0854  0.8415
 2148TIP3   OH2 6384   6.097   2.206   3.690 -0.1410 -0.1273 -0.3739
 2148TIP3    H1 6385   6.053   2.253   3.619 -1.4650 -2.2264 -1.0252
 2148TIP3    H2 6386   6.190   2.217   3.671 -0.4531  0.1991 -1.8642
 2149TIP3   OH2 6387   8.262   6.410   2.346 -0.2846 -0.0352  0.0947
 2149TIP3    H1 6388   8.242   6.466   2.421 -0.0747  0.5167 -0.2597
 2149TIP3    H2 6389   8.345   6.444   2.312  0.3675 -1.1762  0.4676
 2150TIP3   OH2 6390   4.093   5.148   4.234 -0.0180 -0.1730 -0.1402
 2150TIP3    H1 6391   4.176   5.166   4.191  0.3218  0.7442  0.8336
 2150TIP3    H2 6392   4.063   5.234   4.264 -1.8081 -0.3386 -1.3009
 2151TIP3   OH2 6393   1.311   6.174   0.428 -0.2489 -0.4633  0.3526
 2151TIP3    H1 6394   1.305   6.228   0.507 -0.7035 -0.0632  0.0487
 2151TIP3    H2 6395   1.394   6.127   0.438  0.6553  1.0013  0.1813
 2152TIP3   OH2 6396   2.516   0.221   3.044  0.5283 -0.6312  0.3315
 2152TIP3    H1 6397   2.467   0.148   3.083  3.3730 -2.1380  1.4487
 2152TIP3    H2 6398   2.535   0.192   2.955  1.0560 -0.9785  0.5494
 2153TIP3   OH2 6399   3.426   3.869   3.332 -1.1368 -0.6095 -0.2356
 2153TIP3    H1 6400   3.486   3.796   3.348 -0.3702  0.1648  0.5747
 2153TIP3    H2 6401   3.434   3.887   3.238 -0.2419 -0.6559 -0.1753
 2154TIP3   OH2 6402   4.926   2.070   0.105  0.3016 -0.6655 -0.5941
 2154TIP3    H1 6403   4.960   2.058   0.193  0.5949 -2.2856 -0.9062
 2154TIP3    H2 6404   4.830   2.068   0.116  0.1548  2.7214  0.1134
 2155TIP3   OH2 6405   7.620   6.460   2.186 -0.3687 -0.0684 -0.4545
 2155TIP3    H1 6406   7.532   6.484   2.216 -0.1885  2.3762 -1.5876
 2155TIP3    H2 6407   7.677   6.478   2.260 -0.7389 -1.3842  0.1869
 2156TIP3   OH2 6408   2.772   6.179   4.168  0.0363 -0.2817 -0.1095
 2156TIP3    H1 6409   2.764   6.087   4.191  1.3600 -0.7090 -1.2244
 2156TIP3    H2 6410   2.717   6.189   4.090 -0.5239  0.0070  0.3159
 2157TIP3   OH2 6411   4.776   3.352   0.746 -0.7021 -0.0966  0.3677
 2157TIP3    H1 6412   4.808   3.442   0.736  0.5671 -0.5696 -0.0298
 2157TIP3    H2 6413   4.779   3.316   0.657 -1.5240 -0.4302  0.4721
 2158TIP3   OH2 6414   1.504   0.186   0.211  0.0522  0.3631  0.3527
 2158TIP3    H1 6415   1.426   0.147   0.170 -0.0506  0.8320  0.0880
 2158TIP3    H2 6416   1.554   0.111   0.244 -0.7874  0.0888  1.0333
 2159TIP3   OH2 6417   1.127   5.141   4.043 -0.5492  0.1097  0.3120
 2159TIP3    H1 6418   1.052   5.101   3.998 -0.1634  0.0069 -0.2459
 2159TIP3    H2 6419   1.095   5.157   4.132 -1.3293  0.3220  0.0069
 2160TIP3   OH2 6420   6.216   0.505   1.278  0.1504 -0.5107  0.1402
 2160TIP3    H1 6421   6.283   0.491   1.211 -0.1345 -0.7381 -0.0961
 2160TIP3    H2 6422   6.262   0.552   1.347  0.5857 -0.7647  0.0291
 2161TIP3   OH2 6423   2.833   7.468   2.807 -0.4142 -0.7233 -0.0108
 2161TIP3    H1 6424   2.929   7.468   2.805 -0.3980 -0.2583 -2.7635
 2161TIP3    H2 6425   2.807   7.509   2.725 -3.0017 -1.2873  0.4336
 2162TIP3   OH2 6426   7.904   3.750   1.136 -0.4316 -0.3896 -0.0727
 2162TIP3    H1 6427   7.859   3.826   1.173 -1.0818 -0.0249 -1.5089
 2162TIP3    H2 6428   7.842   3.678   1.146 -0.3754 -0.4211  0.0513
 2163TIP3   OH2 6429   0.519   6.155   6.792 -0.5727 -0.1025 -0.2540
 2163TIP3    H1 6430   0.444   6.213   6.777  1.6037  2.8687 -0.4093
 2163TIP3    H2 6431   0.563   6.150   6.707  0.3502 -0.3890  0.2314
 2164TIP3   OH2 6432   7.108   6.146   4.110 -0.4406  0.3818 -0.5514
 2164TIP3    H1 6433   7.168   6.080   4.077 -0.9287 -1.3555  1.7368
 2164TIP3    H2 6434   7.161   6.225   4.119  0.9022 -0.4652 -0.7833
 2165TIP3   OH2 6435   7.441   0.402   4.510  0.2553 -0.2516 -0.0461
 2165TIP3    H1 6436   7.462   0.382   4.601 -0.1781  3.8900  1.1942
 2165TIP3    H2 6437   7.505   0.469   4.485 -2.0458  1.6311 -1.3267
 2166TIP3   OH2 6438   3.009   5.192   6.656  0.1219  0.6621  0.1941
 2166TIP3    H1 6439   3.075   5.168   6.720 -0.8159 -1.0003  0.6071
 2166TIP3    H2 6440   3.058   5.233   6.584  1.5293 -0.1261  0.6749
 2167TIP3   OH2 6441   0.416   2.586   3.652  0.2217  0.3171 -0.0322
 2167TIP3    H1 6442   0.341   2.643   3.669 -0.7943 -1.1437  0.6223
 2167TIP3    H2 6443   0.415   2.574   3.557 -1.5572 -1.1554  0.1242
 2168TIP3   OH2 6444   6.309   2.349   4.834  0.6464 -0.4790 -0.4964
 2168TIP3    H1 6445   6.288   2.403   4.910 -0.9126 -0.1084 -1.1467
 2168TIP3    H2 6446   6.386   2.391   4.795  0.4287  0.3321 -0.0781
 2169TIP3   OH2 6447   6.880   7.132   3.358  0.0088  0.0291 -0.0304
 2169TIP3    H1 6448   6.880   7.209   3.414  0.2446  0.9541 -1.2606
 2169TIP3    H2 6449   6.928   7.066   3.408 -0.7622  0.4448  1.3143
 2170TIP3   OH2 6450   8.108   2.681  -0.033 -0.0654 -0.1030  0.8209
 2170TIP3    H1 6451   8.143   2.599   0.002  0.5761  0.3703  1.3319
 2170TIP3    H2 6452   8.066   2.723   0.042  0.6143  0.5544  0.8513
 2171TIP3   OH2 6453   6.033   5.103   0.801  0.1208 -0.3169 -0.1348
 2171TIP3    H1 6454   6.032   5.076   0.893  0.7240  0.7375  0.2111
 2171TIP3    H2 6455   5.949   5.075   0.766 -0.3410 -0.2630  0.8973
 2172TIP3   OH2 6456   4.187   4.796   1.815  0.1136 -0.3034  0.3673
 2172TIP3    H1 6457   4.266   4.809   1.869  0.8756  1.5720 -1.0585
 2172TIP3    H2 6458   4.207   4.720   1.761  1.9137  1.2663 -1.3829
 2173TIP3   OH2 6459   1.740   3.105   6.795 -0.5551 -0.1487  0.0455
 2173TIP3    H1 6460   1.725   3.159   6.717  0.5507 -0.6462 -0.5323
 2173TIP3    H2 6461   1.818   3.054   6.774 -0.1624 -0.1932  1.5509
 2174TIP3   OH2 6462   4.414   1.656   3.564  0.1975  0.1327 -0.0140
 2174TIP3    H1 6463   4.500   1.677   3.601 -1.2640  0.2479  3.7939
 2174TIP3    H2 6464   4.355   1.721   3.603 -1.7759 -0.3865 -1.9403
 2175TIP3   OH2 6465   3.942   0.838   6.638 -0.4188 -0.0611 -0.3020
 2175TIP3    H1 6466   3.897   0.882   6.566  1.0036  0.7510 -0.7215
 2175TIP3    H2 6467   4.021   0.802   6.598 -0.4427 -1.0760  0.5175
 2176TIP3   OH2 6468   2.841   6.059   1.686 -0.4116  0.6027  0.1771
 2176TIP3    H1 6469   2.773   5.994   1.670 -1.2113  1.2138  0.9875
 2176TIP3    H2 6470   2.923   6.014   1.667 -1.0164 -0.2765 -0.4084
 2177TIP3   OH2 6471   3.253   3.817   6.611  0.1866 -0.2317  0.0439
 2177TIP3    H1 6472   3.193   3.889   6.631  1.5962  1.2738 -0.8879
 2177TIP3    H2 6473   3.305   3.849   6.537  2.7105 -1.0912  1.3247
 2178TIP3   OH2 6474   1.061   5.731   0.163  0.2307  0.4609  0.6394
 2178TIP3    H1 6475   1.062   5.790   0.238  0.6704 -0.2695  1.2267
 2178TIP3    H2 6476   1.035   5.647   0.200 -0.2492  0.2521 -0.1573
 2179TIP3   OH2 6477   0.169   6.273   6.574 -0.4137 -0.0418 -0.3851
 2179TIP3    H1 6478   0.171   6.177   6.579 -0.0032  0.0166  1.4184
 2179TIP3    H2 6479   0.223   6.301   6.648 -2.3030  1.5877  0.4346
 2180TIP3   OH2 6480   8.000   4.903   0.727  0.2038 -0.0725  0.2192
 2180TIP3    H1 6481   8.037   4.819   0.700 -0.0841 -1.0298  2.5899
 2180TIP3    H2 6482   8.069   4.943   0.781  0.9839  2.0183 -2.1205
 2181TIP3   OH2 6483   5.635   3.646   1.940 -0.0719 -0.0957 -0.0885
 2181TIP3    H1 6484   5.557   3.599   1.909  0.0959 -0.1751 -0.3878
 2181TIP3    H2 6485   5.600   3.729   1.974 -0.2487  0.0454 -0.5962
 2182TIP3   OH2 6486   7.021   0.426   1.093 -0.0286  0.1193 -0.4600
 2182TIP3    H1 6487   6.931   0.457   1.106  0.5238  1.0299  1.4826
 2182TIP3    H2 6488   7.014   0.331   1.101 -0.6506  0.2618  1.2169
 2183TIP3   OH2 6489   8.028   4.077   0.862 -0.0530  0.8685 -0.1211
 2183TIP3    H1 6490   8.012   4.149   0.923 -0.1519 -0.6132  1.6810
 2183TIP3    H2 6491   8.074   4.011   0.914 -0.7733 -0.7550 -1.4522
 2184TIP3   OH2 6492   1.277   2.845   2.940 -0.1076  0.9647  0.1830
 2184TIP3    H1 6493   1.322   2.846   3.025 -0.7527 -0.7461  0.5856
 2184TIP3    H2 6494   1.198   2.794   2.955 -1.1980  2.2126 -1.0185
 2185TIP3   OH2 6495   6.520   0.789   2.053  0.2526 -0.1551 -0.4183
 2185TIP3    H1 6496   6.440   0.835   2.024  0.6729  2.3521  2.0100
 2185TIP3    H2 6497   6.558   0.847   2.119  3.1588 -2.1435 -0.1945
 2186TIP3   OH2 6498   2.625   1.910   1.399 -0.1495  0.0690 -0.2887
 2186TIP3    H1 6499   2.713   1.923   1.364 -0.2578 -1.9091 -1.4974
 2186TIP3    H2 6500   2.585   1.997   1.399  1.8952  1.0757  0.6496
 2187TIP3   OH2 6501   3.220   3.967   2.497  0.2716 -0.3071  0.6085
 2187TIP3    H1 6502   3.179   4.035   2.444 -1.3209  0.9263  3.1778
 2187TIP3    H2 6503   3.181   3.885   2.467  1.9650 -0.1702 -2.3121
 2188TIP3   OH2 6504   5.434   3.098   0.294 -0.0085 -0.1689 -0.3523
 2188TIP3    H1 6505   5.355   3.151   0.299  0.9311  1.7836 -3.2196
 2188TIP3    H2 6506   5.483   3.118   0.374 -1.0808  0.9136  0.0569
 2189TIP3   OH2 6507   6.606   3.788   3.571  0.1507 -0.2293 -0.3593
 2189TIP3    H1 6508   6.522   3.778   3.526  0.5113 -1.6262 -0.7755
 2189TIP3    H2 6509   6.656   3.846   3.513 -0.2733  0.0429 -0.4615
 2190TIP3   OH2 6510   8.349   4.381   1.437 -0.4251  0.4659  0.2713
 2190TIP3    H1 6511   8.329   4.297   1.396 -1.2278  0.6086  0.3500
 2190TIP3    H2 6512   8.370   4.359   1.528  1.8046  0.1003 -0.2842
 2191TIP3   OH2 6513   8.281   6.263   1.825 -0.0636  0.3343  0.2132
 2191TIP3    H1 6514   8.256   6.267   1.917  0.4455 -1.6904  0.4764
 2191TIP3    H2 6515   8.357   6.205   1.823 -0.4210 -0.1263 -1.5524
 2192TIP3   OH2 6516   3.349   0.151   1.078  0.4029 -0.0813 -0.5099
 2192TIP3    H1 6517   3.333   0.236   1.035 -0.8329  0.3411  0.7346
 2192TIP3    H2 6518   3.337   0.168   1.171  2.1638 -1.1907 -0.0269
 2193TIP3   OH2 6519   5.593   7.839   1.371  0.1412  0.1161  0.1520
 2193TIP3    H1 6520   5.577   7.920   1.322 -1.6905 -0.3010  0.0050
 2193TIP3    H2 6521   5.536   7.845   1.447  0.5090 -0.7334  0.5105
 2194TIP3   OH2 6522   7.687   0.754   4.768 -0.3842 -0.3270  0.3575
 2194TIP3    H1 6523   7.648   0.692   4.830 -1.7757  0.4199  0.2642
 2194TIP3    H2 6524   7.658   0.723   4.682  1.8760 -1.6057 -0.0504
 2195TIP3   OH2 6525   5.009   5.993   0.456 -0.1219 -0.5121 -0.1440
 2195TIP3    H1 6526   4.969   6.080   0.456  1.1477  0.1174 -1.9151
 2195TIP3    H2 6527   5.061   5.989   0.375  2.6665 -1.6133  1.5418
 2196TIP3   OH2 6528   4.190   4.873   5.530  0.0664 -0.0618 -0.4608
 2196TIP3    H1 6529   4.187   4.925   5.610 -1.2636 -0.9939  0.1215
 2196TIP3    H2 6530   4.180   4.937   5.459  0.9029  0.7276  0.1114
 2197TIP3   OH2 6531   1.022   7.459   3.738 -0.3614 -0.1456  0.1269
 2197TIP3    H1 6532   1.054   7.490   3.823  0.7901 -0.8664 -0.0262
 2197TIP3    H2 6533   0.959   7.390   3.760  0.2281 -0.6078  0.4100
 2198TIP3   OH2 6534   4.455   1.609   2.946  0.4749 -0.4421  0.2808
 2198TIP3    H1 6535   4.490   1.596   2.858  3.4288 -1.1703  1.4387
 2198TIP3    H2 6536   4.383   1.546   2.953  0.4396 -0.6451 -1.4584
 2199TIP3   OH2 6537   4.642   7.873   6.392 -0.5976 -0.2659  0.1406
 2199TIP3    H1 6538   4.667   7.935   6.460  0.3957  1.1464 -1.4249
 2199TIP3    H2 6539   4.551   7.851   6.411 -0.6990  1.0139  1.2451
 2200TIP3   OH2 6540   2.689   6.547   6.432 -0.6180 -0.7783 -0.1994
 2200TIP3    H1 6541   2.766   6.514   6.386  0.1063  1.3372 -0.6152
 2200TIP3    H2 6542   2.722   6.574   6.518 -1.1703 -1.0556  0.1055
 2201TIP3   OH2 6543   7.154   0.802   1.539  0.2985  0.6733  0.9846
 2201TIP3    H1 6544   7.206   0.801   1.459 -0.3557  0.0399  0.5585
 2201TIP3    H2 6545   7.114   0.889   1.541 -0.5088  0.3365  0.0723
 2202TIP3   OH2 6546   8.053   5.416   1.760  0.0062 -0.7150 -0.1220
 2202TIP3    H1 6547   8.098   5.458   1.833 -0.1141 -0.3763 -0.2385
 2202TIP3    H2 6548   8.042   5.486   1.696 -0.6964 -0.7846 -0.0846
 2203TIP3   OH2 6549   7.740   6.038   0.958  0.0518  0.0600 -0.6097
 2203TIP3    H1 6550   7.671   6.093   0.920 -0.5695 -0.8897 -0.8881
 2203TIP3    H2 6551   7.811   6.042   0.894 -0.3362 -0.1658 -1.0609
 2204TIP3   OH2 6552   1.650   6.240   6.447  0.5330  0.1566 -0.4224
 2204TIP3    H1 6553   1.575   6.210   6.396 -1.0883  1.5100  1.0066
 2204TIP3    H2 6554   1.631   6.212   6.537  0.8318  2.0140  0.2772
 2205TIP3   OH2 6555   6.970   5.325   1.276 -0.1434 -0.4325  0.5202
 2205TIP3    H1 6556   6.929   5.411   1.265  1.7635  0.4285 -0.0927
 2205TIP3    H2 6557   7.020   5.310   1.196 -0.5884 -2.2311  0.5223
 2206TIP3   OH2 6558   1.181   0.123   0.711  0.8996  0.1002  0.2416
 2206TIP3    H1 6559   1.176   0.043   0.764  2.0586  0.2685  0.6300
 2206TIP3    H2 6560   1.210   0.092   0.625  1.6159  0.1213  0.4690
 2207TIP3   OH2 6561   2.912   4.101   6.751 -0.1497  0.4380 -0.0234
 2207TIP3    H1 6562   2.917   4.127   6.843 -1.2561  1.5852 -0.2620
 2207TIP3    H2 6563   2.978   4.154   6.707  1.0511 -0.7988  0.2236
 2208TIP3   OH2 6564   0.984   4.148   3.540 -0.2176 -0.1479 -0.1249
 2208TIP3    H1 6565   0.906   4.133   3.486 -0.1093  1.6124 -0.8415
 2208TIP3    H2 6566   0.955   4.210   3.607 -0.2919 -2.1464  1.7907
 2209TIP3   OH2 6567   5.148   5.441   2.964 -0.5039 -0.8919 -0.3001
 2209TIP3    H1 6568   5.119   5.500   3.033  0.1136 -2.5198  1.4324
 2209TIP3    H2 6569   5.206   5.379   3.008  3.5480  0.5127 -2.9800
 2210TIP3   OH2 6570   6.990   1.539   6.359 -0.0799  0.2850 -0.3026
 2210TIP3    H1 6571   6.989   1.593   6.438  2.6881 -1.5660  1.1666
 2210TIP3    H2 6572   7.031   1.595   6.293 -1.2811  1.4172 -0.1526
 2211TIP3   OH2 6573   0.950   6.787   6.768 -0.4537 -0.2378 -0.3570
 2211TIP3    H1 6574   0.957   6.771   6.674 -1.3435  0.3646 -0.5340
 2211TIP3    H2 6575   1.034   6.757   6.803 -0.2319 -0.7648 -1.2933
 2212TIP3   OH2 6576   4.731   2.275   5.090 -0.2871 -0.2430  0.0726
 2212TIP3    H1 6577   4.745   2.369   5.097  0.7779 -0.2290 -1.7540
 2212TIP3    H2 6578   4.781   2.248   5.013  2.4281 -2.8868  2.4707
 2213TIP3   OH2 6579   3.728   7.258   4.179  0.1625 -0.0656 -0.2789
 2213TIP3    H1 6580   3.761   7.230   4.094  0.6053 -2.6700  0.6557
 2213TIP3    H2 6581   3.632   7.256   4.170  0.1929 -1.3640 -0.4400
 2214TIP3   OH2 6582   2.425   7.060   3.961 -0.5781  0.3084 -0.1919
 2214TIP3    H1 6583   2.458   7.130   4.017 -0.0011 -0.5511  0.5638
 2214TIP3    H2 6584   2.462   7.079   3.874  1.0006 -0.0096  0.3846
 2215TIP3   OH2 6585   1.988   7.306   3.858  0.6306 -0.1476  0.6541
 2215TIP3    H1 6586   2.068   7.357   3.870 -1.0997  3.1218 -0.4411
 2215TIP3    H2 6587   1.918   7.364   3.887 -1.6803 -0.9877 -2.6354
 2216TIP3   OH2 6588   3.432   3.827   0.359  0.2846 -0.4443  0.4343
 2216TIP3    H1 6589   3.494   3.810   0.288  1.0411  0.0598  0.9474
 2216TIP3    H2 6590   3.486   3.827   0.438 -0.0882  1.5094  0.7456
 2217TIP3   OH2 6591   3.742   6.711   4.508  0.3848  0.6518 -0.2022
 2217TIP3    H1 6592   3.762   6.694   4.600  1.3832 -0.7209 -0.6282
 2217TIP3    H2 6593   3.771   6.801   4.493 -0.2849  1.0817  0.9382
 2218TIP3   OH2 6594   4.688   6.323   5.432 -0.5088 -0.2067  0.2130
 2218TIP3    H1 6595   4.729   6.402   5.397  1.8191 -1.5526 -0.3319
 2218TIP3    H2 6596   4.631   6.293   5.362  0.6919 -0.4492 -0.7047
 2219TIP3   OH2 6597   1.995   4.001   2.166  0.0495  0.0269  0.1348
 2219TIP3    H1 6598   2.017   4.049   2.087 -0.6510  2.4140  1.2900
 2219TIP3    H2 6599   1.919   4.046   2.202 -0.2175 -1.5368  1.6992
 2220TIP3   OH2 6600   0.333   6.271   1.217 -0.6624 -0.0393 -0.2164
 2220TIP3    H1 6601   0.274   6.285   1.144 -0.2611 -0.8560 -0.7084
 2220TIP3    H2 6602   0.338   6.176   1.226  0.5439  0.0201 -0.1566
 2221TIP3   OH2 6603   6.779   4.927   3.811  0.0425  0.2835 -0.2612
 2221TIP3    H1 6604   6.704   4.966   3.856  0.3901  1.0914 -0.3619
 2221TIP3    H2 6605   6.750   4.916   3.721  0.1371  0.8916 -0.3746
 2222TIP3   OH2 6606   0.919   5.310   6.080 -0.1871 -0.0427  0.0862
 2222TIP3    H1 6607   0.880   5.278   5.998 -1.3224  1.5417 -0.0455
 2222TIP3    H2 6608   0.844   5.342   6.130  0.4459 -1.2625  1.9261
 2223TIP3   OH2 6609   1.845   6.735   5.885 -0.1895  0.3516 -0.0297
 2223TIP3    H1 6610   1.842   6.665   5.819 -0.2181  1.0146 -0.7417
 2223TIP3    H2 6611   1.755   6.739   5.918 -0.2457  0.2162 -0.1598
 2224TIP3   OH2 6612   1.545   6.389   0.681  0.5401  0.1198  0.0912
 2224TIP3    H1 6613   1.553   6.393   0.776  0.9615  0.7776  0.0392
 2224TIP3    H2 6614   1.451   6.381   0.665  0.5061 -0.4876  0.5694
 2225TIP3   OH2 6615   2.958   1.563   1.197  1.2862  0.4717  0.3959
 2225TIP3    H1 6616   3.015   1.556   1.120  0.2458 -0.5395 -0.3318
 2225TIP3    H2 6617   2.887   1.500   1.179  1.0746  0.1399  2.2393
 2226TIP3   OH2 6618   1.130   3.656   3.298  0.0767  0.2498 -0.9637
 2226TIP3    H1 6619   1.084   3.574   3.278 -0.0391  0.8076 -3.3126
 2226TIP3    H2 6620   1.061   3.722   3.300 -0.0214  0.1848  2.2982
 2227TIP3   OH2 6621   3.049   5.994   1.876  0.1909 -0.4209 -0.4574
 2227TIP3    H1 6622   3.063   5.962   1.787 -0.5062 -2.9096  0.2328
 2227TIP3    H2 6623   3.135   5.989   1.917  0.5611  0.9551 -1.0268
 2228TIP3   OH2 6624   5.705   0.262   0.841 -0.2815  0.2099  0.1915
 2228TIP3    H1 6625   5.797   0.233   0.841 -0.7356 -1.3279  0.2416
 2228TIP3    H2 6626   5.673   0.240   0.753 -0.1708  2.3302 -0.4352
 2229TIP3   OH2 6627   4.694   2.893   2.915 -0.3090 -0.4977 -0.2136
 2229TIP3    H1 6628   4.748   2.850   2.848  0.2250 -0.2760  0.0741
 2229TIP3    H2 6629   4.604   2.869   2.891 -0.2363  0.5422 -1.7210
 2230TIP3   OH2 6630   1.293   5.993   6.095  0.0162 -0.3535  0.2710
 2230TIP3    H1 6631   1.275   6.005   6.001  1.6442 -1.8306 -0.2732
 2230TIP3    H2 6632   1.219   5.941   6.127 -0.2822 -0.2892 -0.2945
 2231TIP3   OH2 6633   2.544   7.315   4.558  0.3053 -0.3144  0.4382
 2231TIP3    H1 6634   2.456   7.304   4.594  0.5492  1.8054  1.8180
 2231TIP3    H2 6635   2.602   7.274   4.623  0.3875 -2.2106 -0.7299
 2232TIP3   OH2 6636   7.169   1.656   0.904 -0.6366  0.4485 -0.7961
 2232TIP3    H1 6637   7.197   1.565   0.895  0.3964  0.4433  1.7704
 2232TIP3    H2 6638   7.245   1.708   0.878 -1.2023  0.6171 -2.1931
 2233TIP3   OH2 6639   7.999   3.872   5.208 -0.0559 -0.0666  1.1507
 2233TIP3    H1 6640   7.913   3.892   5.245 -0.5340  1.5752 -0.6857
 2233TIP3    H2 6641   8.009   3.933   5.135  1.7863 -1.6196 -0.0055
 2234TIP3   OH2 6642   7.640   3.607   1.178  0.3820  0.2556  0.2207
 2234TIP3    H1 6643   7.576   3.619   1.248 -1.5553 -1.5107 -1.1146
 2234TIP3    H2 6644   7.637   3.513   1.158  0.3222  0.7780 -2.6697
 2235TIP3   OH2 6645   7.162   5.640   1.633 -0.3576  0.9235  0.0260
 2235TIP3    H1 6646   7.079   5.598   1.657 -0.4928  1.8007  1.1415
 2235TIP3    H2 6647   7.224   5.567   1.627 -1.1496  0.2742 -0.6396
 2236TIP3   OH2 6648   3.331   7.793   0.574  0.2099 -0.4118  0.1958
 2236TIP3    H1 6649   3.340   7.885   0.550  0.8319 -1.1818 -2.9336
 2236TIP3    H2 6650   3.242   7.786   0.609  0.3480  1.4226  1.0626
 2237TIP3   OH2 6651   7.921   2.196   6.682 -0.5696  0.9077 -0.6503
 2237TIP3    H1 6652   7.993   2.148   6.640  1.0052  1.9799  0.6666
 2237TIP3    H2 6653   7.944   2.195   6.775 -3.2286 -0.2440  0.0980
 2238TIP3   OH2 6654   0.199   3.480   2.705 -0.1084  0.6119 -0.1283
 2238TIP3    H1 6655   0.278   3.444   2.743  0.2371  1.2118 -0.2593
 2238TIP3    H2 6656   0.127   3.438   2.752  0.2371 -1.1213 -1.0812
 2239TIP3   OH2 6657   6.476   6.411   2.811 -0.4202  0.1292 -1.2467
 2239TIP3    H1 6658   6.552   6.374   2.855 -0.0578  0.9895 -1.1329
 2239TIP3    H2 6659   6.502   6.500   2.788 -1.5161  0.5661 -0.8726
 2240TIP3   OH2 6660   3.050   4.540   5.182  0.1180  0.3281  0.0118
 2240TIP3    H1 6661   3.045   4.628   5.145  0.6624  0.3964  0.1001
 2240TIP3    H2 6662   3.032   4.551   5.275  0.3950  0.3747  0.0602
 2241TIP3   OH2 6663   6.892   3.908   1.002  0.0446 -0.2673  0.1898
 2241TIP3    H1 6664   6.973   3.932   0.957  0.6846  2.6239  2.4922
 2241TIP3    H2 6665   6.837   3.868   0.935  2.8664 -1.1535 -1.7581
 2242TIP3   OH2 6666   7.223   5.024   2.384 -0.0869 -0.5557  0.6268
 2242TIP3    H1 6667   7.195   4.957   2.445  0.3240  0.3300  1.8200
 2242TIP3    H2 6668   7.304   4.991   2.346  0.8469 -0.1915  2.2025
 2243TIP3   OH2 6669   6.796   3.011   3.315  0.0455 -0.0272  0.1987
 2243TIP3    H1 6670   6.771   3.097   3.351 -0.6106 -0.5434  1.0014
 2243TIP3    H2 6671   6.833   2.964   3.390 -0.0299 -0.6136 -0.1364
 2244TIP3   OH2 6672   1.625   0.988   5.304  0.1878 -0.0060  0.5693
 2244TIP3    H1 6673   1.554   1.045   5.277 -1.7776 -1.4344  2.4060
 2244TIP3    H2 6674   1.583   0.904   5.322  2.6630 -1.5190 -0.2040
 2245TIP3   OH2 6675   4.532   6.274   0.275 -0.7119 -0.4246 -0.7270
 2245TIP3    H1 6676   4.455   6.315   0.315  0.0070 -0.1827  0.4720
 2245TIP3    H2 6677   4.545   6.322   0.194 -0.6107  0.9283  0.0607
 2246TIP3   OH2 6678   1.598   1.286   4.148  0.0203  0.3338  0.4578
 2246TIP3    H1 6679   1.627   1.242   4.068  0.9242  0.4378  0.7093
 2246TIP3    H2 6680   1.627   1.227   4.219  0.4316  0.8825  0.7573
 2247TIP3   OH2 6681   6.445   4.382   3.278 -0.2766 -0.8792 -0.2107
 2247TIP3    H1 6682   6.359   4.358   3.242 -0.0216  0.5192 -1.8908
 2247TIP3    H2 6683   6.455   4.474   3.254  1.5050 -0.8946  0.3921
 2248TIP3   OH2 6684   4.157   6.532   3.261 -0.2880 -0.1195  0.0559
 2248TIP3    H1 6685   4.105   6.460   3.296 -0.2817  0.6032  1.6390
 2248TIP3    H2 6686   4.092   6.593   3.224 -0.3357 -0.6252 -0.7061
 2249TIP3   OH2 6687   6.944   1.633   2.484  0.0820 -0.2167 -0.2605
 2249TIP3    H1 6688   6.877   1.695   2.454 -0.6131 -1.1765 -0.7513
 2249TIP3    H2 6689   6.930   1.626   2.578  1.4600  1.8552  0.1611
 2250TIP3   OH2 6690   0.989   7.235   6.080  0.1793  0.0549 -0.5221
 2250TIP3    H1 6691   0.956   7.291   6.151  2.7609  1.1989 -0.1196
 2250TIP3    H2 6692   0.949   7.271   6.001  0.9537  1.8674 -0.1445
 2251TIP3   OH2 6693   0.917   0.200   3.591 -0.1534  0.4620  0.3188
 2251TIP3    H1 6694   0.988   0.216   3.530 -1.6366  1.6461 -1.2020
 2251TIP3    H2 6695   0.940   0.250   3.669 -0.1891  2.4288 -0.8745
 2252TIP3   OH2 6696   0.055   2.574   0.053  0.1644  0.0984  0.6884
 2252TIP3    H1 6697  -0.019   2.614   0.098 -0.1676 -0.6780  0.8425
 2252TIP3    H2 6698   0.129   2.587   0.113 -0.1540 -0.4092  1.2020
 2253TIP3   OH2 6699   6.669   7.519   4.820  0.1130  0.2067 -0.0253
 2253TIP3    H1 6700   6.716   7.572   4.884 -0.1286 -0.1158  0.4261
 2253TIP3    H2 6701   6.640   7.581   4.754  0.0778  0.5952  0.3526
 2254TIP3   OH2 6702   1.251   7.605   6.322  0.3198 -0.5033 -0.3819
 2254TIP3    H1 6703   1.271   7.697   6.335  1.0249 -0.8343  1.0322
 2254TIP3    H2 6704   1.155   7.599   6.329  0.3582 -0.0343  0.6477
 2255TIP3   OH2 6705   3.259   4.798   6.235 -0.2464  0.5752  0.2380
 2255TIP3    H1 6706   3.314   4.876   6.241  0.1244  0.3137  0.3024
 2255TIP3    H2 6707   3.288   4.743   6.307  1.4987 -0.8773 -1.4572
 2256TIP3   OH2 6708   0.824   3.287   2.002 -0.3663 -0.3782  0.2568
 2256TIP3    H1 6709   0.789   3.376   2.008  0.7899  0.0200  1.6652
 2256TIP3    H2 6710   0.799   3.258   1.915  1.4427  2.2948 -1.3116
 2257TIP3   OH2 6711   2.949   7.789   4.159 -0.5575 -0.5871  0.5702
 2257TIP3    H1 6712   2.960   7.694   4.160 -1.7374 -0.8328 -1.9467
 2257TIP3    H2 6713   3.037   7.822   4.140  0.1856 -1.0035  2.9212
 2258TIP3   OH2 6714   0.576   1.209   6.244  0.2906  0.2194  0.1416
 2258TIP3    H1 6715   0.568   1.113   6.247 -0.1968  0.2365 -0.4199
 2258TIP3    H2 6716   0.487   1.241   6.252  0.6368  0.7238  2.5656
 2259TIP3   OH2 6717   3.555   0.897   0.482 -0.0014 -0.3576 -0.3132
 2259TIP3    H1 6718   3.513   0.812   0.476 -0.0240 -0.3097 -0.8778
 2259TIP3    H2 6719   3.483   0.960   0.478 -0.0978 -0.3264  1.3110
 2260TIP3   OH2 6720   4.645   0.994   6.567 -0.2002  0.3477  0.0086
 2260TIP3    H1 6721   4.696   0.993   6.647 -0.9852  1.7364  0.5702
 2260TIP3    H2 6722   4.704   1.031   6.501 -0.1006  0.8748  0.3834
 2261TIP3   OH2 6723   7.713   3.367   0.815 -0.0691  0.4526 -0.1897
 2261TIP3    H1 6724   7.627   3.328   0.830 -0.0127  0.8025  1.0802
 2261TIP3    H2 6725   7.751   3.313   0.745 -0.5420 -0.9214  0.5855
 2262TIP3   OH2 6726   3.604   7.696   6.356 -0.3615 -0.6041  0.4773
 2262TIP3    H1 6727   3.697   7.717   6.352 -0.5346  0.0234 -1.1976
 2262TIP3    H2 6728   3.595   7.616   6.303 -0.8366 -0.3712  0.1962
 2263TIP3   OH2 6729   0.105   6.941   4.261 -0.1393  0.3332 -0.1470
 2263TIP3    H1 6730   0.099   7.030   4.225  0.3889  0.5918  0.3989
 2263TIP3    H2 6731   0.014   6.917   4.280 -0.3878  0.3730 -1.1968
 2264TIP3   OH2 6732   7.679   4.054   0.871 -0.0217 -0.0346 -0.3454
 2264TIP3    H1 6733   7.755   4.013   0.830 -0.1728 -1.5609  0.7956
 2264TIP3    H2 6734   7.654   3.994   0.941 -2.1019  0.5763 -0.4800
 2265TIP3   OH2 6735   4.677   0.641   4.681 -0.1475  0.1919  0.2227
 2265TIP3    H1 6736   4.691   0.662   4.774  0.6180  0.9621 -0.0513
 2265TIP3    H2 6737   4.618   0.709   4.649 -1.8664 -1.0862  0.5428
 2266TIP3   OH2 6738   0.599   3.173   4.504 -0.0848  0.1036  0.3370
 2266TIP3    H1 6739   0.531   3.239   4.524  0.0431 -0.2980  2.3823
 2266TIP3    H2 6740   0.556   3.089   4.521  0.5440 -0.2124  0.3959
 2267TIP3   OH2 6741   2.954   7.366   3.079 -1.0197 -0.4300  0.5680
 2267TIP3    H1 6742   2.945   7.296   3.014  2.1435 -0.5465  0.0685
 2267TIP3    H2 6743   3.037   7.409   3.056 -1.2225  1.3910  2.8383
 2268TIP3   OH2 6744   2.053   2.263   6.045 -0.8425 -0.2973  0.2901
 2268TIP3    H1 6745   2.086   2.174   6.044 -2.4863 -0.9616  1.0687
 2268TIP3    H2 6746   1.990   2.267   5.974 -1.1991  0.0705  0.6174
 2269TIP3   OH2 6747   2.536   4.574   2.792  0.0204  0.3049 -0.7369
 2269TIP3    H1 6748   2.585   4.495   2.774 -0.8530 -0.1470 -1.2018
 2269TIP3    H2 6749   2.474   4.582   2.719 -0.9459  0.5614  0.0751
 2270TIP3   OH2 6750   8.071   6.247   2.570 -0.3291  0.0980 -0.2063
 2270TIP3    H1 6751   8.054   6.224   2.479  2.7833 -0.5771 -0.7557
 2270TIP3    H2 6752   8.160   6.216   2.586 -0.2881  1.3527  2.6927
 2271TIP3   OH2 6753   1.892   0.276   1.212 -0.1458  0.2082 -0.3160
 2271TIP3    H1 6754   1.854   0.192   1.183  0.4444  0.1418 -0.8954
 2271TIP3    H2 6755   1.943   0.253   1.290  0.1240  0.0087 -0.5524
 2272TIP3   OH2 6756   0.137   5.551   2.156  0.4964  0.5634 -0.0876
 2272TIP3    H1 6757   0.128   5.646   2.150 -0.8739  0.4965  0.5301
 2272TIP3    H2 6758   0.085   5.517   2.083  1.9653  0.2788 -1.0597
 2273TIP3   OH2 6759   3.475   7.125   5.645 -0.5051 -0.6881 -0.1555
 2273TIP3    H1 6760   3.495   7.105   5.737 -0.1410 -0.6043 -0.2158
 2273TIP3    H2 6761   3.460   7.039   5.605  1.1767 -0.8904 -0.4412
 2274TIP3   OH2 6762   7.807   2.679   1.472 -0.6039  0.0827 -0.2877
 2274TIP3    H1 6763   7.889   2.634   1.453 -0.1170  0.9932 -0.3943
 2274TIP3    H2 6764   7.802   2.681   1.568 -1.0516 -0.9292 -0.2781
 2275TIP3   OH2 6765   5.540   3.352   0.803  0.0498  0.3145 -0.4134
 2275TIP3    H1 6766   5.608   3.395   0.751 -1.5014  1.8965 -1.2396
 2275TIP3    H2 6767   5.495   3.295   0.740  1.0686 -1.3647  0.3130
 2276TIP3   OH2 6768   3.105   6.870   4.398 -0.0360 -0.2179  0.5555
 2276TIP3    H1 6769   3.028   6.872   4.456 -0.5700  1.0533 -0.1570
 2276TIP3    H2 6770   3.070   6.884   4.310  1.0372  0.7202  0.2544
 2277TIP3   OH2 6771   1.752   3.740   0.864  0.2606 -0.2556 -0.3771
 2277TIP3    H1 6772   1.753   3.766   0.956 -0.3292 -0.4647 -0.3117
 2277TIP3    H2 6773   1.713   3.653   0.863  0.7451 -0.4819 -0.7739
 2278TIP3   OH2 6774   5.101   3.878   5.598 -0.2483  0.0687 -0.3839
 2278TIP3    H1 6775   5.190   3.860   5.625 -0.3835  0.1231  0.1033
 2278TIP3    H2 6776   5.100   3.972   5.578 -0.1640  0.0407 -0.5180
 2279TIP3   OH2 6777   1.852   7.892   4.310 -0.0102 -0.8447 -0.6491
 2279TIP3    H1 6778   1.897   7.973   4.286  2.1633 -2.2341 -1.5800
 2279TIP3    H2 6779   1.862   7.886   4.405 -0.1136 -0.0633 -0.5869
 2280TIP3   OH2 6780   6.143   2.171   3.062  0.3713  0.3697  0.3202
 2280TIP3    H1 6781   6.197   2.206   3.133  1.7307 -1.8279  0.4764
 2280TIP3    H2 6782   6.080   2.114   3.106 -0.1091  0.5524 -0.1152
 2281TIP3   OH2 6783   1.340   0.704   1.348 -0.1652 -0.0764  0.3424
 2281TIP3    H1 6784   1.366   0.744   1.266 -1.4111 -1.7181 -0.9338
 2281TIP3    H2 6785   1.422   0.690   1.396  0.6094  0.6475 -0.7339
 2282TIP3   OH2 6786   0.209   1.405   0.725  0.3275  0.0752  0.3703
 2282TIP3    H1 6787   0.212   1.321   0.771 -1.0300  1.1633  2.5849
 2282TIP3    H2 6788   0.301   1.429   0.713  0.7287 -1.4338  0.1963
 2283TIP3   OH2 6789   3.773   3.007   0.476  0.0526  0.0067  0.3148
 2283TIP3    H1 6790   3.782   3.026   0.569  0.3904 -0.3912  0.3676
 2283TIP3    H2 6791   3.745   2.916   0.473  0.7196 -0.1921  0.0114
 2284TIP3   OH2 6792   7.725   3.593   2.698 -0.4815 -0.1104 -0.0498
 2284TIP3    H1 6793   7.713   3.678   2.740 -2.1250  0.1225 -0.8953
 2284TIP3    H2 6794   7.680   3.531   2.755  0.7611 -0.4649  0.5949
 2285TIP3   OH2 6795   3.092   0.672   4.755 -0.2505  0.4181  0.1257
 2285TIP3    H1 6796   3.126   0.617   4.685 -0.8460  0.3103 -0.0826
 2285TIP3    H2 6797   3.017   0.717   4.717  1.2041  2.6957 -0.2421
 2286TIP3   OH2 6798   1.064   1.109   6.778 -0.2374 -0.1973  0.0435
 2286TIP3    H1 6799   1.050   1.051   6.853 -0.2072 -1.7483 -1.0962
 2286TIP3    H2 6800   0.979   1.110   6.732  0.2095 -0.6520 -0.8182
 2287TIP3   OH2 6801   3.737   2.304   3.761 -0.4389 -0.1534 -0.2121
 2287TIP3    H1 6802   3.752   2.345   3.846  0.7166 -0.9757  0.0091
 2287TIP3    H2 6803   3.671   2.359   3.719 -0.9047  0.3598  1.1403
 2288TIP3   OH2 6804   1.870   7.016   3.016 -0.0816  0.2614 -0.1189
 2288TIP3    H1 6805   1.958   7.000   2.983  0.0165  2.9129 -1.3886
 2288TIP3    H2 6806   1.854   7.109   2.998 -1.9247  0.6904  2.9733
 2289TIP3   OH2 6807   7.070   0.493   6.378 -0.5401 -0.2552  0.2423
 2289TIP3    H1 6808   7.134   0.564   6.370 -0.6180 -0.2620 -0.4890
 2289TIP3    H2 6809   7.082   0.440   6.300 -2.5208  0.6526 -0.7491
 2290TIP3   OH2 6810   5.106   1.748   5.449  0.0814 -0.7922  0.0400
 2290TIP3    H1 6811   5.079   1.829   5.492 -1.9451 -0.2853 -1.9895
 2290TIP3    H2 6812   5.048   1.681   5.485  1.9267 -1.4699  1.9073
 2291TIP3   OH2 6813   5.429   1.787   2.257 -0.5771 -0.0960  0.0448
 2291TIP3    H1 6814   5.379   1.773   2.338 -0.5145  0.8554  0.2584
 2291TIP3    H2 6815   5.492   1.715   2.255 -1.0718 -0.5512  0.4586
 2292TIP3   OH2 6816   2.439   4.982   0.802  0.3157 -0.0072 -0.0835
 2292TIP3    H1 6817   2.383   5.008   0.729  1.1816  2.1605 -0.0415
 2292TIP3    H2 6818   2.378   4.967   0.874 -0.6052 -2.6275 -1.2432
 2293TIP3   OH2 6819   8.189   3.276   6.312  0.0851  0.1212 -0.1169
 2293TIP3    H1 6820   8.169   3.183   6.311  2.3810 -0.4324 -2.1222
 2293TIP3    H2 6821   8.279   3.282   6.343 -0.1736  1.7620  0.4711
 2294TIP3   OH2 6822   7.876   3.915   4.370  0.3776 -0.0231 -0.0746
 2294TIP3    H1 6823   7.801   3.869   4.331  0.1365  1.6140 -1.6909
 2294TIP3    H2 6824   7.837   3.973   4.435  0.4612 -0.5581  0.4596
 2295TIP3   OH2 6825   2.427   5.541   3.687  0.3891  0.0354 -0.3846
 2295TIP3    H1 6826   2.340   5.582   3.690  0.6397  0.5171  0.4563
 2295TIP3    H2 6827   2.478   5.598   3.630  0.2074 -0.1641 -0.7552
 2296TIP3   OH2 6828   0.385   3.177   2.490  0.0838  0.1022  0.2639
 2296TIP3    H1 6829   0.290   3.186   2.482  0.2106  0.7560 -0.6842
 2296TIP3    H2 6830   0.412   3.131   2.410  0.4553 -1.0651  1.0317
 2297TIP3   OH2 6831   6.314   3.855   0.139  0.2065 -0.1704 -0.1758
 2297TIP3    H1 6832   6.283   3.776   0.094  0.5450 -0.0478 -0.6344
 2297TIP3    H2 6833   6.326   3.919   0.069 -1.9170  0.9326  0.3908
 2298TIP3   OH2 6834   7.428   7.298   6.477  0.2734 -0.0153  0.5147
 2298TIP3    H1 6835   7.488   7.367   6.447 -1.3539  0.3244 -2.3701
 2298TIP3    H2 6836   7.459   7.219   6.433 -0.6010 -0.1103  0.0526
 2299TIP3   OH2 6837   5.545   2.230   4.361  0.2107 -0.1099  0.2927
 2299TIP3    H1 6838   5.503   2.316   4.367  0.0111 -0.3058  2.6878
 2299TIP3    H2 6839   5.473   2.169   4.350  0.0051 -0.2378  2.0798
 2300TIP3   OH2 6840   3.031   5.741   0.324 -0.2757 -0.3225  0.1405
 2300TIP3    H1 6841   2.953   5.707   0.368 -0.6538  0.7114  0.2862
 2300TIP3    H2 6842   3.044   5.681   0.250 -1.2857 -0.4340  0.0400
 2301TIP3   OH2 6843   0.513   0.057   6.596 -0.3939 -0.5832 -0.0234
 2301TIP3    H1 6844   0.458  -0.000   6.543 -0.2454 -3.2421  2.4354
 2301TIP3    H2 6845   0.603   0.034   6.571 -0.2328  1.9351 -2.2072
 2302TIP3   OH2 6846   0.465   4.819   0.084  0.0575 -0.5341  0.0278
 2302TIP3    H1 6847   0.500   4.874   0.154 -1.4613 -0.0223  0.4172
 2302TIP3    H2 6848   0.486   4.867   0.004  0.0064 -0.0969  0.2711
 2303TIP3   OH2 6849   4.052   0.189   2.368 -0.7145  0.1086 -0.1279
 2303TIP3    H1 6850   4.092   0.274   2.347 -0.6086 -0.4838 -2.5374
 2303TIP3    H2 6851   4.102   0.157   2.443 -0.2352  1.7955  0.3154
 2304TIP3   OH2 6852   6.330   4.862   3.853 -0.6215  0.0690  0.2149
 2304TIP3    H1 6853   6.390   4.937   3.854 -0.1181 -0.3093 -0.7258
 2304TIP3    H2 6854   6.369   4.800   3.791 -1.7004 -0.4200 -0.0039
 2305TIP3   OH2 6855   4.437   5.515   1.873  0.4761  0.2709 -0.2949
 2305TIP3    H1 6856   4.526   5.502   1.904  0.3227 -0.0879  0.0077
 2305TIP3    H2 6857   4.386   5.535   1.951  0.5170  1.8115 -0.6297
 2306TIP3   OH2 6858   5.520   4.294   4.800  0.0136 -0.1840 -0.1106
 2306TIP3    H1 6859   5.591   4.299   4.736  0.6873  1.4518  0.7111
 2306TIP3    H2 6860   5.551   4.346   4.874 -0.9763 -1.5757  1.3356
 2307TIP3   OH2 6861   6.675   7.812   3.180  0.2899 -0.3739  0.1740
 2307TIP3    H1 6862   6.689   7.726   3.218  0.2074  0.3100  1.8210
 2307TIP3    H2 6863   6.739   7.869   3.223 -0.0250  0.4982 -0.4778
 2308TIP3   OH2 6864   2.916   3.663   6.717 -0.4598 -0.6418  0.1284
 2308TIP3    H1 6865   2.929   3.743   6.666  1.3720 -0.3706  0.9245
 2308TIP3    H2 6866   2.923   3.592   6.652 -1.4109 -0.1988 -0.4749
 2309TIP3   OH2 6867   7.037   7.423   0.814 -0.5171 -0.5556  0.0833
 2309TIP3    H1 6868   7.105   7.421   0.881 -0.5765 -2.0063  0.1415
 2309TIP3    H2 6869   7.083   7.441   0.732 -0.3953  0.8132  0.4223
 2310TIP3   OH2 6870   3.982   3.147   2.790  0.4641  0.2529  0.3401
 2310TIP3    H1 6871   3.998   3.130   2.883  2.2394  1.7336  0.3667
 2310TIP3    H2 6872   4.064   3.122   2.748  0.1047  0.7483 -0.6718
 2311TIP3   OH2 6873   4.792   3.700   3.143 -0.1929 -0.8559  0.3787
 2311TIP3    H1 6874   4.854   3.632   3.169  0.4304 -0.7082 -0.6364
 2311TIP3    H2 6875   4.716   3.652   3.110 -1.0474 -1.0443  2.4642
 2312TIP3   OH2 6876   6.706   6.853   5.907 -0.4515 -0.0927 -0.2286
 2312TIP3    H1 6877   6.657   6.884   5.831 -2.2497 -1.9457  0.0729
 2312TIP3    H2 6878   6.796   6.882   5.892 -1.2359  1.6996 -1.8170
 2313TIP3   OH2 6879   1.729   1.581   5.487 -0.2973  0.3130  0.1857
 2313TIP3    H1 6880   1.727   1.584   5.583  0.1700  0.4854  0.1938
 2313TIP3    H2 6881   1.716   1.488   5.466  3.3023 -0.4347  0.5613
 2314TIP3   OH2 6882   7.810   4.174   3.176 -0.0971 -0.0827 -0.2989
 2314TIP3    H1 6883   7.894   4.207   3.208 -0.2357  0.3117 -0.3445
 2314TIP3    H2 6884   7.756   4.252   3.163  0.3811 -0.0862 -2.7885
 2315TIP3   OH2 6885   3.218   5.683   3.382 -0.0353  0.7111 -0.5737
 2315TIP3    H1 6886   3.213   5.701   3.288  1.6254 -1.3043 -1.1102
 2315TIP3    H2 6887   3.301   5.721   3.410  0.4446 -0.4388 -0.3839
 2316TIP3   OH2 6888   1.886   7.114   3.683  0.5423  0.2008  0.1036
 2316TIP3    H1 6889   1.918   7.173   3.751  0.1334 -0.6982  1.1222
 2316TIP3    H2 6890   1.873   7.031   3.729  0.9423 -0.6363 -1.2456
 2317TIP3   OH2 6891   2.157   3.784   4.091  0.3285  0.2074 -0.2751
 2317TIP3    H1 6892   2.242   3.740   4.086  0.7195  0.8590  0.5607
 2317TIP3    H2 6893   2.093   3.713   4.080  0.9339 -0.6440  1.3811
 2318TIP3   OH2 6894   5.994   5.189   0.287 -0.6561  0.7151  0.2985
 2318TIP3    H1 6895   6.078   5.208   0.244 -1.1034 -0.4596 -1.1496
 2318TIP3    H2 6896   6.019   5.164   0.376  0.4026  1.8329  0.3455
 2319TIP3   OH2 6897   2.164   5.304   1.403 -0.4178 -0.1902  0.1656
 2319TIP3    H1 6898   2.080   5.306   1.358  0.5161  1.8135 -1.6581
 2319TIP3    H2 6899   2.222   5.255   1.345  0.2240  0.3907  0.2950
 2320TIP3   OH2 6900   1.667   6.041   4.366  0.2352  0.4919  0.5069
 2320TIP3    H1 6901   1.635   5.998   4.287 -0.0215  0.4913  0.6080
 2320TIP3    H2 6902   1.736   6.100   4.336 -0.2153  0.8747  0.2125
 2321TIP3   OH2 6903   0.088   0.325   0.103 -0.2340  0.2895 -0.1118
 2321TIP3    H1 6904   0.105   0.395   0.166 -0.4719  0.6283 -0.4193
 2321TIP3    H2 6905   0.039   0.367   0.033  1.1493  0.2011 -1.1559
 2322TIP3   OH2 6906   3.853   2.734   2.676  0.1539 -0.2330  0.5489
 2322TIP3    H1 6907   3.883   2.668   2.739  2.0372 -2.1617 -2.1822
 2322TIP3    H2 6908   3.933   2.775   2.645 -0.8014  1.2277 -0.0917
 2323TIP3   OH2 6909   5.457   6.324   0.852  0.5580  0.5657 -0.2680
 2323TIP3    H1 6910   5.428   6.337   0.761 -0.4658 -1.1679 -0.2289
 2323TIP3    H2 6911   5.530   6.263   0.845 -0.2444 -0.4608  0.1332
 2324TIP3   OH2 6912   5.386   1.522   3.977 -0.0003  0.6235  0.5693
 2324TIP3    H1 6913   5.373   1.462   4.051 -1.4104  1.2364  0.8541
 2324TIP3    H2 6914   5.297   1.543   3.948  0.4737  2.1662  0.1460
 2325TIP3   OH2 6915   7.129   2.484   4.469  0.6150  0.1693 -0.0259
 2325TIP3    H1 6916   7.192   2.517   4.533  1.0809 -0.8490  0.0639
 2325TIP3    H2 6917   7.181   2.473   4.389  0.9279 -2.0038  0.4220
 2326TIP3   OH2 6918   8.397   5.343   3.886  0.0775  0.1740  0.6288
 2326TIP3    H1 6919   8.320   5.376   3.841  2.1140  1.6559 -2.0934
 2326TIP3    H2 6920   8.376   5.252   3.906 -2.3938  0.5690  0.0998
 2327TIP3   OH2 6921   0.174   2.754   4.377 -0.3960 -0.0852 -0.1811
 2327TIP3    H1 6922   0.169   2.830   4.435 -0.0604 -0.5279  0.4442
 2327TIP3    H2 6923   0.162   2.790   4.289 -1.1593  0.5649  0.1749
 2328TIP3   OH2 6924   2.236   0.439   1.475 -0.4950 -0.2549  0.5634
 2328TIP3    H1 6925   2.265   0.366   1.529 -0.1536 -0.4184  0.1686
 2328TIP3    H2 6926   2.269   0.517   1.519 -0.6443 -0.3577  0.8537
 2329TIP3   OH2 6927   4.763   5.846   4.970 -0.0160  0.2584  0.3286
 2329TIP3    H1 6928   4.681   5.800   4.984 -0.4442  0.6149 -0.8770
 2329TIP3    H2 6929   4.737   5.930   4.932  0.9319 -0.0689 -1.1555
 2330TIP3   OH2 6930   0.206   2.755   3.734 -0.4608  0.1559 -0.8282
 2330TIP3    H1 6931   0.144   2.729   3.665 -0.4381  1.0887 -1.2079
 2330TIP3    H2 6932   0.182   2.844   3.756 -0.2426 -0.0194  0.1433
 2331TIP3   OH2 6933   2.852   4.620   1.837  0.4561  0.6180  0.4853
 2331TIP3    H1 6934   2.876   4.697   1.786 -1.7842  0.0760 -1.6052
 2331TIP3    H2 6935   2.813   4.656   1.917  0.0904  1.6473 -0.1374
 2332TIP3   OH2 6936   6.819   6.159   2.229  0.1069  0.0441 -0.1555
 2332TIP3    H1 6937   6.732   6.197   2.227  0.4683  0.8827 -0.6621
 2332TIP3    H2 6938   6.848   6.169   2.319  0.3689  1.4039 -0.3758
 2333TIP3   OH2 6939   1.191   0.819   5.943 -0.0998  0.1980 -0.1042
 2333TIP3    H1 6940   1.286   0.808   5.933  0.0929  1.1268  0.6097
 2333TIP3    H2 6941   1.179   0.912   5.963 -1.0065 -0.2253  1.5125
 2334TIP3   OH2 6942   6.020   0.569   2.941  0.1729 -0.1525  0.1573
 2334TIP3    H1 6943   6.023   0.494   3.000  0.6910  0.3484  0.7795
 2334TIP3    H2 6944   5.996   0.642   2.997  0.7939  0.3484 -0.2210
 2335TIP3   OH2 6945   6.021   2.316   6.158  0.2061 -0.0943 -0.5713
 2335TIP3    H1 6946   6.088   2.299   6.092  0.8047  0.2146 -0.0639
 2335TIP3    H2 6947   6.069   2.358   6.230 -0.3420 -0.8514  0.2568
 2336TIP3   OH2 6948   7.899   1.800   2.354 -0.0997  0.0267 -0.3402
 2336TIP3    H1 6949   7.939   1.727   2.307 -0.6144 -1.0238  0.8026
 2336TIP3    H2 6950   7.915   1.781   2.446  0.8765  2.0355 -0.0389
 2337TIP3   OH2 6951   6.979   7.409   4.953 -0.5191 -1.1602  0.6244
 2337TIP3    H1 6952   6.895   7.378   4.987 -0.8619 -0.4293  0.4748
 2337TIP3    H2 6953   6.992   7.361   4.871 -1.6342 -0.0598 -0.2360
 2338TIP3   OH2 6954   7.848   1.089   5.426 -0.4780 -0.5360  0.2422
 2338TIP3    H1 6955   7.932   1.132   5.445  0.5017 -2.3077  0.1802
 2338TIP3    H2 6956   7.805   1.083   5.512 -0.8951  1.0417  0.1606
 2339TIP3   OH2 6957   4.082   0.824   2.925 -0.1932  0.0153 -0.4749
 2339TIP3    H1 6958   4.093   0.916   2.945 -3.3883  0.6529 -1.0728
 2339TIP3    H2 6959   4.085   0.780   3.010  2.6928  0.3864 -0.2979
 2340TIP3   OH2 6960   8.284   4.661   0.124  0.3936 -0.6022  0.1651
 2340TIP3    H1 6961   8.298   4.740   0.072  3.1434 -0.4491  0.9480
 2340TIP3    H2 6962   8.230   4.690   0.198  0.2546  0.2161 -0.2443
 2341TIP3   OH2 6963   7.682   7.214   1.098 -0.0656  0.1857  0.1132
 2341TIP3    H1 6964   7.669   7.130   1.140  0.9700 -0.3326 -0.5513
 2341TIP3    H2 6965   7.719   7.193   1.012 -1.2969  1.2450 -0.7282
 2342TIP3   OH2 6966   1.301   5.900   1.873  0.0873  0.2545  0.0633
 2342TIP3    H1 6967   1.247   5.821   1.873  1.3543 -0.6491 -0.2761
 2342TIP3    H2 6968   1.283   5.941   1.788 -0.4648  0.2562  0.1777
 2343TIP3   OH2 6969   5.014   5.277   0.108  0.0190 -0.1828  0.2091
 2343TIP3    H1 6970   5.071   5.345   0.144 -1.6325  0.6669  1.3513
 2343TIP3    H2 6971   4.929   5.294   0.148 -0.6991 -2.2886 -0.3107
 2344TIP3   OH2 6972   1.450   7.046   5.849 -0.5967  0.3419 -0.3476
 2344TIP3    H1 6973   1.498   7.041   5.767  1.8745 -0.9849  1.0586
 2344TIP3    H2 6974   1.436   7.139   5.863  0.4584  0.6885 -1.4441
 2345TIP3   OH2 6975   5.029   6.242   1.846 -0.4298 -0.5914  0.1994
 2345TIP3    H1 6976   5.048   6.244   1.940 -1.6151  0.0067  0.4546
 2345TIP3    H2 6977   5.090   6.306   1.808 -0.5352 -0.1834  0.6964
 2346TIP3   OH2 6978   3.552   3.234   6.486 -0.3219 -0.4535  0.0329
 2346TIP3    H1 6979   3.553   3.325   6.514 -0.9499 -0.9549  1.8309
 2346TIP3    H2 6980   3.643   3.205   6.493 -0.2468 -0.1737  0.2203
 2347TIP3   OH2 6981   8.168   3.027   6.448 -0.4962 -0.2735 -0.3574
 2347TIP3    H1 6982   8.140   3.067   6.531  1.4680  2.2041 -0.7695
 2347TIP3    H2 6983   8.092   2.976   6.420 -2.4679  1.4949  1.3279
 2348TIP3   OH2 6984   2.537   7.100   3.689 -0.0624  0.9911  0.2634
 2348TIP3    H1 6985   2.558   7.185   3.650  0.2553 -0.2964 -2.6613
 2348TIP3    H2 6986   2.577   7.036   3.630  0.7892 -1.2298  3.0332
 2349TIP3   OH2 6987   0.562   0.137   0.673  0.3291 -0.1500  0.4806
 2349TIP3    H1 6988   0.568   0.102   0.762 -1.3810  1.4652  1.2899
 2349TIP3    H2 6989   0.652   0.134   0.640  0.7680 -2.1347  1.6891
 2350TIP3   OH2 6990   4.000   5.797   2.302 -0.3442 -0.8107 -0.3673
 2350TIP3    H1 6991   3.925   5.846   2.267  0.0445  0.3891  0.4512
 2350TIP3    H2 6992   3.961   5.733   2.361 -0.7543 -0.4571 -0.2512
 2351TIP3   OH2 6993   0.892   6.393   2.041  0.2872  0.4366  0.0118
 2351TIP3    H1 6994   0.960   6.341   1.998  0.3933  1.4649 -1.1319
 2351TIP3    H2 6995   0.939   6.465   2.083  0.0883 -0.0404  1.0858
 2352TIP3   OH2 6996   3.062   1.621   6.548 -0.0554 -0.0025 -0.5020
 2352TIP3    H1 6997   3.016   1.544   6.583 -0.2859 -0.1832 -1.1962
 2352TIP3    H2 6998   3.109   1.657   6.624 -1.0146 -0.0444  0.1402
 2353TIP3   OH2 6999   2.305   4.283   1.882  0.1324  0.0110  0.3912
 2353TIP3    H1 7000   2.354   4.366   1.884  1.6889 -0.5548 -3.7684
 2353TIP3    H2 7001   2.223   4.305   1.837  1.1296 -0.8082 -1.9705
 2354TIP3   OH2 7002   5.649   1.287   3.765 -0.4135 -0.1844 -0.7652
 2354TIP3    H1 7003   5.637   1.382   3.766 -2.3384 -0.3073 -3.0517
 2354TIP3    H2 7004   5.716   1.271   3.831 -1.5623  2.5302  1.2457
 2355TIP3   OH2 7005   5.665   0.465   6.072 -0.3198 -0.0683 -0.4442
 2355TIP3    H1 7006   5.728   0.402   6.106 -0.6453  0.2078  0.7021
 2355TIP3    H2 7007   5.671   0.455   5.977 -1.4316 -2.9279 -0.3191
 2356TIP3   OH2 7008   2.267   3.410   2.279  0.0741  0.3347  0.2183
 2356TIP3    H1 7009   2.248   3.489   2.329 -0.4102  1.7563 -2.0712
 2356TIP3    H2 7010   2.332   3.438   2.214 -0.4441 -1.0133 -0.9386
 2357TIP3   OH2 7011   0.694   0.073   3.706 -0.0106 -0.4495 -0.4133
 2357TIP3    H1 7012   0.769   0.123   3.675  0.4825  0.6062  2.2084
 2357TIP3    H2 7013   0.642   0.056   3.628  0.9329  2.2786 -1.7484
 2358TIP3   OH2 7014   3.661   4.884   6.134 -0.3220  0.1972 -0.8007
 2358TIP3    H1 7015   3.649   4.848   6.047  0.1475  1.4509 -1.4144
 2358TIP3    H2 7016   3.753   4.912   6.137 -0.4660  0.6512 -0.1055
 2359TIP3   OH2 7017   5.799   3.158   6.232 -0.6226  0.0648 -0.6491
 2359TIP3    H1 7018   5.757   3.075   6.253  2.9040 -1.5713  0.8213
 2359TIP3    H2 7019   5.837   3.145   6.145  1.8736 -0.9232  0.4672
 2360TIP3   OH2 7020   1.141   0.318   4.550 -0.1111 -0.1017  0.4463
 2360TIP3    H1 7021   1.132   0.228   4.582  2.7171 -1.6724 -2.5163
 2360TIP3    H2 7022   1.062   0.334   4.499 -0.4390 -1.1100  0.6193
 2361TIP3   OH2 7023   1.788   1.520   4.341  0.1944 -0.1632 -0.6173
 2361TIP3    H1 7024   1.718   1.456   4.339  0.3376 -0.3104 -0.9070
 2361TIP3    H2 7025   1.850   1.485   4.405 -0.3736  0.3684  0.2485
 2362TIP3   OH2 7026   7.946   6.639   4.534  0.1105 -0.1817 -0.4565
 2362TIP3    H1 7027   7.992   6.699   4.593 -0.5870  0.2224 -0.3094
 2362TIP3    H2 7028   7.972   6.551   4.564 -2.2155 -0.1158  2.2143
 2363TIP3   OH2 7029   7.634   2.889   4.026 -0.1288  0.1523  0.2392
 2363TIP3    H1 7030   7.690   2.946   4.078  0.0564  0.7319 -0.5744
 2363TIP3    H2 7031   7.652   2.801   4.058 -0.2643  0.5231  1.3754
 2364TIP3   OH2 7032   1.220   1.576   4.709 -0.1492  0.3750  0.3351
 2364TIP3    H1 7033   1.133   1.542   4.688  0.3148 -0.1328 -0.8525
 2364TIP3    H2 7034   1.260   1.594   4.624  0.0243  2.9775  0.8692
 2365TIP3   OH2 7035   0.796   6.386   6.324 -0.1237  0.4299  0.3005
 2365TIP3    H1 7036   0.861   6.456   6.323  1.9185 -1.3444  0.3404
 2365TIP3    H2 7037   0.804   6.345   6.238  0.7341 -1.4119  1.1925
 2366TIP3   OH2 7038   1.342   2.630   3.688 -0.2620 -0.3958 -0.5384
 2366TIP3    H1 7039   1.292   2.705   3.656  1.3863  1.0617  0.1627
 2366TIP3    H2 7040   1.294   2.600   3.766 -0.8863 -0.0411 -0.7820
 2367TIP3   OH2 7041   4.970   4.110  -0.008 -0.3589 -0.2037 -0.6092
 2367TIP3    H1 7042   4.908   4.038  -0.015  1.8449 -2.4009  0.8808
 2367TIP3    H2 7043   4.964   4.138   0.083  2.0662 -1.7908  0.1437
 2368TIP3   OH2 7044   4.758   3.836   6.125  0.5442 -0.1888  0.3033
 2368TIP3    H1 7045   4.839   3.886   6.137  1.6433 -1.6538 -0.5282
 2368TIP3    H2 7046   4.705   3.856   6.202  2.1269  0.0702  1.3778
 2369TIP3   OH2 7047   6.474   4.403   6.173 -0.0168  0.3224  0.2070
 2369TIP3    H1 7048   6.465   4.307   6.169 -0.0353  0.2965  0.7214
 2369TIP3    H2 7049   6.552   4.422   6.121 -1.0102  0.2070 -1.3681
 2370TIP3   OH2 7050   3.780   5.213   3.046 -0.3304  0.6205  0.4432
 2370TIP3    H1 7051   3.815   5.292   3.088 -0.7863  1.3431 -0.4941
 2370TIP3    H2 7052   3.689   5.236   3.024 -0.9177 -0.6477  1.3683
 2371TIP3   OH2 7053   4.403   7.189   5.729  0.3355 -0.0492  0.0522
 2371TIP3    H1 7054   4.460   7.265   5.738 -0.9706  0.8968  0.5657
 2371TIP3    H2 7055   4.375   7.168   5.818 -2.7893  1.6496 -0.3827
 2372TIP3   OH2 7056   4.650   2.600   3.244 -0.3119 -0.0400 -0.3356
 2372TIP3    H1 7057   4.718   2.667   3.240  0.3143 -0.3708  2.4713
 2372TIP3    H2 7058   4.697   2.519   3.265 -1.4682 -0.4385  0.8524
 2373TIP3   OH2 7059   2.729   6.539   1.044 -0.1577 -0.1896 -0.3144
 2373TIP3    H1 7060   2.635   6.557   1.041  0.0161  0.8021 -0.1626
 2373TIP3    H2 7061   2.741   6.488   1.124 -0.6819 -1.1231 -0.8095
 2374TIP3   OH2 7062   2.896   0.310   4.871 -0.3926  0.2042  0.0333
 2374TIP3    H1 7063   2.828   0.329   4.805  0.0300 -0.7518 -0.6900
 2374TIP3    H2 7064   2.928   0.397   4.896 -0.6470  0.6034 -0.9338
 2375TIP3   OH2 7065   4.282   1.280   6.225  0.1476  0.0614  0.0441
 2375TIP3    H1 7066   4.220   1.237   6.283  0.8909 -0.7079  0.2980
 2375TIP3    H2 7067   4.315   1.355   6.275  1.1749 -0.8929  0.8630
 2376TIP3   OH2 7068   1.175   5.519   3.233  0.7847  0.4395 -0.1427
 2376TIP3    H1 7069   1.099   5.527   3.292 -0.0815  2.0604 -1.3982
 2376TIP3    H2 7070   1.167   5.431   3.196  1.5995 -0.7973  2.4109
 2377TIP3   OH2 7071   3.914   3.558   2.684  0.0239 -0.0409  0.1971
 2377TIP3    H1 7072   3.860   3.587   2.758 -0.0846 -0.6922  0.3775
 2377TIP3    H2 7073   3.995   3.529   2.725  0.4199  0.6929 -0.0504
 2378TIP3   OH2 7074   4.255   4.306   6.816 -0.0422 -0.4380  0.6324
 2378TIP3    H1 7075   4.182   4.360   6.844 -0.6356 -1.8795  2.0633
 2378TIP3    H2 7076   4.251   4.307   6.720 -1.9608 -0.4891  0.6735
 2379TIP3   OH2 7077   8.041   3.538   6.341 -0.2637 -0.6624  0.3602
 2379TIP3    H1 7078   7.991   3.526   6.260  1.6597 -1.3491 -0.7974
 2379TIP3    H2 7079   8.096   3.459   6.346  1.7510  0.6966  0.7517
 2380TIP3   OH2 7080   4.773   1.855   0.355 -0.0742 -0.1574  0.5920
 2380TIP3    H1 7081   4.754   1.787   0.419  0.3287  1.1173  2.1261
 2380TIP3    H2 7082   4.857   1.891   0.382 -0.5904  1.3889  0.2197
 2381TIP3   OH2 7083   2.830   7.570   0.867 -0.2526  0.4075  0.3708
 2381TIP3    H1 7084   2.803   7.611   0.784 -1.2216 -2.4711 -0.8798
 2381TIP3    H2 7085   2.888   7.498   0.840  1.7447  1.1218  2.4604
 2382TIP3   OH2 7086   3.965   4.649   1.945 -0.0516 -0.3810  0.7345
 2382TIP3    H1 7087   4.011   4.715   1.893 -0.1241  0.2207  1.4261
 2382TIP3    H2 7088   4.014   4.568   1.931 -0.0905 -0.2425 -0.2964
 2383TIP3   OH2 7089   6.543   3.019   2.342 -0.2395 -0.4200  0.1523
 2383TIP3    H1 7090   6.521   3.006   2.250 -0.4914 -1.9398  0.4033
 2383TIP3    H2 7091   6.590   3.102   2.344 -3.3409  1.5001 -0.8160
 2384TIP3   OH2 7092   3.888   7.185   1.967  0.5171  0.0151 -0.0121
 2384TIP3    H1 7093   3.800   7.200   2.003  0.1488 -0.4380 -0.7171
 2384TIP3    H2 7094   3.928   7.272   1.964 -0.2085  0.3385 -0.4580
 2385TIP3   OH2 7095   0.986   6.200   6.098 -0.4038  0.0398 -0.1894
 2385TIP3    H1 7096   0.976   6.109   6.072 -0.2463 -0.0860  0.1764
 2385TIP3    H2 7097   0.899   6.238   6.086 -0.1858  0.1486 -1.4744
 2386TIP3   OH2 7098   3.042   2.824   4.799 -0.3647 -0.4335  0.2144
 2386TIP3    H1 7099   3.043   2.738   4.841  0.6225  0.2038  1.5417
 2386TIP3    H2 7100   3.129   2.859   4.814 -0.1819  0.0937 -1.8704
 2387TIP3   OH2 7101   6.056   5.574   1.927 -0.3704 -0.3111  0.6961
 2387TIP3    H1 7102   6.018   5.516   1.861 -2.3507  0.4239  1.1288
 2387TIP3    H2 7103   6.078   5.654   1.879 -0.4440 -0.3168  0.6529
 2388TIP3   OH2 7104   7.469   0.288   5.817  0.1869 -0.3592  0.2011
 2388TIP3    H1 7105   7.468   0.196   5.846  0.2189 -0.7758 -1.0609
 2388TIP3    H2 7106   7.411   0.289   5.741  0.2013  0.6808  0.2003
 2389TIP3   OH2 7107   6.136   6.904   0.230  0.0982 -0.3936 -0.2414
 2389TIP3    H1 7108   6.050   6.873   0.259 -0.2263  0.9754  0.3337
 2389TIP3    H2 7109   6.136   6.998   0.250  1.5803 -0.2907 -0.5953
 2390TIP3   OH2 7110   1.429   1.179   5.207  0.4143  0.2432 -0.2107
 2390TIP3    H1 7111   1.419   1.273   5.192  0.0833  0.2476  0.0041
 2390TIP3    H2 7112   1.372   1.138   5.142 -2.0488  0.2993  1.7553
 2391TIP3   OH2 7113   8.278   7.576   6.091  0.6066  0.0992 -0.3001
 2391TIP3    H1 7114   8.283   7.646   6.026 -0.4089 -0.4547 -1.0116
 2391TIP3    H2 7115   8.353   7.520   6.071  0.0688 -0.2919 -1.2925
 2392TIP3   OH2 7116   7.341   1.691   5.139 -0.1153  0.1458 -0.5434
 2392TIP3    H1 7117   7.265   1.668   5.193 -0.5266  1.4876 -0.5204
 2392TIP3    H2 7118   7.391   1.752   5.193  1.1038 -0.8519 -0.4881
 2393TIP3   OH2 7119   6.667   1.642   4.397 -0.0878 -0.0370 -0.0615
 2393TIP3    H1 7120   6.693   1.727   4.432 -1.3994 -0.6143  2.5042
 2393TIP3    H2 7121   6.593   1.661   4.340 -1.2014  0.4767  1.4896
 2394TIP3   OH2 7122   5.518   5.709   4.460 -0.3706  0.3508 -0.2343
 2394TIP3    H1 7123   5.454   5.769   4.500  1.8997  1.4350  2.0653
 2394TIP3    H2 7124   5.584   5.767   4.422  1.5147 -0.5955  1.4129
 2395TIP3   OH2 7125   7.871   0.862   6.565 -0.1388  0.5655 -0.2359
 2395TIP3    H1 7126   7.907   0.901   6.486 -1.2147 -0.0552 -1.0696
 2395TIP3    H2 7127   7.910   0.775   6.569  0.1238  0.6959  0.0732
 2396TIP3   OH2 7128   3.657   0.431   2.264 -0.4196 -0.1823 -0.2457
 2396TIP3    H1 7129   3.750   0.432   2.239 -0.3268  0.1696  0.0962
 2396TIP3    H2 7130   3.610   0.418   2.182 -0.0581 -0.6158 -0.3890
 2397TIP3   OH2 7131   6.921   6.135   0.445  0.5572  0.1791 -0.0925
 2397TIP3    H1 7132   6.931   6.195   0.371 -1.5114  0.6632 -0.0505
 2397TIP3    H2 7133   6.827   6.121   0.452  0.8497 -1.5871  1.1109
 2398TIP3   OH2 7134   6.407   1.003   0.310 -0.0539  0.1354  0.6174
 2398TIP3    H1 7135   6.408   0.918   0.266  1.4739  0.4442  0.0115
 2398TIP3    H2 7136   6.414   1.067   0.239  1.0693  0.6863  1.1931
 2399TIP3   OH2 7137   6.075   5.530   5.869  0.6013 -0.3812  0.0834
 2399TIP3    H1 7138   6.152   5.568   5.912  0.5953 -0.8377  0.5010
 2399TIP3    H2 7139   6.110   5.486   5.791  0.8668 -1.2434  0.6811
 2400TIP3   OH2 7140   4.606   5.420   2.984 -0.3706  0.2363  0.0420
 2400TIP3    H1 7141   4.660   5.479   3.037 -1.4634  0.2467  1.1746
 2400TIP3    H2 7142   4.640   5.333   3.003 -0.9025  0.2213  0.9484
 2401TIP3   OH2 7143   8.376   7.028   3.637 -0.4289 -0.3975 -0.2438
 2401TIP3    H1 7144   8.420   7.088   3.698  0.6677 -0.3558 -1.0354
 2401TIP3    H2 7145   8.355   6.951   3.690 -0.3405  0.0156  0.4013
 2402TIP3   OH2 7146   1.298   0.413   3.654  0.3648 -0.0381 -0.1054
 2402TIP3    H1 7147   1.274   0.483   3.594  0.5653  0.4978  0.4362
 2402TIP3    H2 7148   1.393   0.409   3.651  0.3214 -1.5502 -1.5464
 2403TIP3   OH2 7149   4.794   7.345   5.566 -0.1989  0.0071  0.1979
 2403TIP3    H1 7150   4.883   7.309   5.566  0.4997  1.6264 -0.6602
 2403TIP3    H2 7151   4.740   7.275   5.601  0.9590 -2.1621 -2.0517
 2404TIP3   OH2 7152   5.083   1.465   5.299 -0.5253  0.2974 -0.1225
 2404TIP3    H1 7153   4.999   1.420   5.291 -1.3214  1.8393 -0.9971
 2404TIP3    H2 7154   5.138   1.406   5.350 -2.7323  0.0365  2.1214
 2405TIP3   OH2 7155   5.870   6.595   3.047  0.2479  0.1944  0.1856
 2405TIP3    H1 7156   5.781   6.563   3.034  0.0110  0.7207  0.5158
 2405TIP3    H2 7157   5.894   6.563   3.134 -0.5795  2.2220  1.2283
 2406TIP3   OH2 7158   7.676   3.304   1.997 -0.3402 -0.1765 -0.0911
 2406TIP3    H1 7159   7.756   3.268   1.957 -1.5774 -1.4942 -1.5143
 2406TIP3    H2 7160   7.678   3.396   1.972  1.2003  0.0523  0.7292
 2407TIP3   OH2 7161   7.767   1.839   5.416  0.1234 -0.2353 -0.1686
 2407TIP3    H1 7162   7.746   1.763   5.471  1.4388 -0.4177  0.1208
 2407TIP3    H2 7163   7.753   1.914   5.474  1.5671 -0.4307  0.4716
 2408TIP3   OH2 7164   3.093   4.740   0.744  0.7322 -0.3911  0.4129
 2408TIP3    H1 7165   3.094   4.701   0.831  2.1408 -0.4443  0.3880
 2408TIP3    H2 7166   3.042   4.820   0.754 -0.8981 -1.4174  0.8015
 2409TIP3   OH2 7167   7.221   1.414   2.968 -0.6006  0.2727 -0.2281
 2409TIP3    H1 7168   7.134   1.415   2.929  0.2095  0.0681 -2.1592
 2409TIP3    H2 7169   7.258   1.330   2.941 -0.3698 -0.4045  1.9737
 2410TIP3   OH2 7170   6.485   5.541   5.622 -0.3357  0.2442  0.1849
 2410TIP3    H1 7171   6.436   5.495   5.554  1.2224 -1.9725  0.4388
 2410TIP3    H2 7172   6.500   5.628   5.586 -1.8998  0.0301 -1.1093
 2411TIP3   OH2 7173   6.494   4.539   4.293 -0.3587  0.1147  0.4631
 2411TIP3    H1 7174   6.513   4.600   4.222 -1.5319  1.8761  1.5765
 2411TIP3    H2 7175   6.399   4.544   4.305 -0.3327 -1.0687  1.3427
 2412TIP3   OH2 7176   4.922   6.937   6.229 -0.4778  0.3727 -0.6741
 2412TIP3    H1 7177   5.004   6.899   6.261 -0.7221  0.2564 -0.1627
 2412TIP3    H2 7178   4.855   6.902   6.289 -0.9117  0.3777 -1.1539
 2413TIP3   OH2 7179   4.246   1.438   3.021  0.0001  0.2403  0.3633
 2413TIP3    H1 7180   4.304   1.387   3.078 -0.3932  0.2948  0.8247
 2413TIP3    H2 7181   4.157   1.415   3.050 -0.1813  2.0488  1.4042
 2414TIP3   OH2 7182   2.040   6.357   2.748  0.0179 -0.0178  0.0087
 2414TIP3    H1 7183   2.122   6.398   2.723 -1.0417  2.5496  0.4662
 2414TIP3    H2 7184   2.037   6.364   2.843  0.5173 -2.7353  0.3040
 2415TIP3   OH2 7185   2.330   6.145   5.557  0.2399 -0.8268 -0.6219
 2415TIP3    H1 7186   2.403   6.205   5.539  0.6925 -0.7147  1.3782
 2415TIP3    H2 7187   2.357   6.063   5.517  1.1372 -0.5773 -0.5578
 2416TIP3   OH2 7188   7.169   0.715   4.010  0.5201  0.0549 -0.0655
 2416TIP3    H1 7189   7.074   0.701   4.010  0.7282 -1.5593 -0.6175
 2416TIP3    H2 7190   7.204   0.640   3.962  1.9428  1.6979 -1.7359
 2417TIP3   OH2 7191   8.257   6.637   5.867 -0.0110 -0.6156  0.2201
 2417TIP3    H1 7192   8.172   6.677   5.880 -0.5144 -1.5577 -0.0464
 2417TIP3    H2 7193   8.317   6.710   5.852 -0.6155  0.1005  1.1988
 2418TIP3   OH2 7194   7.568   0.872   6.703  0.3099  0.3389  0.3618
 2418TIP3    H1 7195   7.581   0.889   6.609  0.4006 -0.8936  0.1412
 2418TIP3    H2 7196   7.522   0.950   6.735  1.0097  1.1419 -0.5296
 2419TIP3   OH2 7197   0.108   7.430   6.150  0.0411  0.3823 -0.4233
 2419TIP3    H1 7198   0.121   7.347   6.196  1.2731  1.6975  1.7731
 2419TIP3    H2 7199   0.185   7.440   6.094  0.6179  0.6787  0.4032
 2420TIP3   OH2 7200   2.434   7.406   4.930  0.6248 -0.2820 -0.2081
 2420TIP3    H1 7201   2.418   7.424   5.023  0.8833  0.1010 -0.2344
 2420TIP3    H2 7202   2.409   7.487   4.886 -1.1357 -1.0064 -0.6680
 2421TIP3   OH2 7203   6.188   4.057   2.972  0.0941  0.5705 -0.1387
 2421TIP3    H1 7204   6.156   3.983   2.920 -0.2711  0.2535  0.5176
 2421TIP3    H2 7205   6.181   4.132   2.913 -0.1622  0.1921 -0.6008
 2422TIP3   OH2 7206   5.928   5.853   0.590 -1.0516  0.4935 -0.0372
 2422TIP3    H1 7207   5.921   5.838   0.496 -1.2093 -0.3195  0.0918
 2422TIP3    H2 7208   6.014   5.818   0.613 -1.0821  0.5340  0.1405
 2423TIP3   OH2 7209   4.954   4.409   4.405  0.6765  0.0660 -0.1441
 2423TIP3    H1 7210   4.993   4.397   4.491  0.2382  0.5343  0.1312
 2423TIP3    H2 7211   5.003   4.481   4.366 -0.8252  1.7003  0.8099
 2424TIP3   OH2 7212   1.214   5.845   1.212 -0.5269 -0.1650  0.0756
 2424TIP3    H1 7213   1.210   5.839   1.116  0.5970 -1.2652  0.0730
 2424TIP3    H2 7214   1.168   5.767   1.242  1.4891 -1.3163  0.3478
 2425TIP3   OH2 7215   5.523   0.997   0.547 -0.3942  0.0799  0.7689
 2425TIP3    H1 7216   5.481   0.962   0.626  1.2358 -2.0356  0.8066
 2425TIP3    H2 7217   5.481   0.949   0.475 -0.1804  0.2020  0.5637
 2426TIP3   OH2 7218   7.660   2.262   5.564  0.1678 -0.4098  0.6951
 2426TIP3    H1 7219   7.637   2.169   5.565 -0.4046 -0.2700  0.8857
 2426TIP3    H2 7220   7.587   2.306   5.607 -0.8844  0.4303 -1.7741
 2427TIP3   OH2 7221   4.785   3.259   5.357  0.4662  0.3281 -0.5699
 2427TIP3    H1 7222   4.766   3.315   5.281 -0.4957  2.3574  1.0805
 2427TIP3    H2 7223   4.743   3.175   5.335  1.2989  0.4068 -2.7873
 2428TIP3   OH2 7224   6.150   6.218   1.167 -0.0676 -0.6008 -0.3783
 2428TIP3    H1 7225   6.170   6.124   1.169  0.6830 -0.4350  1.1947
 2428TIP3    H2 7226   6.057   6.223   1.188 -0.2528 -1.0165 -1.0608
 2429TIP3   OH2 7227   5.308   2.599   0.087  0.1049  0.2754  0.2406
 2429TIP3    H1 7228   5.258   2.674   0.052 -1.5861 -1.0789 -0.4000
 2429TIP3    H2 7229   5.252   2.565   0.157  2.0109  1.0503  2.2416
 2430TIP3   OH2 7230   3.921   1.891   0.564 -0.5332  0.1518 -0.4074
 2430TIP3    H1 7231   3.904   1.797   0.558 -0.5019  0.0981  0.2337
 2430TIP3    H2 7232   4.015   1.899   0.552 -0.7242  0.2589 -2.0006
 2431TIP3   OH2 7233   6.117   6.165   2.957 -0.1636 -0.2130  0.3363
 2431TIP3    H1 7234   6.060   6.214   2.897 -0.2800  0.6167  1.0993
 2431TIP3    H2 7235   6.098   6.073   2.938 -1.0523  0.0430 -0.0993
 2432TIP3   OH2 7236   3.712   3.979   2.236 -0.4578  0.2510 -0.6256
 2432TIP3    H1 7237   3.801   4.012   2.228  0.6714 -2.4647 -0.3639
 2432TIP3    H2 7238   3.684   4.006   2.323  0.7796 -0.2778 -0.0439
 2433TIP3   OH2 7239   7.526   7.266   1.545  0.5055 -0.0599  0.0386
 2433TIP3    H1 7240   7.517   7.225   1.631  1.1350  1.6677  0.9856
 2433TIP3    H2 7241   7.439   7.301   1.526  0.7909  1.1449  0.8544
 2434TIP3   OH2 7242   1.608   1.592   5.129 -0.4328 -0.4175  0.2568
 2434TIP3    H1 7243   1.622   1.547   5.046  0.9423  1.7021 -0.7466
 2434TIP3    H2 7244   1.695   1.597   5.169 -0.2859  2.2440 -0.2210
 2435TIP3   OH2 7245   7.656   0.161   3.703  0.1878  0.1556  0.0923
 2435TIP3    H1 7246   7.624   0.160   3.612 -0.4962  2.4434  0.2393
 2435TIP3    H2 7247   7.596   0.103   3.750  1.0976 -1.7958 -1.0222
 2436TIP3   OH2 7248   0.881   3.565   2.268 -0.5702  0.3431 -0.4525
 2436TIP3    H1 7249   0.863   3.506   2.342  0.3187  1.1998  0.4824
 2436TIP3    H2 7250   0.818   3.636   2.278  0.3699  1.1191  0.2825
 2437TIP3   OH2 7251   7.266   6.189   6.152 -0.3886 -0.1510  0.4185
 2437TIP3    H1 7252   7.336   6.189   6.087 -0.9324 -1.6125 -0.2316
 2437TIP3    H2 7253   7.284   6.113   6.207  0.6015  1.6060  2.6696
 2438TIP3   OH2 7254   0.458   3.686   2.989 -0.2315  0.6661 -0.1492
 2438TIP3    H1 7255   0.419   3.599   2.997 -2.2710  1.5456  0.1955
 2438TIP3    H2 7256   0.392   3.745   3.027  1.5713  2.2560  0.6812
 2439TIP3   OH2 7257   6.192   7.787   0.322  0.3173 -0.1996  0.4682
 2439TIP3    H1 7258   6.126   7.811   0.387 -0.1804 -2.1524  0.7460
 2439TIP3    H2 7259   6.266   7.756   0.374  0.8227  0.4232  0.1286
 2440TIP3   OH2 7260   5.773   7.068   2.991  0.7533  0.0330  0.4737
 2440TIP3    H1 7261   5.783   7.057   3.085  1.9992  0.3531  0.4049
 2440TIP3    H2 7262   5.840   7.011   2.953  0.6863  0.3854 -0.1901
 2441TIP3   OH2 7263   3.025   0.080   2.486  0.1458  0.1925 -0.0094
 2441TIP3    H1 7264   3.055   0.057   2.398 -0.2929 -1.7462  0.2849
 2441TIP3    H2 7265   3.088   0.037   2.544  0.3607  1.3533  0.6416
 2442TIP3   OH2 7266   3.886   2.259   6.428 -0.4489  0.2710  0.1238
 2442TIP3    H1 7267   3.854   2.337   6.381  0.1918  1.1265  1.0539
 2442TIP3    H2 7268   3.877   2.282   6.521 -0.3189 -0.8111  0.4146
 2443TIP3   OH2 7269   3.011   2.202   3.508  0.3143 -0.1667  0.1885
 2443TIP3    H1 7270   3.044   2.142   3.442  0.9429  1.0122 -0.5932
 2443TIP3    H2 7271   2.975   2.276   3.458 -2.0284 -0.6254  1.0527
 2444TIP3   OH2 7272   1.807   2.115   4.500 -0.4068  0.4859 -0.1033
 2444TIP3    H1 7273   1.847   2.030   4.520  0.3614  0.8020 -0.2494
 2444TIP3    H2 7274   1.855   2.178   4.553 -0.2640  0.9601 -0.7727
 2445TIP3   OH2 7275   6.999   3.146   5.815 -0.8207 -0.8952 -0.2262
 2445TIP3    H1 7276   7.055   3.193   5.753 -1.1586 -1.2649 -0.8174
 2445TIP3    H2 7277   6.910   3.166   5.786 -1.0260  0.0916  0.9989
 2446TIP3   OH2 7278   1.722   1.871   0.464  0.2565 -0.6964 -0.8060
 2446TIP3    H1 7279   1.660   1.827   0.523 -1.4390 -0.4080 -2.2955
 2446TIP3    H2 7280   1.692   1.962   0.462 -0.0768 -0.8154 -2.5152
 2447TIP3   OH2 7281   4.629   6.500   1.716  0.2005 -1.1056 -0.5912
 2447TIP3    H1 7282   4.676   6.515   1.634  1.3975 -0.0927  0.2472
 2447TIP3    H2 7283   4.679   6.549   1.781 -1.0240 -1.4711  0.6560
 2448TIP3   OH2 7284   5.941   5.638   1.162  0.8930 -0.2825  0.6436
 2448TIP3    H1 7285   5.893   5.718   1.184  0.1963  0.7622 -3.7297
 2448TIP3    H2 7286   6.033   5.664   1.162  0.6449  0.8418 -1.2810
 2449TIP3   OH2 7287   8.139   5.871   2.901 -0.3446 -0.3645 -0.1419
 2449TIP3    H1 7288   8.094   5.907   2.977 -0.2342 -1.6751  0.5624
 2449TIP3    H2 7289   8.076   5.808   2.864  1.0947 -2.7524  1.2580
 2450TIP3   OH2 7290   3.974   3.052   0.976 -0.2359 -0.7619  0.1763
 2450TIP3    H1 7291   4.064   3.080   0.993 -0.8558  0.9629  0.8288
 2450TIP3    H2 7292   3.980   2.957   0.964  1.7037 -0.6281 -0.1435
 2451TIP3   OH2 7293   6.490   3.585   1.753  1.0503 -0.1047 -0.0901
 2451TIP3    H1 7294   6.551   3.650   1.790  1.2895 -0.7417  0.6703
 2451TIP3    H2 7295   6.450   3.544   1.830  0.1264 -0.1392 -0.5780
 2452TIP3   OH2 7296   0.089   6.065   2.053 -0.6485  0.1369  0.6158
 2452TIP3    H1 7297  -0.003   6.067   2.078 -0.9710  0.4991 -0.5437
 2452TIP3    H2 7298   0.120   6.154   2.067  0.0618 -0.3843  2.7939
 2453TIP3   OH2 7299   1.152   7.278   0.315 -0.0483  0.3220 -0.6056
 2453TIP3    H1 7300   1.087   7.208   0.324  0.6869 -0.4158 -0.8662
 2453TIP3    H2 7301   1.135   7.336   0.390  1.2226 -1.7291  1.3906
 2454TIP3   OH2 7302   7.432   0.326   1.472  0.2726 -0.7460  0.0890
 2454TIP3    H1 7303   7.478   0.350   1.391  0.6248  1.3271  0.8563
 2454TIP3    H2 7304   7.340   0.320   1.445  0.2566  0.8158 -0.3497
 2455TIP3   OH2 7305   5.650   7.741   5.073  0.1121 -0.2382  0.1228
 2455TIP3    H1 7306   5.737   7.765   5.105  0.5552 -0.7248 -0.6693
 2455TIP3    H2 7307   5.601   7.716   5.151  1.0829 -1.1774  0.4547
 2456TIP3   OH2 7308   8.184   2.357   0.431  0.0519 -0.1766  0.5870
 2456TIP3    H1 7309   8.225   2.271   0.422 -0.3741 -0.2208 -1.4731
 2456TIP3    H2 7310   8.111   2.356   0.369  1.1033  2.2342 -0.8473
 2457TIP3   OH2 7311   3.241   2.477   0.196 -0.9543  0.3268  0.0269
 2457TIP3    H1 7312   3.221   2.383   0.189  0.8265 -0.0412 -0.5932
 2457TIP3    H2 7313   3.195   2.516   0.122  1.8466 -0.7674 -2.5022
 2458TIP3   OH2 7314   3.356   5.653   6.231  0.6140  0.1147 -0.0965
 2458TIP3    H1 7315   3.383   5.654   6.323  0.6409  0.5848 -0.1054
 2458TIP3    H2 7316   3.291   5.723   6.224 -0.3410 -0.7625 -0.1655
 2459TIP3   OH2 7317   3.425   5.957   5.448 -0.1912 -0.1779  0.0229
 2459TIP3    H1 7318   3.446   5.987   5.360 -2.1068  0.1358 -0.3625
 2459TIP3    H2 7319   3.336   5.922   5.442  0.2343 -1.6657  1.4932
 2460TIP3   OH2 7320   4.007   2.984   6.337 -0.2073 -0.0747 -0.0979
 2460TIP3    H1 7321   4.062   2.907   6.321  0.1655  0.2331 -0.3112
 2460TIP3    H2 7322   4.056   3.056   6.298  0.1765  0.5228  1.4313
 2461TIP3   OH2 7323   7.602   2.574   1.292 -0.1678  0.2000  0.2665
 2461TIP3    H1 7324   7.564   2.504   1.345  2.0884 -1.3957 -0.0626
 2461TIP3    H2 7325   7.667   2.615   1.350 -1.0655  1.7063  0.2693
 2462TIP3   OH2 7326   6.872   3.720   3.948  0.2867 -0.7124 -0.2828
 2462TIP3    H1 7327   6.834   3.687   4.030 -0.2889  0.8450  0.1153
 2462TIP3    H2 7328   6.853   3.652   3.884 -0.3837 -1.3910  0.6034
 2463TIP3   OH2 7329   3.477   6.242   1.540 -0.3743 -0.7801  0.1976
 2463TIP3    H1 7330   3.389   6.241   1.504 -1.3666 -1.7585  2.4675
 2463TIP3    H2 7331   3.485   6.329   1.581 -0.0996 -0.5342 -0.3612
 2464TIP3   OH2 7332   8.289   5.710   6.320 -0.2678 -0.5409  0.4939
 2464TIP3    H1 7333   8.271   5.795   6.359  0.2524 -0.3105  0.2453
 2464TIP3    H2 7334   8.244   5.647   6.377 -0.7788 -0.0904  0.5891
 2465TIP3   OH2 7335   4.186   7.075   2.203 -0.3477  0.2467  0.6102
 2465TIP3    H1 7336   4.170   7.033   2.119 -0.0535  0.8244  0.2644
 2465TIP3    H2 7337   4.277   7.053   2.224  0.2458  1.7679 -0.2029
 2466TIP3   OH2 7338   8.226   1.286   0.642 -0.0918 -0.8654 -0.5989
 2466TIP3    H1 7339   8.317   1.282   0.615  0.1534  0.3995 -0.0178
 2466TIP3    H2 7340   8.200   1.377   0.629 -1.1441 -1.1063 -0.3290
 2467TIP3   OH2 7341   4.792   2.417   2.557  0.0345 -0.6629  0.1245
 2467TIP3    H1 7342   4.873   2.461   2.585 -0.7840  0.7729  0.3527
 2467TIP3    H2 7343   4.789   2.337   2.609  0.4609  0.1025  1.3717
 2468TIP3   OH2 7344   5.013   5.320   4.477  0.1412 -0.1734  0.3037
 2468TIP3    H1 7345   4.966   5.323   4.394 -0.7032 -3.1001  0.5408
 2468TIP3    H2 7346   5.009   5.409   4.511 -0.9958  0.7168 -1.9702
 2469TIP3   OH2 7347   4.409   3.002   1.530  0.0064 -0.4003 -0.5151
 2469TIP3    H1 7348   4.370   3.023   1.445 -0.0565 -1.7025 -0.8355
 2469TIP3    H2 7349   4.430   3.087   1.569 -2.6621  0.3729 -0.5490
 2470TIP3   OH2 7350   2.904   5.576   0.549  0.1958 -0.1706  0.7694
 2470TIP3    H1 7351   2.879   5.508   0.487 -0.3196  0.1099  0.6699
 2470TIP3    H2 7352   2.824   5.625   0.566  0.7606  1.0166  0.1098
 2471TIP3   OH2 7353   7.100   5.513   5.294  0.3615  0.2094  0.0399
 2471TIP3    H1 7354   7.106   5.460   5.214 -0.3427  0.1717  0.0037
 2471TIP3    H2 7355   7.106   5.449   5.365 -1.2392 -0.0459 -0.0046
 2472TIP3   OH2 7356   3.742   7.796   4.673  0.1948 -0.1309 -0.3890
 2472TIP3    H1 7357   3.679   7.851   4.626  1.0452 -1.3231 -3.1047
 2472TIP3    H2 7358   3.816   7.788   4.613  1.2631 -1.9527  1.0838
 2473TIP3   OH2 7359   6.713   7.436   2.612 -0.0998 -0.6995  0.0383
 2473TIP3    H1 7360   6.666   7.358   2.580  0.1841 -1.1234  0.6396
 2473TIP3    H2 7361   6.805   7.416   2.596  0.0871 -1.1047  1.4841
 2474TIP3   OH2 7362   5.696   0.075   1.379 -0.5642 -0.7184 -0.0402
 2474TIP3    H1 7363   5.666   0.055   1.468 -0.1057  0.2087  0.3297
 2474TIP3    H2 7364   5.784   0.038   1.374  0.4546  1.4279  0.7851
 2475TIP3   OH2 7365   2.269   6.057   2.102 -0.3309 -0.4219  0.4388
 2475TIP3    H1 7366   2.224   6.006   2.035  1.8128 -0.7604 -0.8565
 2475TIP3    H2 7367   2.349   6.007   2.120  0.5730  1.1588  1.0496
 2476TIP3   OH2 7368   0.267   3.227   4.132 -0.8245 -0.0824 -0.0991
 2476TIP3    H1 7369   0.193   3.236   4.191 -1.9470  0.7046 -1.5778
 2476TIP3    H2 7370   0.338   3.274   4.175 -1.6025  0.4348  0.6462
 2477TIP3   OH2 7371   2.096   0.348   4.630 -0.3364  0.0909  0.0680
 2477TIP3    H1 7372   2.056   0.305   4.707 -1.2935 -0.3632 -0.6592
 2477TIP3    H2 7373   2.045   0.429   4.619 -0.5441 -0.0977 -0.3866
 2478TIP3   OH2 7374   2.181   2.019   6.048  0.1224  0.2638  0.0282
 2478TIP3    H1 7375   2.216   1.952   6.108 -0.0610 -0.5845 -0.7918
 2478TIP3    H2 7376   2.231   2.007   5.967  1.1539  2.1324  0.3113
 2479TIP3   OH2 7377   0.405   7.928   3.024  0.1365  0.1858 -0.1463
 2479TIP3    H1 7378   0.426   7.834   3.020 -0.1634  0.1476 -0.9795
 2479TIP3    H2 7379   0.313   7.933   3.001  0.0348  0.6574  0.3354
 2480TIP3   OH2 7380   7.257   4.727   3.277 -0.2744  0.2858 -0.4008
 2480TIP3    H1 7381   7.293   4.717   3.366  0.8293 -0.8920 -0.9469
 2480TIP3    H2 7382   7.268   4.820   3.257  0.5629  0.3383  0.2454
 2481TIP3   OH2 7383   6.571   7.857   6.467 -0.2965 -0.0548  0.5139
 2481TIP3    H1 7384   6.592   7.919   6.398  1.5138  0.5448  1.5353
 2481TIP3    H2 7385   6.636   7.788   6.458 -1.0082 -0.7619  0.6705
 2482TIP3   OH2 7386   7.587   7.551   2.834 -0.0477 -0.3182 -0.7472
 2482TIP3    H1 7387   7.589   7.643   2.861 -0.3932 -0.7029  0.6552
 2482TIP3    H2 7388   7.613   7.502   2.912 -1.3113 -1.4997 -1.0278
 2483TIP3   OH2 7389   0.654   7.367   0.691 -0.2707  0.0767  0.1551
 2483TIP3    H1 7390   0.616   7.357   0.778 -0.9287 -1.2288 -0.2568
 2483TIP3    H2 7391   0.701   7.451   0.694 -1.1920  0.5647  1.4140
 2484TIP3   OH2 7392   5.225   7.800   0.717 -0.0322 -0.2718 -0.3565
 2484TIP3    H1 7393   5.299   7.854   0.743 -0.3259  0.0283 -0.1218
 2484TIP3    H2 7394   5.180   7.780   0.800 -0.9817  0.6958 -0.6124
 2485TIP3   OH2 7395   6.153   5.316   0.946 -0.1646  0.5155  0.2740
 2485TIP3    H1 7396   6.221   5.273   0.997 -2.7440  0.1775  3.8423
 2485TIP3    H2 7397   6.128   5.251   0.880  1.0737 -0.4629  0.7245
 2486TIP3   OH2 7398   3.416   6.381   2.190 -0.7173 -0.1163  0.3397
 2486TIP3    H1 7399   3.398   6.292   2.219  0.1422 -0.9740 -1.5272
 2486TIP3    H2 7400   3.386   6.437   2.261 -1.3153 -1.8918  1.5453
 2487TIP3   OH2 7401   3.623   2.227   2.287 -0.2252 -0.3372  0.5918
 2487TIP3    H1 7402   3.612   2.288   2.360 -0.4757 -1.4710  1.5384
 2487TIP3    H2 7403   3.717   2.229   2.268 -0.2949  0.6677  0.3024
 2488TIP3   OH2 7404   5.052   7.355   1.632 -0.1133 -0.1587  0.0946
 2488TIP3    H1 7405   5.103   7.288   1.587  0.7401  0.4835  0.0822
 2488TIP3    H2 7406   5.010   7.308   1.705  0.1115 -0.7908 -0.1760
 2489TIP3   OH2 7407   5.098   1.958   2.550 -0.0385 -0.3035  0.3490
 2489TIP3    H1 7408   5.054   1.998   2.475  0.2568  1.2863  0.9830
 2489TIP3    H2 7409   5.084   1.864   2.539 -0.7627 -0.0400 -1.2080
 2490TIP3   OH2 7410   7.119   7.561   4.402 -0.8861 -0.1335  0.1554
 2490TIP3    H1 7411   7.146   7.600   4.485 -0.3449 -0.0801 -0.0401
 2490TIP3    H2 7412   7.025   7.547   4.411 -0.5514 -1.9269  1.5394
 2491TIP3   OH2 7413   8.075   0.029   4.495  0.0281 -0.2986  0.2890
 2491TIP3    H1 7414   7.986  -0.004   4.480 -0.4631  0.8696  0.5764
 2491TIP3    H2 7415   8.104   0.058   4.408 -0.6988  1.2937  0.5525
 2492TIP3   OH2 7416   3.664   7.741   4.190  0.6667 -0.7303  0.2421
 2492TIP3    H1 7417   3.756   7.763   4.204  0.8371 -0.1885 -1.4960
 2492TIP3    H2 7418   3.650   7.756   4.097 -0.6345 -2.9120  0.0277
 2493TIP3   OH2 7419   2.480   7.868   3.521 -0.5260 -0.2323 -0.1620
 2493TIP3    H1 7420   2.545   7.800   3.537  0.8239  0.3875 -2.4907
 2493TIP3    H2 7421   2.414   7.826   3.465  0.1198  0.2198 -1.2996
 2494TIP3   OH2 7422   6.305   7.457   1.868 -0.2683 -0.3054  0.6937
 2494TIP3    H1 7423   6.369   7.411   1.814 -0.5344 -0.9094  0.8798
 2494TIP3    H2 7424   6.337   7.447   1.958  0.0272  0.4599  0.6832
 2495TIP3   OH2 7425   5.220   5.860   6.758 -0.0696 -0.7807 -0.1312
 2495TIP3    H1 7426   5.239   5.953   6.761 -1.4924 -0.4934  0.7572
 2495TIP3    H2 7427   5.211   5.833   6.850 -2.2835 -1.1802 -0.3932
 2496TIP3   OH2 7428   2.144   1.709   0.298  0.0163 -0.3371 -0.1442
 2496TIP3    H1 7429   2.068   1.651   0.304 -1.0151  1.1100  1.5392
 2496TIP3    H2 7430   2.160   1.737   0.388  0.5567  1.8624 -0.8659
 2497TIP3   OH2 7431   5.567   5.451   6.256 -0.3925 -0.5283 -0.1924
 2497TIP3    H1 7432   5.621   5.375   6.231 -1.4918 -1.3428 -0.1490
 2497TIP3    H2 7433   5.626   5.505   6.310  0.6193 -0.9936 -0.7999
 2498TIP3   OH2 7434   4.746   0.129   6.604  0.2245  0.0712 -0.7916
 2498TIP3    H1 7435   4.672   0.183   6.629 -0.0735 -0.3531 -0.7438
 2498TIP3    H2 7436   4.760   0.148   6.511 -1.0896 -1.1540 -1.2843
 2499TIP3   OH2 7437   6.579   2.302   0.894 -0.4588  0.1459 -0.0145
 2499TIP3    H1 7438   6.496   2.277   0.853  0.2697  1.8823 -2.8054
 2499TIP3    H2 7439   6.579   2.397   0.894  0.6598  0.2164  1.9964
 2500TIP3   OH2 7440   4.808   5.986   1.378  0.0962  0.2490 -0.1442
 2500TIP3    H1 7441   4.762   5.989   1.295  1.0273  0.8013 -0.6633
 2500TIP3    H2 7442   4.779   5.905   1.420  0.4209 -0.5832 -1.4837
 2501TIP3   OH2 7443   3.358   1.343   5.764  0.2342 -0.1702  0.6941
 2501TIP3    H1 7444   3.411   1.420   5.745 -1.2894  0.4826 -1.2982
 2501TIP3    H2 7445   3.360   1.336   5.859  1.8793  1.2448  0.8173
 2502TIP3   OH2 7446   7.782   4.952   0.463  0.1673 -0.0436  0.5958
 2502TIP3    H1 7447   7.832   4.872   0.476 -0.0458  0.0865  2.4468
 2502TIP3    H2 7448   7.845   5.023   0.474 -0.1081  0.0836  1.4454
 2503TIP3   OH2 7449   1.219   5.894   2.653  0.2516  0.1960  0.5547
 2503TIP3    H1 7450   1.181   5.950   2.585 -0.6935 -0.6513  0.3600
 2503TIP3    H2 7451   1.260   5.955   2.714 -0.8186  1.1239  0.3825
 2504TIP3   OH2 7452   0.230   1.496   5.795  0.2946  0.1449  0.2581
 2504TIP3    H1 7453   0.202   1.406   5.809  1.6172 -0.0209  2.1887
 2504TIP3    H2 7454   0.317   1.488   5.755 -0.2546  0.6044 -1.0833
 2505TIP3   OH2 7455   4.100   0.523   5.839 -0.2753 -0.5221  0.6591
 2505TIP3    H1 7456   4.019   0.515   5.789  0.2174 -0.2963 -0.1823
 2505TIP3    H2 7457   4.142   0.602   5.804  0.2848 -0.6103  1.1237
 2506TIP3   OH2 7458   3.381   6.479   4.810 -0.7913 -0.0028  0.8347
 2506TIP3    H1 7459   3.326   6.508   4.738  0.8362  0.3448 -0.3312
 2506TIP3    H2 7460   3.366   6.385   4.817 -0.4394 -0.1618 -0.4381
 2507TIP3   OH2 7461   3.518   0.050   6.378  0.1100 -0.4453 -0.0991
 2507TIP3    H1 7462   3.603   0.008   6.365  0.8930  0.8076  0.6641
 2507TIP3    H2 7463   3.521   0.127   6.321 -0.6685 -0.5953 -0.3461
 2508TIP3   OH2 7464   3.718   4.279   4.767 -0.2322  0.0850 -0.8082
 2508TIP3    H1 7465   3.732   4.360   4.720 -1.7223  0.2511 -1.0071
 2508TIP3    H2 7466   3.744   4.210   4.706 -0.3994  0.3552 -1.1800
 2509TIP3   OH2 7467   2.720   4.322   3.325 -0.0904  0.4160  0.4564
 2509TIP3    H1 7468   2.708   4.323   3.230  0.5524 -3.2117  0.2027
 2509TIP3    H2 7469   2.631   4.322   3.360 -0.3500  0.6287 -0.1880
 2510TIP3   OH2 7470   6.217   5.167   2.943 -0.0232 -0.2844 -0.2342
 2510TIP3    H1 7471   6.132   5.129   2.918 -0.6410 -0.1859  1.5750
 2510TIP3    H2 7472   6.221   5.156   3.038  1.6211  0.5022 -0.1844
 2511TIP3   OH2 7473   7.039   1.554   0.200  0.0072  0.2329  0.8100
 2511TIP3    H1 7474   7.050   1.644   0.230  3.5476 -0.3354  1.7146
 2511TIP3    H2 7475   7.096   1.547   0.123 -0.0480 -1.2838  0.8747
 2512TIP3   OH2 7476   6.717   4.465   5.881  0.2499 -0.6378  0.1626
 2512TIP3    H1 7477   6.664   4.533   5.921  0.2465  0.1309 -1.0932
 2512TIP3    H2 7478   6.796   4.461   5.934  0.2566  0.3497  0.2386
 2513TIP3   OH2 7479   3.434   6.474   5.815 -0.0991 -0.4525 -0.1341
 2513TIP3    H1 7480   3.450   6.400   5.757 -0.8417  0.4370 -1.5267
 2513TIP3    H2 7481   3.463   6.550   5.765 -1.3008  0.3966  0.4294
 2514TIP3   OH2 7482   7.469   2.429   3.466 -0.4663  0.7537  0.6446
 2514TIP3    H1 7483   7.418   2.491   3.413 -1.3442 -1.1980 -0.9099
 2514TIP3    H2 7484   7.410   2.355   3.481  0.8331 -0.1308  1.6784
 2515TIP3   OH2 7485   5.988   5.479   6.560  0.4940 -0.2592 -0.1818
 2515TIP3    H1 7486   6.001   5.438   6.474 -0.2901 -0.8782 -0.0125
 2515TIP3    H2 7487   5.972   5.406   6.620  0.6084  0.1966  0.4114
 2516TIP3   OH2 7488   1.345   7.481   4.538  0.5375  0.2081 -0.9924
 2516TIP3    H1 7489   1.250   7.473   4.547  0.5897  0.0457 -0.5537
 2516TIP3    H2 7490   1.365   7.566   4.575  0.9268 -1.0584  1.9928
 2517TIP3   OH2 7491   1.636   4.913   3.499 -0.3045  0.4520 -0.6189
 2517TIP3    H1 7492   1.687   4.884   3.574 -0.5530  0.6371 -0.3787
 2517TIP3    H2 7493   1.692   4.894   3.424 -0.3920 -0.5009 -0.4596
 2518TIP3   OH2 7494   6.581   3.019   6.402 -0.1676  0.1114  0.0997
 2518TIP3    H1 7495   6.640   3.070   6.458  0.4398 -1.1818  0.6916
 2518TIP3    H2 7496   6.496   3.061   6.412  0.3086  0.9885  0.5748
 2519TIP3   OH2 7497   0.442   0.121   1.916  0.4553  0.1825 -0.2002
 2519TIP3    H1 7498   0.405   0.209   1.901 -0.3645 -0.0700  0.2789
 2519TIP3    H2 7499   0.475   0.095   1.830 -1.7105 -0.1214 -1.0141
 2520TIP3   OH2 7500   2.503   6.204   2.920  0.4399  0.3062  0.1751
 2520TIP3    H1 7501   2.458   6.235   2.998  1.8308  0.1772  1.0702
 2520TIP3    H2 7502   2.433   6.183   2.858 -0.6696  0.9902  1.1576
 2521TIP3   OH2 7503   5.579   0.155   5.111  0.2641  0.0470  0.1115
 2521TIP3    H1 7504   5.500   0.121   5.069  1.0072 -2.7430  0.7528
 2521TIP3    H2 7505   5.547   0.198   5.190 -0.6496 -2.1233  1.0285
 2522TIP3   OH2 7506   2.611   6.163   3.946  0.4160  0.1968 -0.7200
 2522TIP3    H1 7507   2.527   6.122   3.968  1.5040 -1.3454  0.8416
 2522TIP3    H2 7508   2.594   6.213   3.866 -2.3754  1.2509  0.4083
 2523TIP3   OH2 7509   4.358   5.944   2.997 -0.1626 -0.0972 -0.1326
 2523TIP3    H1 7510   4.283   5.954   2.939  1.3261 -0.1785 -2.1726
 2523TIP3    H2 7511   4.334   5.872   3.055 -1.8930  0.3033 -0.2856
 2524TIP3   OH2 7512   2.455   4.141   5.370  0.0617 -0.4523  0.1432
 2524TIP3    H1 7513   2.533   4.124   5.318  0.4192  0.3401  0.4008
 2524TIP3    H2 7514   2.463   4.083   5.445 -0.6077 -1.8264 -0.8054
 2525TIP3   OH2 7515   6.652   4.380   4.444  0.0167  0.4621  0.2967
 2525TIP3    H1 7516   6.639   4.304   4.388  1.5167  0.8282 -0.6185
 2525TIP3    H2 7517   6.601   4.450   4.401  0.3939  0.5044 -0.0887
 2526TIP3   OH2 7518   4.811   3.271   2.640  0.4998 -0.3230  0.2429
 2526TIP3    H1 7519   4.868   3.218   2.696 -1.2705 -0.6513  1.8007
 2526TIP3    H2 7520   4.740   3.299   2.697  0.1443  1.8056 -1.1417
 2527TIP3   OH2 7521   0.077   0.146   2.808 -0.1024 -0.0985 -0.3919
 2527TIP3    H1 7522   0.142   0.108   2.868  0.6404  3.1134  1.0598
 2527TIP3    H2 7523   0.001   0.163   2.863 -0.1955  0.9882 -0.8341
 2528TIP3   OH2 7524   2.061   5.049   2.019 -0.1192 -0.4702  0.2988
 2528TIP3    H1 7525   2.062   5.095   1.935 -0.9176  1.5469  1.3186
 2528TIP3    H2 7526   1.974   5.010   2.024  0.1380 -1.1031 -0.0481
 2529TIP3   OH2 7527   4.245   4.308   5.985 -0.2779  0.1445 -0.2990
 2529TIP3    H1 7528   4.234   4.359   6.065  2.1218  1.1785 -0.5404
 2529TIP3    H2 7529   4.268   4.220   6.014  1.6351  0.7712  0.2235
 2530TIP3   OH2 7530   7.452   0.337   6.146 -0.5531  0.2835 -0.1392
 2530TIP3    H1 7531   7.509   0.318   6.220  0.9785  0.8076 -1.1446
 2530TIP3    H2 7532   7.434   0.251   6.107  0.5130  0.2198 -0.5005
 2531TIP3   OH2 7533   3.425   6.251   4.277  0.3595 -0.6700  0.2209
 2531TIP3    H1 7534   3.435   6.242   4.372 -0.0214 -1.3603  0.1989
 2531TIP3    H2 7535   3.361   6.185   4.253  2.1241 -2.0813 -0.8440
 2532TIP3   OH2 7536   2.699   5.731   5.909  0.4534 -0.2190 -0.2849
 2532TIP3    H1 7537   2.692   5.715   6.003  4.0083  1.5575  0.4454
 2532TIP3    H2 7538   2.793   5.737   5.892 -0.0887  3.2267 -3.2267
 2533TIP3   OH2 7539   0.864   4.220   0.760 -0.2697  0.4809 -0.3937
 2533TIP3    H1 7540   0.834   4.249   0.674 -0.1997 -0.2433 -0.6734
 2533TIP3    H2 7541   0.937   4.160   0.740 -0.5652 -0.0631  0.1471
 2534TIP3   OH2 7542   3.950   2.354   4.393  0.5315 -0.5036  0.0802
 2534TIP3    H1 7543   3.855   2.358   4.381  0.4598  0.1022  0.7780
 2534TIP3    H2 7544   3.985   2.357   4.304 -0.0984 -0.5962 -0.1797
 2535TIP3   OH2 7545   6.854   0.071   0.392 -0.0295 -0.0772  0.1631
 2535TIP3    H1 7546   6.930   0.025   0.356  0.0726  1.3898 -1.6751
 2535TIP3    H2 7547   6.779   0.032   0.348 -0.4537 -1.6822  2.1441
 2536TIP3   OH2 7548   5.304   0.571   1.852  0.3105  0.1247 -0.1963
 2536TIP3    H1 7549   5.360   0.531   1.785 -1.1945  1.4139 -2.3299
 2536TIP3    H2 7550   5.361   0.632   1.898  1.0347  0.2601 -1.2521
 2537TIP3   OH2 7551   6.021   6.588   6.479 -0.2745 -0.3698  0.6570
 2537TIP3    H1 7552   6.047   6.676   6.450  2.0167 -1.2922 -0.3338
 2537TIP3    H2 7553   6.068   6.575   6.561 -1.2731 -0.3950  1.2434
 2538TIP3   OH2 7554   8.028   0.509   1.497  0.4576  0.1124  0.3800
 2538TIP3    H1 7555   8.017   0.601   1.523  1.5490  0.5091 -0.4470
 2538TIP3    H2 7556   7.944   0.484   1.460  0.2364  0.8869  0.3398
 2539TIP3   OH2 7557   4.836   1.661   5.209 -0.0343 -0.1918  0.0845
 2539TIP3    H1 7558   4.823   1.672   5.303  2.6208 -1.2746  0.6594
 2539TIP3    H2 7559   4.781   1.586   5.186 -2.1331  1.1780  0.2976
 2540TIP3   OH2 7560   1.977   2.597   4.003  0.0223 -0.0489  0.3565
 2540TIP3    H1 7561   1.984   2.570   3.912 -0.1707 -0.8220  0.5621
 2540TIP3    H2 7562   1.904   2.658   4.005  0.3217  0.3252 -0.0819
 2541TIP3   OH2 7563   5.298   3.505   6.697 -0.2706  0.3516 -0.3260
 2541TIP3    H1 7564   5.349   3.425   6.684 -0.0858  0.4144 -0.0195
 2541TIP3    H2 7565   5.210   3.483   6.670 -0.3303 -0.1085  0.2159
 2542TIP3   OH2 7566   7.782   4.422   4.868 -0.1252  0.0810  0.2451
 2542TIP3    H1 7567   7.815   4.512   4.856  0.2710  0.0610  1.1670
 2542TIP3    H2 7568   7.786   4.407   4.962 -1.0595 -0.5870  0.1893
 2543TIP3   OH2 7569   6.175   4.784   2.886 -0.6471  0.0301 -0.5149
 2543TIP3    H1 7570   6.215   4.738   2.960 -2.8902  1.5118  1.8032
 2543TIP3    H2 7571   6.250   4.818   2.836  0.9815 -3.0463 -0.3764
 2544TIP3   OH2 7572   4.496   4.693   1.138 -0.3687  0.0296  0.2780
 2544TIP3    H1 7573   4.554   4.663   1.208 -0.1062  0.8217  0.4085
 2544TIP3    H2 7574   4.550   4.690   1.059 -0.6436 -0.7968  0.1183
 2545TIP3   OH2 7575   7.443   1.851   1.975 -0.2899  0.0026  0.1242
 2545TIP3    H1 7576   7.471   1.937   2.008 -0.0159 -0.0223 -0.0403
 2545TIP3    H2 7577   7.347   1.852   1.984 -0.3756  0.6733 -0.6848
 2546TIP3   OH2 7578   6.448   0.733   0.190  0.3181 -0.4104 -0.3159
 2546TIP3    H1 7579   6.417   0.758   0.103 -0.1692 -0.0615 -0.0439
 2546TIP3    H2 7580   6.375   0.683   0.228 -0.6364  1.8414  0.9807
 2547TIP3   OH2 7581   0.794   1.669   4.476 -0.4988  0.0764  0.0110
 2547TIP3    H1 7582   0.784   1.761   4.450  1.1854  0.4138  0.4256
 2547TIP3    H2 7583   0.784   1.620   4.395  0.5249  0.8067 -0.5933
 2548TIP3   OH2 7584   8.033   7.772   1.181 -0.1486 -0.1493  0.6496
 2548TIP3    H1 7585   8.094   7.798   1.250  1.2923  0.4294 -0.7526
 2548TIP3    H2 7586   7.959   7.831   1.190  0.7761  1.0340  0.6837
 2549TIP3   OH2 7587   7.480   1.363   1.836  0.5621 -0.2031  0.1238
 2549TIP3    H1 7588   7.455   1.278   1.872  0.4661  0.7460  2.5033
 2549TIP3    H2 7589   7.436   1.427   1.892  2.1698  1.4475 -0.3740
 2550TIP3   OH2 7590   8.223   1.329   1.424 -0.0816  0.1885  0.3295
 2550TIP3    H1 7591   8.190   1.250   1.466 -0.0284 -0.2338 -0.4078
 2550TIP3    H2 7592   8.147   1.365   1.377  0.0024  0.3227  0.2976
 2551TIP3   OH2 7593   5.031   2.032   1.500 -0.1265 -0.5821  0.2856
 2551TIP3    H1 7594   5.023   1.945   1.540  1.0091 -1.3221 -1.0165
 2551TIP3    H2 7595   5.120   2.060   1.522 -0.3361  0.0603  0.3163
 2552TIP3   OH2 7596   2.118   6.686   3.142  0.3402 -0.4353  0.1897
 2552TIP3    H1 7597   2.175   6.632   3.089 -1.6480 -0.0945 -2.5157
 2552TIP3    H2 7598   2.127   6.774   3.106  1.9842  0.7817  3.1859
 2553TIP3   OH2 7599  -0.001   0.607   1.202  0.7469 -0.3651 -0.5972
 2553TIP3    H1 7600   0.061   0.680   1.195 -1.5791  1.7125 -0.6837
 2553TIP3    H2 7601  -0.034   0.613   1.292 -1.7362  0.7305 -1.5018
 2554TIP3   OH2 7602   0.209   3.351   4.483 -0.3204  0.0749 -0.0925
 2554TIP3    H1 7603   0.182   3.442   4.470  3.0916  1.2262 -0.1240
 2554TIP3    H2 7604   0.219   3.342   4.577 -3.0772 -1.1625  0.1701
 2555TIP3   OH2 7605   3.629   7.334   1.936 -0.8048 -0.0812  0.3750
 2555TIP3    H1 7606   3.650   7.427   1.929  2.3386 -0.5554  2.0333
 2555TIP3    H2 7607   3.604   7.321   2.027 -0.0819 -1.0431  0.4518
 2556TIP3   OH2 7608   2.449   4.950   6.818 -0.0765  0.5345  0.1745
 2556TIP3    H1 7609   2.521   4.913   6.767 -1.4339 -0.0416 -1.3871
 2556TIP3    H2 7610   2.491   5.014   6.875  1.4911  1.5650 -1.9927
 2557TIP3   OH2 7611   7.819   4.129   4.515  0.5091  0.6260  0.4272
 2557TIP3    H1 7612   7.737   4.177   4.525  0.2067  1.0442 -2.9706
 2557TIP3    H2 7613   7.885   4.196   4.501  1.5682  0.2921  3.1506
 2558TIP3   OH2 7614   2.529   2.432   2.038  0.4068 -0.2253  0.1619
 2558TIP3    H1 7615   2.612   2.439   1.990 -0.1250  1.6304 -0.5766
 2558TIP3    H2 7616   2.533   2.502   2.103 -0.4700 -0.3072  0.3156
 2559TIP3   OH2 7617   5.633   1.127   4.803  0.0219  0.6853  0.0301
 2559TIP3    H1 7618   5.591   1.101   4.722  0.9191 -1.6749  0.2382
 2559TIP3    H2 7619   5.702   1.189   4.776 -0.9433  1.4581 -0.7307
 2560TIP3   OH2 7620   1.347   2.012   1.285 -0.4209  0.5382 -0.1497
 2560TIP3    H1 7621   1.333   2.070   1.360 -0.6307  0.0711  0.1746
 2560TIP3    H2 7622   1.424   1.960   1.308 -0.5670  0.2988 -0.1973
 2561TIP3   OH2 7623   6.251   2.812   6.634 -0.2369 -0.2260 -0.1989
 2561TIP3    H1 7624   6.170   2.842   6.594  1.1472  2.5950 -1.1693
 2561TIP3    H2 7625   6.320   2.842   6.574  1.7181  0.5450  2.2395
 2562TIP3   OH2 7626   2.627   1.819   1.056  0.3538 -0.2827  0.3647
 2562TIP3    H1 7627   2.702   1.761   1.063  0.5149 -0.2827 -1.0421
 2562TIP3    H2 7628   2.659   1.904   1.088  0.4910 -0.6482  1.2136
 2563TIP3   OH2 7629   3.269   3.678   3.484 -0.3204 -0.4863 -0.1829
 2563TIP3    H1 7630   3.175   3.666   3.471 -0.2597 -1.6093  0.3726
 2563TIP3    H2 7631   3.281   3.773   3.482 -1.3612 -0.3542 -0.9360
 2564TIP3   OH2 7632   6.272   7.626   5.109  0.4616 -0.1457 -0.3422
 2564TIP3    H1 7633   6.321   7.571   5.169 -0.5775  1.5384  2.2013
 2564TIP3    H2 7634   6.201   7.570   5.077  0.7372 -0.9416  0.4114
 2565TIP3   OH2 7635   3.444   2.599   2.866  0.0802 -0.7937 -0.3825
 2565TIP3    H1 7636   3.484   2.547   2.936 -0.1012  0.0397  0.3606
 2565TIP3    H2 7637   3.510   2.663   2.843 -0.1089 -0.6403 -0.5035
 2566TIP3   OH2 7638   4.310   3.926   3.132  0.2733  0.2085  0.0131
 2566TIP3    H1 7639   4.345   3.842   3.162  1.4085  0.3668 -0.8045
 2566TIP3    H2 7640   4.322   3.925   3.037 -0.8184  0.8076 -0.1549
 2567TIP3   OH2 7641   3.586   3.544   2.691  0.6207 -0.0617 -0.0006
 2567TIP3    H1 7642   3.534   3.465   2.674 -0.0829  0.3030  0.3899
 2567TIP3    H2 7643   3.569   3.600   2.616 -0.3652  0.4610  0.5845
 2568TIP3   OH2 7644   0.265   4.190   1.688  0.1246 -0.6530 -0.2832
 2568TIP3    H1 7645   0.351   4.149   1.701  0.1526 -0.2516  1.0079
 2568TIP3    H2 7646   0.234   4.208   1.777 -1.7684 -1.7104 -0.6657
 2569TIP3   OH2 7647   2.921   3.300   0.425  0.1493 -0.1119  0.2325
 2569TIP3    H1 7648   3.010   3.286   0.393  1.0727  2.7822  1.2232
 2569TIP3    H2 7649   2.902   3.392   0.404 -3.0721 -0.9195 -0.9265
 2570TIP3   OH2 7650   7.145   2.607   0.897 -0.1589 -0.2230  0.3870
 2570TIP3    H1 7651   7.211   2.544   0.927  1.7101  2.0344  1.3471
 2570TIP3    H2 7652   7.122   2.658   0.975  1.0788  2.5343 -0.8889
 2571TIP3   OH2 7653   0.683   7.852   3.740  0.4152  0.1270 -0.3482
 2571TIP3    H1 7654   0.740   7.916   3.783  0.0895  1.3366 -1.6528
 2571TIP3    H2 7655   0.663   7.891   3.655  0.2730 -1.7759 -1.2195
 2572TIP3   OH2 7656   7.665   5.474   3.451 -0.9115  0.7124  0.1050
 2572TIP3    H1 7657   7.680   5.448   3.542 -1.0514  0.4893  0.0655
 2572TIP3    H2 7658   7.578   5.440   3.430 -0.4360 -0.1959 -0.4527
 2573TIP3   OH2 7659   0.770   2.905   1.494 -0.2155 -0.0447  0.0909
 2573TIP3    H1 7660   0.716   2.982   1.477  0.4775  0.6109  0.8071
 2573TIP3    H2 7661   0.741   2.874   1.580 -0.0353 -0.1949  0.0988
 2574TIP3   OH2 7662   2.753   7.643   1.963 -0.0245  0.0999  0.3528
 2574TIP3    H1 7663   2.690   7.707   1.996  0.6088 -0.0071  1.8514
 2574TIP3    H2 7664   2.701   7.564   1.947 -0.6221  0.6494 -0.4842
 2575TIP3   OH2 7665   0.127   2.083   4.486 -0.5389 -0.3052  0.2264
 2575TIP3    H1 7666   0.044   2.045   4.455  0.6792 -1.2551 -2.1023
 2575TIP3    H2 7667   0.171   2.011   4.530 -1.8533  0.8031  3.6750
 2576TIP3   OH2 7668   2.720   2.952   4.565  0.1032  0.4996  0.0586
 2576TIP3    H1 7669   2.780   3.018   4.531  2.0717  0.4537  3.0934
 2576TIP3    H2 7670   2.769   2.870   4.562 -0.6733  0.0042  0.4282
 2577TIP3   OH2 7671   0.079   3.734   0.676  0.2570 -0.1691 -0.4603
 2577TIP3    H1 7672   0.171   3.759   0.686  0.7898 -1.9199 -0.5530
 2577TIP3    H2 7673   0.037   3.764   0.756  0.9142  0.6128 -0.3990
 2578TIP3   OH2 7674   0.971   3.643   0.470  0.1738  0.3315  0.6030
 2578TIP3    H1 7675   0.910   3.657   0.397 -0.6570 -0.0053  1.2177
 2578TIP3    H2 7676   0.980   3.730   0.510 -1.0020  0.1399  1.3377
 2579TIP3   OH2 7677   1.208   3.854   5.739 -1.0998  0.4282  0.2541
 2579TIP3    H1 7678   1.291   3.812   5.714 -0.9048  0.2525  1.1400
 2579TIP3    H2 7679   1.227   3.947   5.739 -0.6551  0.3543  1.2288
 2580TIP3   OH2 7680   3.344   0.416   5.501  0.1867 -0.1131  0.0469
 2580TIP3    H1 7681   3.252   0.422   5.475 -0.0375 -1.3294  0.4795
 2580TIP3    H2 7682   3.371   0.506   5.516 -1.0067  0.2419  0.1504
 2581TIP3   OH2 7683   3.841   7.590   6.067  0.1862  0.4906  0.1783
 2581TIP3    H1 7684   3.772   7.564   6.128 -0.0222  1.2091  0.2647
 2581TIP3    H2 7685   3.794   7.637   5.997  0.3510 -0.8093 -0.8333
 2582TIP3   OH2 7686   6.139   4.819   3.234 -0.0035  0.0370 -0.2765
 2582TIP3    H1 7687   6.109   4.755   3.298  2.1609 -0.5876  0.2015
 2582TIP3    H2 7688   6.224   4.786   3.205  1.6706  3.0633  0.6696
 2583TIP3   OH2 7689   1.247   4.843   5.449 -0.1421 -0.3001 -0.0146
 2583TIP3    H1 7690   1.214   4.832   5.360 -0.1130  1.0570 -0.2224
 2583TIP3    H2 7691   1.342   4.831   5.441 -0.3277 -2.2357  0.2318
 2584TIP3   OH2 7692   6.561   0.359   3.242 -0.0251  0.4923 -0.0763
 2584TIP3    H1 7693   6.554   0.455   3.238  0.0061  0.5091  0.2517
 2584TIP3    H2 7694   6.622   0.337   3.172  0.3712  0.7597  0.1766
 2585TIP3   OH2 7695   1.644   2.656   3.765  0.0274  0.5331 -0.3559
 2585TIP3    H1 7696   1.704   2.688   3.698 -0.4294 -0.2608 -1.1628
 2585TIP3    H2 7697   1.561   2.699   3.746  0.0586  0.7966  0.0934
 2586TIP3   OH2 7698   6.177   3.244   5.255 -0.2728 -0.8336 -0.4479
 2586TIP3    H1 7699   6.160   3.330   5.292 -0.0246 -0.0482 -2.0923
 2586TIP3    H2 7700   6.128   3.183   5.312 -2.0432  0.5652 -0.3861
 2587TIP3   OH2 7701   2.425   2.566   1.314 -0.1023 -0.2159 -0.5633
 2587TIP3    H1 7702   2.486   2.521   1.373  0.8660  2.3517  0.5510
 2587TIP3    H2 7703   2.363   2.609   1.372  1.0861  2.6822 -1.2381
 2588TIP3   OH2 7704   6.259   0.078   1.024  0.1859  0.8992 -0.2452
 2588TIP3    H1 7705   6.325   0.084   0.955 -0.1249 -1.7389 -0.8890
 2588TIP3    H2 7706   6.307   0.047   1.101 -0.1076  0.0070 -0.4142
 2589TIP3   OH2 7707   5.227   2.934   6.472 -0.6459  0.2993 -0.5292
 2589TIP3    H1 7708   5.281   2.979   6.408  1.4778 -0.1371  0.8487
 2589TIP3    H2 7709   5.170   3.002   6.508  2.2462  1.9608  1.2728
 2590TIP3   OH2 7710   2.084   2.825   0.198 -0.4033 -0.4505 -0.6000
 2590TIP3    H1 7711   2.115   2.735   0.196 -0.8827 -0.6211 -2.0584
 2590TIP3    H2 7712   2.162   2.878   0.183 -0.3921 -0.7405 -1.6523
 2591TIP3   OH2 7713   3.233   4.730   2.635 -0.1166  0.2546  0.1956
 2591TIP3    H1 7714   3.143   4.740   2.604  0.5721 -0.8065 -2.4356
 2591TIP3    H2 7715   3.231   4.650   2.688 -0.5274 -0.4921 -0.8967
 2592TIP3   OH2 7716   0.689   0.419  -0.005 -0.0628  0.3772 -0.2165
 2592TIP3    H1 7717   0.670   0.348   0.056 -1.7880  0.9696 -0.0209
 2592TIP3    H2 7718   0.684   0.499   0.048 -1.9633  0.9329 -1.1420
 2593TIP3   OH2 7719   7.902   4.683   2.554 -0.1130 -0.4105  0.4314
 2593TIP3    H1 7720   7.944   4.769   2.550  1.2381 -1.1012 -1.2926
 2593TIP3    H2 7721   7.865   4.680   2.642 -1.0487  2.2959  0.2526
 2594TIP3   OH2 7722   3.794   2.173   3.066  0.0413  0.0431  0.5326
 2594TIP3    H1 7723   3.717   2.119   3.084 -0.1109  0.2585  0.5236
 2594TIP3    H2 7724   3.864   2.109   3.049 -0.6100 -0.2157 -1.5796
 2595TIP3   OH2 7725   0.244   3.675   4.092 -0.5086 -0.1836  0.1467
 2595TIP3    H1 7726   0.316   3.735   4.072 -1.5414  0.3296 -2.5009
 2595TIP3    H2 7727   0.217   3.642   4.007 -2.8953 -0.9756  1.1439
 2596TIP3   OH2 7728   1.619   1.141   0.097  0.1817 -0.3690  0.0227
 2596TIP3    H1 7729   1.695   1.193   0.123 -0.6616  0.5386  0.7288
 2596TIP3    H2 7730   1.590   1.099   0.178 -0.9887  0.5201  0.0820
 2597TIP3   OH2 7731   1.803   2.939   6.435 -0.4906  0.2316 -0.0359
 2597TIP3    H1 7732   1.783   2.862   6.489 -2.7550  1.6681  1.3674
 2597TIP3    H2 7733   1.897   2.934   6.419 -0.0537 -1.2900  2.5088
 2598TIP3   OH2 7734   0.053   3.792   2.115 -0.5432  0.2042  0.0172
 2598TIP3    H1 7735   0.097   3.873   2.091  0.8827 -0.3988  0.4974
 2598TIP3    H2 7736  -0.023   3.820   2.167 -0.4628  1.2422 -0.4126
 2599TIP3   OH2 7737   8.190   5.499   3.771  0.1514  0.2172  0.0731
 2599TIP3    H1 7738   8.226   5.499   3.682 -1.5216 -0.6718 -0.6478
 2599TIP3    H2 7739   8.150   5.585   3.780 -1.4134 -0.3856 -0.8140
 2600TIP3   OH2 7740   6.790   4.837   5.306  0.1841  0.1668 -0.4985
 2600TIP3    H1 7741   6.765   4.870   5.392  0.3586 -0.0236 -0.3745
 2600TIP3    H2 7742   6.735   4.886   5.245  0.6074  0.8698 -0.3328
 2601TIP3   OH2 7743   7.005   7.836   2.011 -0.2891  0.3783  0.2920
 2601TIP3    H1 7744   6.988   7.769   2.077  0.3044  1.5556  1.7084
 2601TIP3    H2 7745   7.063   7.899   2.055  0.2906  1.1204 -1.4182
 2602TIP3   OH2 7746   4.916   7.917   2.943  0.0896  0.2145 -0.3563
 2602TIP3    H1 7747   4.846   7.855   2.963  0.2269 -0.2505 -1.2562
 2602TIP3    H2 7748   4.870   8.000   2.928 -0.1166  0.2829  0.6252
 2603TIP3   OH2 7749   7.010   3.444   4.612  0.4238  0.2064 -0.0214
 2603TIP3    H1 7750   7.067   3.367   4.611  1.3623  0.7112 -4.2484
 2603TIP3    H2 7751   7.069   3.518   4.598 -0.8898  1.1442 -0.8145
 2604TIP3   OH2 7752   0.118   6.109   1.776  0.4323  0.0482  0.5117
 2604TIP3    H1 7753   0.202   6.149   1.754  0.8594  0.2659  2.3539
 2604TIP3    H2 7754   0.127   6.082   1.868 -0.5680 -2.4435 -0.0465
 2605TIP3   OH2 7755   2.569   3.554   0.336  0.5579 -0.2181 -0.0729
 2605TIP3    H1 7756   2.664   3.544   0.345  0.4297 -0.7069  0.8445
 2605TIP3    H2 7757   2.546   3.495   0.264  0.9995  0.2586 -0.6228
 2606TIP3   OH2 7758   0.701   6.228   2.188  0.3277 -0.3248  0.1684
 2606TIP3    H1 7759   0.774   6.272   2.144  0.4318 -1.5265 -0.9414
 2606TIP3    H2 7760   0.739   6.190   2.267  0.3584  1.0296  0.8384
 2607TIP3   OH2 7761   4.436   2.353   0.029 -0.3960 -0.5628  0.0667
 2607TIP3    H1 7762   4.447   2.404   0.109 -0.9769 -1.3428  0.6536
 2607TIP3    H2 7763   4.358   2.390  -0.013 -0.0531 -0.1106 -0.1823
 2608TIP3   OH2 7764   1.608   7.093   0.492 -0.0757  0.3295  0.9124
 2608TIP3    H1 7765   1.569   7.158   0.434  0.6043  0.3653  0.4794
 2608TIP3    H2 7766   1.669   7.044   0.436 -0.2003 -0.3418  1.3497
 2609TIP3   OH2 7767   5.466   4.811   2.878  0.5546 -0.3648 -0.0788
 2609TIP3    H1 7768   5.534   4.744   2.865  0.8815  0.1126 -0.8932
 2609TIP3    H2 7769   5.510   4.894   2.857  0.0664  0.0788  0.6186
 2610TIP3   OH2 7770   8.257   6.502   1.714  0.3366  0.2757  0.0966
 2610TIP3    H1 7771   8.268   6.411   1.742 -0.6736  0.5180  1.3726
 2610TIP3    H2 7772   8.168   6.525   1.740  0.0848  1.2292 -1.4494
 2611TIP3   OH2 7773   5.593   6.504   3.109 -0.0391 -0.3778  0.7068
 2611TIP3    H1 7774   5.532   6.572   3.135  0.8516 -0.2345  2.6512
 2611TIP3    H2 7775   5.539   6.426   3.096 -0.7793  0.0728  1.0728
 2612TIP3   OH2 7776   3.012   5.029   2.400 -0.1198 -0.5064  0.0643
 2612TIP3    H1 7777   2.978   4.965   2.338  2.0680 -1.1022 -0.6025
 2612TIP3    H2 7778   3.011   5.112   2.352 -1.4828 -0.3155  0.3901
 2613TIP3   OH2 7779   6.619   7.005   0.035 -0.5546  0.0006  0.1206
 2613TIP3    H1 7780   6.677   6.973  -0.034 -0.5118 -0.5687  0.4135
 2613TIP3    H2 7781   6.531   6.990   0.002 -0.5368  0.1586 -0.0020
 2614TIP3   OH2 7782   7.521   0.803   2.125  0.5621 -0.2888  0.2280
 2614TIP3    H1 7783   7.437   0.795   2.079  0.3679  1.9445  0.1140
 2614TIP3    H2 7784   7.505   0.866   2.195  1.6785 -1.3014  1.4562
 2615TIP3   OH2 7785   8.298   4.132   1.315 -0.5979  0.1518 -0.2503
 2615TIP3    H1 7786   8.205   4.108   1.315 -0.7431  0.1910 -3.7260
 2615TIP3    H2 7787   8.343   4.056   1.278  0.2795  1.3146 -1.6916
 2616TIP3   OH2 7788   8.093   2.670   2.941  0.9190 -0.7485 -0.8087
 2616TIP3    H1 7789   8.174   2.671   2.992 -0.3001 -0.6024  1.2044
 2616TIP3    H2 7790   8.071   2.762   2.929  1.1326 -0.7845 -1.5263
 2617TIP3   OH2 7791   3.206   5.219   5.705  0.1273  0.1533  0.3491
 2617TIP3    H1 7792   3.182   5.171   5.784  1.1007  1.5119  1.5287
 2617TIP3    H2 7793   3.302   5.214   5.703  0.0829 -1.3278 -1.7507
 2618TIP3   OH2 7794   8.018   4.952   6.022  0.7755 -0.7737 -0.6683
 2618TIP3    H1 7795   8.029   5.026   6.083  1.4152  0.6992 -2.4600
 2618TIP3    H2 7796   8.085   4.889   6.049  2.2195  0.6053 -0.8371
 2619TIP3   OH2 7797   1.036   4.970   1.721  0.2760  0.4638 -0.2087
 2619TIP3    H1 7798   1.015   5.033   1.652 -1.9857 -0.0664 -0.0909
 2619TIP3    H2 7799   1.020   5.017   1.802 -0.0438  0.1742 -0.1011
 2620TIP3   OH2 7800   4.065   3.499   3.226 -0.4895  0.0629  0.3228
 2620TIP3    H1 7801   4.004   3.546   3.283  0.5818  2.0667 -0.0797
 2620TIP3    H2 7802   4.010   3.464   3.156 -1.5498 -0.7122  1.5094
 2621TIP3   OH2 7803   7.626   6.390   6.244 -0.1513  0.7615  0.5602
 2621TIP3    H1 7804   7.650   6.446   6.318  2.1961 -0.3561  0.7128
 2621TIP3    H2 7805   7.678   6.310   6.256 -1.7904 -0.5957 -0.8172
 2622TIP3   OH2 7806   4.057   7.508   4.567  0.0509  0.6429  0.0257
 2622TIP3    H1 7807   4.115   7.559   4.625  0.3709  1.1516 -0.7251
 2622TIP3    H2 7808   4.112   7.436   4.536 -0.7178 -0.8633  1.9597
 2623TIP3   OH2 7809   6.510   7.746   3.775  0.6113  0.1236  0.1573
 2623TIP3    H1 7810   6.562   7.732   3.696 -0.0522  0.4181 -0.3304
 2623TIP3    H2 7811   6.419   7.744   3.746  0.3355 -0.3706  1.0030
 2624TIP3   OH2 7812   1.109   6.671   6.004 -0.0710  0.0635 -0.3537
 2624TIP3    H1 7813   1.048   6.616   5.954 -1.1503  0.5482  0.3908
 2624TIP3    H2 7814   1.118   6.751   5.952  0.3276 -0.2083 -0.7074
 2625TIP3   OH2 7815   5.518   0.284   5.387  0.3946  0.1188 -0.1075
 2625TIP3    H1 7816   5.606   0.272   5.422  0.7436  0.1903 -0.9448
 2625TIP3    H2 7817   5.506   0.379   5.385 -0.7431  0.1089  2.5143
 2626TIP3   OH2 7818   3.315   4.140   3.924  0.4821  0.2032  0.8826
 2626TIP3    H1 7819   3.311   4.210   3.989 -0.6399  1.0315 -0.0278
 2626TIP3    H2 7820   3.230   4.142   3.881  0.8384 -0.9837  0.0654
 2627TIP3   OH2 7821   1.091   0.718   5.524  0.4788 -0.0486 -0.0239
 2627TIP3    H1 7822   1.002   0.684   5.513 -0.5511  0.9602  3.7138
 2627TIP3    H2 7823   1.079   0.812   5.536  2.0329  0.0663  0.8421
 2628TIP3   OH2 7824   0.905   6.905   4.279  0.0937  0.0059 -0.2565
 2628TIP3    H1 7825   0.827   6.907   4.335  0.6377  3.3052  0.5434
 2628TIP3    H2 7826   0.968   6.853   4.328 -0.5976 -0.1208  0.5261
 2629TIP3   OH2 7827   1.684   3.239   4.390 -0.3687  0.1799  0.5449
 2629TIP3    H1 7828   1.672   3.145   4.375 -0.7262  0.1368  1.0768
 2629TIP3    H2 7829   1.603   3.279   4.358  0.6373  0.5519 -1.7229
 2630TIP3   OH2 7830   7.866   4.257   2.643  0.5555 -0.0128 -0.2559
 2630TIP3    H1 7831   7.788   4.233   2.694  0.7900 -1.0908 -0.3870
 2630TIP3    H2 7832   7.921   4.304   2.706 -0.6864  1.8321 -0.4662
 2631TIP3   OH2 7833   0.256   1.787   3.676 -0.1539  0.3921 -0.1010
 2631TIP3    H1 7834   0.210   1.830   3.748 -0.0990  1.3419 -0.6223
 2631TIP3    H2 7835   0.320   1.730   3.719  0.5707  1.6853  0.6167
 2632TIP3   OH2 7836   7.232   5.549   3.111 -0.5056  0.2275 -0.9828
 2632TIP3    H1 7837   7.231   5.495   3.032  0.0083 -1.4883  0.1359
 2632TIP3    H2 7838   7.199   5.634   3.082  0.5942 -0.0515 -3.2478
 2633TIP3   OH2 7839   3.923   3.998   1.286 -0.0548 -0.4794  0.1147
 2633TIP3    H1 7840   3.913   4.012   1.380 -0.8024  0.4244 -0.0935
 2633TIP3    H2 7841   3.915   4.085   1.247 -1.0729 -0.9910 -0.8885
 2634TIP3   OH2 7842   5.146   3.470   3.839 -0.4593 -0.1862 -0.0833
 2634TIP3    H1 7843   5.176   3.426   3.760 -1.3166 -0.5508 -0.2139
 2634TIP3    H2 7844   5.201   3.433   3.909 -0.1348 -0.3287 -0.4100
 2635TIP3   OH2 7845   3.396   2.078   5.106  0.5023 -0.5529 -0.0120
 2635TIP3    H1 7846   3.433   2.167   5.104 -1.7300  0.4781  1.0674
 2635TIP3    H2 7847   3.319   2.083   5.050 -0.3002 -1.4721  0.9633
 2636TIP3   OH2 7848   4.850   4.000   5.468 -0.4037  0.1914 -0.4233
 2636TIP3    H1 7849   4.901   4.071   5.431 -0.9753  0.9479  0.2015
 2636TIP3    H2 7850   4.914   3.946   5.514  0.2628 -0.5736 -2.1584
 2637TIP3   OH2 7851   2.307   7.099   6.649  0.8269  0.1870 -0.2077
 2637TIP3    H1 7852   2.394   7.102   6.690 -0.3162  1.4485  2.3544
 2637TIP3    H2 7853   2.258   7.038   6.704 -1.3173  3.3347  1.6861
 2638TIP3   OH2 7854   6.470   6.588   2.032  0.1131 -0.4682 -0.3891
 2638TIP3    H1 7855   6.474   6.593   1.936  0.1668 -1.3653 -0.4408
 2638TIP3    H2 7856   6.558   6.613   2.061 -0.3684  1.4834 -0.4746
 2639TIP3   OH2 7857   1.388   7.621   2.709  0.0636 -0.4263 -0.1583
 2639TIP3    H1 7858   1.425   7.692   2.656  0.1772 -0.9625 -0.8151
 2639TIP3    H2 7859   1.338   7.568   2.646 -0.7557 -0.4386  0.4780
 2640TIP3   OH2 7860   2.082   0.313   1.976  0.1965 -0.1081 -0.5234
 2640TIP3    H1 7861   1.987   0.303   1.980  0.1455 -0.0722 -1.4401
 2640TIP3    H2 7862   2.095   0.407   1.964  0.3283 -0.1802 -0.9344
 2641TIP3   OH2 7863   2.241   7.411   3.949 -0.6262 -0.2288  0.0430
 2641TIP3    H1 7864   2.333   7.383   3.946 -1.2969 -2.5678 -0.7113
 2641TIP3    H2 7865   2.237   7.486   3.890  0.6200 -0.7484 -0.7408
 2642TIP3   OH2 7866   8.043   1.082   5.166 -0.2449  0.5720 -0.0427
 2642TIP3    H1 7867   7.952   1.054   5.173 -0.1661  0.2543 -0.2484
 2642TIP3    H2 7868   8.043   1.173   5.194 -0.8778  1.0523 -1.5326
 2643TIP3   OH2 7869   8.203   0.489   5.333  0.3174  0.5152 -0.2073
 2643TIP3    H1 7870   8.274   0.436   5.368 -0.3612  0.4197  1.1111
 2643TIP3    H2 7871   8.133   0.427   5.314 -0.4748  0.8827  1.3265
 2644TIP3   OH2 7872   3.426   1.613   0.211 -0.0279  0.2626 -0.0349
 2644TIP3    H1 7873   3.406   1.534   0.260  2.9049 -0.2178  0.5716
 2644TIP3    H2 7874   3.461   1.674   0.276  1.2138  0.6640 -1.0194
 2645TIP3   OH2 7875   4.787   5.945   2.689  0.2810 -0.3933 -0.5035
 2645TIP3    H1 7876   4.733   5.945   2.610 -0.9435 -2.3347  0.2465
 2645TIP3    H2 7877   4.724   5.959   2.760  1.2631  0.6243  0.2102
 2646TIP3   OH2 7878   0.621   5.281   6.182 -0.1160 -0.1602  0.1193
 2646TIP3    H1 7879   0.651   5.269   6.272  1.2784 -0.7407 -0.3850
 2646TIP3    H2 7880   0.530   5.307   6.190 -0.1124 -0.5255  1.6839
 2647TIP3   OH2 7881   4.635   6.748   0.153  0.0562 -0.1263 -0.0366
 2647TIP3    H1 7882   4.728   6.737   0.172 -0.1785 -2.1933  0.1917
 2647TIP3    H2 7883   4.603   6.805   0.223  1.0446  0.2110  0.1597
 2648TIP3   OH2 7884   1.658   6.239   3.414 -0.2588 -0.8730 -0.2205
 2648TIP3    H1 7885   1.575   6.200   3.389  0.3143 -1.4475 -1.2987
 2648TIP3    H2 7886   1.638   6.291   3.492 -1.9399  0.2264 -1.3030
 2649TIP3   OH2 7887   7.708   3.421   6.440 -0.0788  0.0916 -0.1627
 2649TIP3    H1 7888   7.751   3.403   6.356  0.7897  2.0931 -0.2242
 2649TIP3    H2 7889   7.649   3.494   6.421 -0.3683  0.1279  0.8350
 2650TIP3   OH2 7890   4.491   0.892   1.960 -0.5350 -0.2303 -0.4346
 2650TIP3    H1 7891   4.508   0.947   2.036  0.1796  0.3948 -1.0339
 2650TIP3    H2 7892   4.575   0.851   1.940 -0.9526 -1.1847 -0.2780
 2651TIP3   OH2 7893   3.452   6.725   5.238 -0.0203 -0.2033 -0.0093
 2651TIP3    H1 7894   3.370   6.677   5.232 -1.1413  1.7577 -1.5762
 2651TIP3    H2 7895   3.453   6.760   5.327 -1.0499  0.0315 -0.0865
 2652TIP3   OH2 7896   4.277   6.004   4.081 -0.6429 -0.1743  0.8697
 2652TIP3    H1 7897   4.262   5.958   3.999 -0.4839  0.5921  0.3923
 2652TIP3    H2 7898   4.224   5.958   4.145 -2.4331  0.4674 -0.0816
 2653TIP3   OH2 7899   8.180   5.801   5.975  0.2187 -1.0713  0.2044
 2653TIP3    H1 7900   8.273   5.781   5.990  0.7824  1.7430  1.0744
 2653TIP3    H2 7901   8.158   5.863   6.045 -1.5580  0.4248 -1.5963
 2654TIP3   OH2 7902   5.578   4.133   6.380  0.1519  0.2472  0.0088
 2654TIP3    H1 7903   5.500   4.086   6.409  0.4416 -0.5679 -0.4873
 2654TIP3    H2 7904   5.546   4.195   6.315 -0.0963 -0.0428 -0.1480
 2655TIP3   OH2 7905   2.834   1.341   0.440  0.5333  0.0746 -0.3384
 2655TIP3    H1 7906   2.794   1.425   0.420 -1.1383 -0.5169  0.2632
 2655TIP3    H2 7907   2.863   1.307   0.355  0.1091  0.7150 -0.7491
 2656TIP3   OH2 7908   7.491   3.915   2.911  0.6068 -0.1769  0.1207
 2656TIP3    H1 7909   7.402   3.890   2.885  1.2664 -1.7858 -0.7264
 2656TIP3    H2 7910   7.479   3.967   2.990 -1.1162  0.0818 -0.2713
 2657TIP3   OH2 7911   1.556   6.691   3.383  0.0640 -0.3809 -0.2321
 2657TIP3    H1 7912   1.469   6.652   3.384 -0.2521  0.3079  1.0245
 2657TIP3    H2 7913   1.556   6.749   3.306  0.3391 -2.2982 -1.7727
 2658TIP3   OH2 7914   6.831   7.156   0.182 -0.3557 -0.4444  0.1878
 2658TIP3    H1 7915   6.771   7.176   0.254 -0.7509  0.3520 -0.3583
 2658TIP3    H2 7916   6.779   7.102   0.122  0.8190 -3.8049  1.8750
 2659TIP3   OH2 7917   3.275   0.753   2.092 -0.2750  0.0076  0.1889
 2659TIP3    H1 7918   3.354   0.745   2.145  1.0976  1.3810 -1.5390
 2659TIP3    H2 7919   3.291   0.694   2.017 -0.6746  0.6357 -0.3966
 2660TIP3   OH2 7920   1.984   6.137   0.328  0.8677 -0.4122  0.5596
 2660TIP3    H1 7921   1.945   6.191   0.260 -0.3496 -1.8296  0.0719
 2660TIP3    H2 7922   2.054   6.088   0.284 -0.0271 -1.4512  0.2459
 2661TIP3   OH2 7923   1.231   6.120   4.444 -0.3012 -0.2583 -0.0062
 2661TIP3    H1 7924   1.203   6.183   4.378  0.2286  2.0167  1.7953
 2661TIP3    H2 7925   1.150   6.094   4.488 -0.5286 -0.9335 -0.7906
 2662TIP3   OH2 7926   7.499   3.639   4.670  0.5559 -0.4522 -0.3598
 2662TIP3    H1 7927   7.526   3.693   4.596  0.5784  0.6457  0.4194
 2662TIP3    H2 7928   7.403   3.634   4.663  0.5326 -0.0932 -0.2828
 2663TIP3   OH2 7929   5.124   4.404   3.983 -0.1258  0.2371 -0.6873
 2663TIP3    H1 7930   5.098   4.355   4.061 -0.6499  2.1351  0.4158
 2663TIP3    H2 7931   5.206   4.447   4.008 -0.1543  0.6542 -1.2763
 2664TIP3   OH2 7932   6.746   6.708   1.972  0.3024 -0.7850 -0.2078
 2664TIP3    H1 7933   6.733   6.678   1.881  0.1727 -1.0298 -0.1108
 2664TIP3    H2 7934   6.705   6.794   1.975  0.0316 -0.9099 -0.3014
 2665TIP3   OH2 7935   5.439   4.901   5.438  0.2228  0.1494 -0.2600
 2665TIP3    H1 7936   5.530   4.929   5.446  0.4413 -0.6023  0.0456
 2665TIP3    H2 7937   5.390   4.957   5.498  0.7697 -0.6320  0.9621
 2666TIP3   OH2 7938   6.409   6.428   0.709  0.1180  0.0110  0.3162
 2666TIP3    H1 7939   6.483   6.448   0.766 -0.0342  1.6278 -0.0233
 2666TIP3    H2 7940   6.339   6.402   0.768  0.0508  1.3827  0.8685
 2667TIP3   OH2 7941   0.866   4.685   3.132  0.1742 -0.0922 -0.5699
 2667TIP3    H1 7942   0.846   4.645   3.216  1.3692 -1.0428 -0.7080
 2667TIP3    H2 7943   0.788   4.671   3.079  0.1423 -1.2170 -0.2373
 2668TIP3   OH2 7944   3.714   6.127   1.582  0.0964 -0.0666  0.2601
 2668TIP3    H1 7945   3.698   6.057   1.645  0.3964 -0.2728  0.1100
 2668TIP3    H2 7946   3.627   6.162   1.563  0.0807  0.5504  1.4080
 2669TIP3   OH2 7947   8.208   6.709   6.360  0.5985 -0.0208  0.0175
 2669TIP3    H1 7948   8.128   6.744   6.400 -0.2520 -0.3182 -1.3539
 2669TIP3    H2 7949   8.214   6.754   6.275  0.5897 -1.6961 -0.9092
 2670TIP3   OH2 7950   6.825   5.895   3.316 -0.0837  0.4643  0.0210
 2670TIP3    H1 7951   6.809   5.919   3.407 -1.9514  0.2029 -0.1983
 2670TIP3    H2 7952   6.877   5.967   3.280 -0.0208  0.9507  1.0744
 2671TIP3   OH2 7953   2.887   4.451   0.274  0.4506 -0.4557  0.8557
 2671TIP3    H1 7954   2.805   4.416   0.241  0.0102  0.0189  1.4231
 2671TIP3    H2 7955   2.919   4.385   0.335  0.0843 -0.2938  1.2301
 2672TIP3   OH2 7956   2.648   6.062   0.282  0.1372  0.1813 -0.3469
 2672TIP3    H1 7957   2.732   6.082   0.323  0.7102  0.7135 -1.7132
 2672TIP3    H2 7958   2.641   5.967   0.286  0.1745  0.2183  0.9416
 2673TIP3   OH2 7959   0.993   7.061   0.679  0.4616 -0.0587 -0.3226
 2673TIP3    H1 7960   1.072   7.063   0.626  0.3928  0.9051 -0.4078
 2673TIP3    H2 7961   1.024   7.055   0.769  0.6759  1.1999 -0.2949
 2674TIP3   OH2 7962   7.566   6.370   1.211 -0.3820 -0.1093  0.2343
 2674TIP3    H1 7963   7.646   6.374   1.264  0.6173  2.8760 -1.2463
 2674TIP3    H2 7964   7.525   6.456   1.224 -2.7905 -1.1606  0.0414
 2675TIP3   OH2 7965   3.420   6.738   4.121  0.6261 -0.0340 -0.0546
 2675TIP3    H1 7966   3.417   6.776   4.209  0.9591 -2.3241  1.0117
 2675TIP3    H2 7967   3.431   6.644   4.136  2.3788 -0.3232 -2.5542
 2676TIP3   OH2 7968   3.579   2.641   1.006  0.9086  0.9595 -0.3269
 2676TIP3    H1 7969   3.524   2.716   0.983  1.6773  1.1830 -1.5536
 2676TIP3    H2 7970   3.523   2.565   0.989  0.9771  1.1786 -1.6697
 2677TIP3   OH2 7971   0.071   3.053   0.846  0.5787  0.1549 -0.5817
 2677TIP3    H1 7972  -0.005   3.110   0.863  0.2905 -0.7279  1.2672
 2677TIP3    H2 7973   0.137   3.112   0.808 -1.6501  0.6004 -4.3430
 2678TIP3   OH2 7974   4.487   2.158   4.933  0.1034  0.0155  0.3640
 2678TIP3    H1 7975   4.567   2.200   4.904  0.4104 -1.1047 -0.4658
 2678TIP3    H2 7976   4.516   2.080   4.981 -0.4720 -1.0961 -1.0316
 2679TIP3   OH2 7977   5.869   0.125   6.450  0.1486  0.2026  0.3764
 2679TIP3    H1 7978   5.847   0.209   6.490 -0.2824  0.3198 -0.1126
 2679TIP3    H2 7979   5.965   0.126   6.445  0.0973  1.1281 -0.6388
 2680TIP3   OH2 7980   1.118   3.038   2.757 -0.1849  0.1421 -0.1018
 2680TIP3    H1 7981   1.132   2.964   2.817  2.4535  0.7636  0.1586
 2680TIP3    H2 7982   1.140   3.115   2.809 -0.8257  0.9458 -1.0069
 2681TIP3   OH2 7983   0.790   4.298   4.618  0.1485  0.4330  0.0590
 2681TIP3    H1 7984   0.729   4.296   4.545  1.8246  2.0805 -1.4739
 2681TIP3    H2 7985   0.867   4.249   4.587 -0.4091 -2.0079  2.1140
 2682TIP3   OH2 7986   2.520   7.440   2.738 -0.1826 -0.3203 -0.4678
 2682TIP3    H1 7987   2.517   7.435   2.642 -3.5633 -0.5234 -0.4698
 2682TIP3    H2 7988   2.570   7.363   2.764 -0.2054 -0.9131 -2.0301
 2683TIP3   OH2 7989   4.603   4.085   0.835 -0.0417  0.2347  0.0524
 2683TIP3    H1 7990   4.683   4.133   0.813 -0.3083  0.9852  0.7142
 2683TIP3    H2 7991   4.557   4.140   0.897 -1.7353  0.4483 -1.2994
 2684TIP3   OH2 7992   8.215   5.231   0.375 -0.2388  0.1976  0.5505
 2684TIP3    H1 7993   8.248   5.147   0.343 -1.4480  0.1863 -0.7742
 2684TIP3    H2 7994   8.183   5.276   0.297 -1.0673  1.2289  1.4400
 2685TIP3   OH2 7995   5.041   4.075   1.302  0.2377  0.5880  0.2705
 2685TIP3    H1 7996   5.074   4.165   1.304 -0.2953  0.8176 -0.5447
 2685TIP3    H2 7997   4.978   4.075   1.229  0.6571 -0.5940 -0.1082
 2686TIP3   OH2 7998   5.236   1.432   5.582 -0.3014  0.1260 -0.1277
 2686TIP3    H1 7999   5.238   1.403   5.673 -1.3806 -2.2353 -0.7731
 2686TIP3    H2 8000   5.255   1.353   5.531  0.3376  1.3985 -1.9642
 2687TIP3   OH2 8001   0.461   7.400   2.142 -0.5048  0.1547 -0.2483
 2687TIP3    H1 8002   0.409   7.393   2.222 -1.6306  0.3255 -0.9393
 2687TIP3    H2 8003   0.399   7.380   2.071  0.5626 -0.4114 -1.0537
 2688TIP3   OH2 8004   4.031   5.608   2.807  1.2687 -0.3886  0.0263
 2688TIP3    H1 8005   4.053   5.576   2.894  1.9082 -0.2941 -0.0953
 2688TIP3    H2 8006   3.966   5.546   2.773  0.7460 -0.2202  0.7088
 2689TIP3   OH2 8007   4.474   1.115   0.999 -0.7930 -0.0096 -0.0045
 2689TIP3    H1 8008   4.512   1.069   1.074  2.1257  1.3535 -0.4964
 2689TIP3    H2 8009   4.511   1.071   0.922 -1.7530  0.1683 -0.5821
 2690TIP3   OH2 8010   5.340   4.186   4.332 -0.0605  0.6343  0.5455
 2690TIP3    H1 8011   5.249   4.201   4.306  0.6069  1.6619 -1.3952
 2690TIP3    H2 8012   5.353   4.244   4.408 -1.0999  0.2102  1.0626
 2691TIP3   OH2 8013   0.786   7.264   2.176 -0.0454 -0.2271  0.5698
 2691TIP3    H1 8014   0.861   7.225   2.131 -1.3564 -0.7784 -1.2677
 2691TIP3    H2 8015   0.756   7.334   2.117 -1.1109 -0.1612  1.1504
 2692TIP3   OH2 8016   2.021   5.604   6.112  0.0915 -0.2759 -0.5680
 2692TIP3    H1 8017   1.940   5.614   6.063 -0.6870  3.0272  1.0839
 2692TIP3    H2 8018   1.999   5.632   6.201  2.0580 -3.4452  1.0925
 2693TIP3   OH2 8019   8.079   3.146   4.703  0.1797  0.0351  0.3469
 2693TIP3    H1 8020   8.043   3.192   4.779 -1.6349  0.9864 -0.9865
 2693TIP3    H2 8021   8.158   3.195   4.680  0.3615  0.1477  1.2087
 2694TIP3   OH2 8022   2.086   6.544   0.241  0.2764  0.1625 -0.2410
 2694TIP3    H1 8023   2.064   6.501   0.324 -0.3932  0.0217 -0.4891
 2694TIP3    H2 8024   2.071   6.477   0.175  1.0267  0.2049 -0.4618
 2695TIP3   OH2 8025   3.613   4.435   2.554 -0.0876 -0.4567 -0.0952
 2695TIP3    H1 8026   3.631   4.375   2.627 -0.4328  0.3961  0.7095
 2695TIP3    H2 8027   3.567   4.509   2.594  1.2227  0.8382 -0.8764
 2696TIP3   OH2 8028   1.708   0.979   6.237 -0.2521  0.2503 -0.0718
 2696TIP3    H1 8029   1.653   1.051   6.207 -1.3609 -0.2673  0.6178
 2696TIP3    H2 8030   1.646   0.917   6.276  0.6623 -1.0865 -0.6689
 2697TIP3   OH2 8031   0.867   0.456   5.580  0.3642 -0.1766  0.5718
 2697TIP3    H1 8032   0.921   0.453   5.659  1.2066 -0.2580  0.0112
 2697TIP3    H2 8033   0.848   0.549   5.568 -0.1314 -0.2053  1.1068
 2698TIP3   OH2 8034   7.510   7.383   5.942 -0.0439  0.5721 -0.3878
 2698TIP3    H1 8035   7.473   7.349   6.023 -2.1925 -0.8488 -1.8493
 2698TIP3    H2 8036   7.603   7.359   5.946  0.5055  2.6873  2.6423
 2699TIP3   OH2 8037   2.045   3.719   0.552  0.3647  0.1744  0.4678
 2699TIP3    H1 8038   2.047   3.803   0.598  2.6409  1.0656 -1.0727
 2699TIP3    H2 8039   2.023   3.742   0.461 -0.4242 -1.1072  0.3019
 2700TIP3   OH2 8040   7.642   0.095   6.157  0.2180 -0.3532 -0.3075
 2700TIP3    H1 8041   7.721   0.086   6.211 -0.0918 -1.7619 -0.0565
 2700TIP3    H2 8042   7.618   0.006   6.133  0.4466  0.2261 -2.9880
 2701TIP3   OH2 8043   7.718   2.898   4.753  0.6278  0.0290  0.3992
 2701TIP3    H1 8044   7.774   2.837   4.799  1.0378  0.2475  0.1931
 2701TIP3    H2 8045   7.734   2.983   4.795  0.8943  0.2025 -0.0441
 2702TIP3   OH2 8046   4.687   6.513   2.525  0.2803 -0.2897 -0.3608
 2702TIP3    H1 8047   4.738   6.549   2.452 -1.9940 -0.7707 -2.3407
 2702TIP3    H2 8048   4.742   6.526   2.602  3.2952 -0.6978 -2.2743
 2703TIP3   OH2 8049   5.195   3.488   2.567  0.0233 -0.1168 -0.1418
 2703TIP3    H1 8050   5.144   3.535   2.501 -0.7262 -1.2010 -0.3549
 2703TIP3    H2 8051   5.211   3.402   2.528 -1.4672 -1.2208  1.5525
 2704TIP3   OH2 8052   4.981   6.927   4.177 -0.1084  0.5009 -0.7279
 2704TIP3    H1 8053   4.950   7.005   4.132  0.5460  0.5080 -1.1713
 2704TIP3    H2 8054   4.902   6.889   4.216 -0.3683  1.6610 -0.0574
 2705TIP3   OH2 8055   0.965   5.374   1.355 -0.3277 -0.2954 -0.5259
 2705TIP3    H1 8056   0.892   5.380   1.416 -0.9681 -0.8694 -1.2055
 2705TIP3    H2 8057   0.935   5.313   1.288  0.5861 -0.1450 -1.0952
 2706TIP3   OH2 8058   5.192   3.733   3.264 -0.1490  1.0618 -0.0607
 2706TIP3    H1 8059   5.274   3.707   3.223 -0.9837  0.2511 -1.2737
 2706TIP3    H2 8060   5.198   3.700   3.354  0.5951  0.4634 -0.3239
 2707TIP3   OH2 8061   0.965   2.238   6.001 -0.8253 -0.0578 -0.1553
 2707TIP3    H1 8062   1.038   2.295   6.027 -0.5814 -0.3799 -0.1301
 2707TIP3    H2 8063   0.993   2.150   6.026 -1.0179 -0.2442 -0.5860
 2708TIP3   OH2 8064   6.838   4.250   2.787 -0.8623 -0.1665  0.3218
 2708TIP3    H1 8065   6.886   4.267   2.867  1.6343  0.9819 -1.2978
 2708TIP3    H2 8066   6.817   4.156   2.791  1.5846 -0.7629  1.1305
 2709TIP3   OH2 8067   7.785   0.756   0.502 -0.1286 -0.0512 -0.1924
 2709TIP3    H1 8068   7.824   0.674   0.534 -1.1745 -1.2370 -1.8095
 2709TIP3    H2 8069   7.805   0.757   0.409 -2.0763  0.3881 -0.6364
 2710TIP3   OH2 8070   0.173   2.862   1.012  0.1813  0.0387  0.6434
 2710TIP3    H1 8071   0.147   2.915   0.937  1.1329 -0.1188  0.1906
 2710TIP3    H2 8072   0.125   2.779   1.001  0.3224  0.0125  0.1960
 2711TIP3   OH2 8073   4.399   6.966   0.683  0.4335  0.3265 -0.3958
 2711TIP3    H1 8074   4.385   6.875   0.656  2.8949  0.3732 -2.1806
 2711TIP3    H2 8075   4.436   6.961   0.771 -0.3784 -0.3132 -0.0806
 2712TIP3   OH2 8076   3.702   3.888   0.241  0.0234 -0.2762 -0.5000
 2712TIP3    H1 8077   3.792   3.902   0.213  0.1666  1.2150  0.5821
 2712TIP3    H2 8078   3.688   3.952   0.310 -1.5570 -1.1683  0.0656
 2713TIP3   OH2 8079   2.585   3.037   0.641  0.5587  0.0044  0.8308
 2713TIP3    H1 8080   2.603   2.943   0.654 -1.7668 -0.7199 -0.6563
 2713TIP3    H2 8081   2.633   3.060   0.562  1.1120  0.0860  1.1838
 2714TIP3   OH2 8082   0.459   7.794   6.112  0.5366 -0.0087 -0.3717
 2714TIP3    H1 8083   0.439   7.887   6.105 -1.9869 -0.5102 -0.9068
 2714TIP3    H2 8084   0.373   7.751   6.107  1.7089 -2.4222 -1.2709
 2715TIP3   OH2 8085   2.277   4.555   5.905 -0.0305  0.8302  0.1114
 2715TIP3    H1 8086   2.198   4.526   5.952  0.6817 -0.8015  0.3690
 2715TIP3    H2 8087   2.300   4.639   5.946 -0.3054  0.1775  1.6678
 2716TIP3   OH2 8088   7.752   1.868   1.304  0.6128  0.4074 -0.1503
 2716TIP3    H1 8089   7.815   1.816   1.355 -0.1457  0.4349  0.8469
 2716TIP3    H2 8090   7.684   1.891   1.367  0.2313  1.4398 -0.9181
 2717TIP3   OH2 8091   4.033   1.872   5.670 -0.0418 -0.0629  0.5543
 2717TIP3    H1 8092   3.973   1.798   5.680  0.8077 -0.8640 -0.1129
 2717TIP3    H2 8093   4.014   1.928   5.745 -0.9322 -0.7904  0.8955
 2718TIP3   OH2 8094   0.519   1.471   5.733  0.2766 -0.1289 -0.7610
 2718TIP3    H1 8095   0.537   1.561   5.705 -0.3789  0.8402  1.6840
 2718TIP3    H2 8096   0.585   1.418   5.688  1.1563  1.6604 -1.6806
 2719TIP3   OH2 8097   3.082   5.056   0.113  0.1257  0.0536  0.2844
 2719TIP3    H1 8098   3.142   4.985   0.089  1.5408  0.7734  1.4849
 2719TIP3    H2 8099   3.044   5.028   0.196  2.2568  1.4818  1.8647
 2720TIP3   OH2 8100   3.300   4.087   1.444 -0.6308  0.0645 -0.2571
 2720TIP3    H1 8101   3.337   4.153   1.385  0.7822 -2.4010 -2.3010
 2720TIP3    H2 8102   3.372   4.065   1.503 -0.6781 -0.5487 -0.4247
 2721TIP3   OH2 8103   7.347   7.878   0.649 -0.0586 -0.1585  0.1578
 2721TIP3    H1 8104   7.409   7.851   0.718  0.8284  1.8080  0.1741
 2721TIP3    H2 8105   7.270   7.824   0.665  1.2945 -2.0533  0.6877
 2722TIP3   OH2 8106   1.970   6.844   1.135 -0.4493  0.0057 -0.0469
 2722TIP3    H1 8107   1.995   6.763   1.179 -1.8890 -0.0759  0.6705
 2722TIP3    H2 8108   1.933   6.816   1.051 -0.0559 -0.0132 -0.2138
 2723TIP3   OH2 8109   2.657   2.220   4.805  0.0069  0.1111 -0.1643
 2723TIP3    H1 8110   2.611   2.172   4.737 -1.3346 -1.6786  1.8704
 2723TIP3    H2 8111   2.712   2.155   4.848  0.4011  1.0402  0.7992
 2724TIP3   OH2 8112   0.367   4.885   0.771 -0.0838  0.0962  0.3538
 2724TIP3    H1 8113   0.346   4.959   0.828 -0.2321 -1.2132  2.1005
 2724TIP3    H2 8114   0.463   4.880   0.773 -0.0372  0.5707 -0.2517
 2725TIP3   OH2 8115   3.824   5.509   6.478  0.0529  0.3237  0.2681
 2725TIP3    H1 8116   3.742   5.458   6.480  0.2774 -0.0247  1.1481
 2725TIP3    H2 8117   3.887   5.451   6.434  0.2940 -0.1521  1.2193
 2726TIP3   OH2 8118   5.320   2.534   6.473  0.2069  0.7954  0.1771
 2726TIP3    H1 8119   5.394   2.562   6.420 -0.1010  2.2274  0.4564
 2726TIP3    H2 8120   5.243   2.553   6.419  0.0258 -2.0409 -0.7304
 2727TIP3   OH2 8121   1.427   2.012   0.911  0.3860 -0.1879 -0.1765
 2727TIP3    H1 8122   1.467   2.008   0.824  0.0934  0.1066 -0.3273
 2727TIP3    H2 8123   1.435   2.104   0.937  2.1582 -0.5975  0.9157
 2728TIP3   OH2 8124   4.175   3.091   5.531  0.4478 -0.2043 -0.2187
 2728TIP3    H1 8125   4.254   3.125   5.572 -0.6518  0.8875  1.1161
 2728TIP3    H2 8126   4.135   3.168   5.490 -0.2197 -0.6084 -0.3351
 2729TIP3   OH2 8127   1.198   6.754   6.437  0.1773 -0.1577  0.4084
 2729TIP3    H1 8128   1.274   6.753   6.379  1.3713 -1.2324  1.8980
 2729TIP3    H2 8129   1.194   6.664   6.472 -2.2353 -0.3558 -0.1682
 2730TIP3   OH2 8130   0.802   3.092   2.198  0.5844 -0.5025  0.4082
 2730TIP3    H1 8131   0.709   3.079   2.214  0.5505 -0.1241  0.5380
 2730TIP3    H2 8132   0.806   3.147   2.120  0.7286 -1.4330 -0.2514
 2731TIP3   OH2 8133   7.323   5.428   1.297 -0.4584 -0.2359  0.1446
 2731TIP3    H1 8134   7.371   5.470   1.368 -0.2057 -0.2235 -0.0326
 2731TIP3    H2 8135   7.282   5.352   1.338 -0.9461  0.1929  0.4734
 2732TIP3   OH2 8136   1.388   6.751   6.682  0.4607  0.2368  0.3909
 2732TIP3    H1 8137   1.401   6.677   6.623  1.0517  1.2416 -0.8038
 2732TIP3    H2 8138   1.390   6.828   6.624  1.7074  1.3113  1.7892
 2733TIP3   OH2 8139   6.371   4.271   0.234 -0.4130  0.0008  0.2902
 2733TIP3    H1 8140   6.368   4.356   0.280 -0.6804  0.1826 -0.0513
 2733TIP3    H2 8141   6.304   4.280   0.166  0.9351  0.2559 -1.0385
 2734TIP3   OH2 8142   7.799   4.686   4.492 -0.1609  0.1343  0.1640
 2734TIP3    H1 8143   7.852   4.758   4.459  2.0978 -0.6578  1.8563
 2734TIP3    H2 8144   7.709   4.712   4.471  0.7746  1.6741 -2.5424
 2735TIP3   OH2 8145   7.111   1.700   2.760  0.3770  0.5653  0.0386
 2735TIP3    H1 8146   7.124   1.736   2.672  2.2508  1.0988  0.4820
 2735TIP3    H2 8147   7.197   1.708   2.801 -0.0433 -1.2598  1.3510
 2736TIP3   OH2 8148   4.287   7.909   2.399  0.6425  0.2808  0.3177
 2736TIP3    H1 8149   4.374   7.946   2.383  0.8880 -1.0739 -1.7553
 2736TIP3    H2 8150   4.302   7.816   2.416 -0.4605 -0.2815 -1.5011
 2737TIP3   OH2 8151   1.663   6.614   1.379 -0.3635  0.7352  0.4160
 2737TIP3    H1 8152   1.671   6.518   1.382  0.1859  0.7876  0.8745
 2737TIP3    H2 8153   1.596   6.634   1.443 -1.3803  0.5776 -0.5671
 2738TIP3   OH2 8154   4.341   0.516   3.639  0.2524 -0.2504 -0.1553
 2738TIP3    H1 8155   4.318   0.430   3.673  0.3949 -0.1549  0.1794
 2738TIP3    H2 8156   4.422   0.539   3.684  0.9434 -0.5195 -1.2098
 2739TIP3   OH2 8157   4.462   4.829   1.658 -0.4736 -0.1600  0.3043
 2739TIP3    H1 8158   4.469   4.910   1.606  3.7181  0.2859  1.2249
 2739TIP3    H2 8159   4.458   4.759   1.592 -1.9295  0.6517 -0.5183
 2740TIP3   OH2 8160   5.728   6.874   4.121 -0.2619 -0.0616  0.1752
 2740TIP3    H1 8161   5.671   6.800   4.139 -0.3184  0.1879  1.0427
 2740TIP3    H2 8162   5.817   6.838   4.123 -0.3250 -0.2413 -0.1400
 2741TIP3   OH2 8163   4.037   4.715   2.850 -0.0636 -1.0602 -0.5522
 2741TIP3    H1 8164   4.028   4.646   2.784 -0.4486 -0.7533 -0.8261
 2741TIP3    H2 8165   3.956   4.712   2.900 -0.1694 -0.6720 -0.6966
 2742TIP3   OH2 8166   5.767   6.621   0.223 -0.3222  0.1199  0.3383
 2742TIP3    H1 8167   5.848   6.576   0.197  1.2246  2.0140  1.5489
 2742TIP3    H2 8168   5.737   6.574   0.301 -0.8784 -1.0712 -0.5562
 2743TIP3   OH2 8169   8.021   4.753   6.442  0.2874 -0.2127  0.6219
 2743TIP3    H1 8170   7.926   4.765   6.444  0.1574 -0.8278 -0.4523
 2743TIP3    H2 8171   8.049   4.766   6.532 -0.6241  1.4008  0.7221
 2744TIP3   OH2 8172   3.587   5.733   2.252 -0.1328 -0.0333 -0.2395
 2744TIP3    H1 8173   3.596   5.765   2.342 -0.4066 -0.9216  0.1212
 2744TIP3    H2 8174   3.668   5.687   2.235  0.7173  1.7118 -1.1445
 2745TIP3   OH2 8175   7.903   3.136   2.370  0.6213 -0.2413  0.1591
 2745TIP3    H1 8176   7.897   3.135   2.274 -2.9725  0.5870  0.2612
 2745TIP3    H2 8177   7.984   3.088   2.389  0.1471 -2.7125 -3.2003
 2746TIP3   OH2 8178   3.443   0.092   5.835 -0.2065  0.1281 -0.2645
 2746TIP3    H1 8179   3.374   0.155   5.816 -2.4494 -1.4785  1.9242
 2746TIP3    H2 8180   3.492   0.131   5.907 -0.9827 -0.1197  0.4233
 2747TIP3   OH2 8181   0.836   2.113   5.522  0.1726 -0.3964  0.8040
 2747TIP3    H1 8182   0.809   2.048   5.457  1.9504  0.3683 -0.8033
 2747TIP3    H2 8183   0.889   2.063   5.585 -1.0568 -1.0258  1.3909
 2748TIP3   OH2 8184   7.897   6.864   0.737 -0.2330  0.0875  0.4056
 2748TIP3    H1 8185   7.988   6.870   0.769  0.0919 -2.2203  0.0820
 2748TIP3    H2 8186   7.856   6.945   0.767  1.8916  1.1261  0.6997
 2749TIP3   OH2 8187   0.288   6.969   3.952 -0.0435 -0.8573  0.7015
 2749TIP3    H1 8188   0.266   6.896   4.009  0.2161 -0.1580  1.7437
 2749TIP3    H2 8189   0.347   7.023   4.005  0.3431 -0.2657 -0.3012
 2750TIP3   OH2 8190   2.120   4.946   0.117  0.0082  0.2749  1.0411
 2750TIP3    H1 8191   2.095   4.864   0.158  2.7339 -2.0004 -1.4345
 2750TIP3    H2 8192   2.188   4.982   0.173 -0.0838  0.0197  1.3159
 2751TIP3   OH2 8193   5.446   0.985   6.014  0.5293  0.0372 -0.2782
 2751TIP3    H1 8194   5.381   1.044   6.052  1.1651  0.5688 -0.0158
 2751TIP3    H2 8195   5.521   1.040   5.993  0.5466 -0.4061 -1.4626
 2752TIP3   OH2 8196   0.207   7.491   1.999 -0.0513 -0.3291 -0.5844
 2752TIP3    H1 8197   0.231   7.584   1.988 -2.2803  0.2372 -1.2858
 2752TIP3    H2 8198   0.234   7.450   1.917  0.4571 -0.1918 -0.4892
 2753TIP3   OH2 8199   2.460   1.146   3.477  0.1879  0.0878 -0.0364
 2753TIP3    H1 8200   2.425   1.074   3.424 -2.5574  1.2194  0.0900
 2753TIP3    H2 8201   2.492   1.104   3.557 -0.3069 -1.1210 -0.4473
 2754TIP3   OH2 8202   1.687   3.939   0.100 -0.2975  0.5092 -0.8088
 2754TIP3    H1 8203   1.752   3.908   0.163 -1.0656  0.5036  0.0030
 2754TIP3    H2 8204   1.681   4.033   0.115 -1.5572  0.2985  0.1921
 2755TIP3   OH2 8205   3.238   1.743   0.044 -0.2942  0.3600  0.0843
 2755TIP3    H1 8206   3.298   1.698   0.103  0.5712 -0.0433 -1.0948
 2755TIP3    H2 8207   3.161   1.686   0.040 -0.2669  0.2783  0.6334
 2756TIP3   OH2 8208   0.003   6.151   4.063 -0.0780  0.0469 -0.4112
 2756TIP3    H1 8209  -0.002   6.056   4.060  3.2710 -0.3675  1.9160
 2756TIP3    H2 8210   0.084   6.172   4.015  0.1536  1.5478  0.5797
 2757TIP3   OH2 8211   1.893   0.043   1.827 -0.0496  0.3041  0.1486
 2757TIP3    H1 8212   1.976  -0.002   1.844 -1.0465 -1.4925  0.4037
 2757TIP3    H2 8213   1.900   0.071   1.735  0.4768 -0.6270 -0.1079
 2758TIP3   OH2 8214   0.251   0.497   4.825 -0.5018 -0.2434  0.0164
 2758TIP3    H1 8215   0.239   0.558   4.752  2.0170  0.8240  0.4251
 2758TIP3    H2 8216   0.183   0.520   4.887 -0.3670  1.3437 -0.3825
 2759TIP3   OH2 8217   5.378   1.205   1.075  0.1641  0.2319 -0.0751
 2759TIP3    H1 8218   5.465   1.180   1.107 -0.3320 -0.5458  0.7028
 2759TIP3    H2 8219   5.336   1.245   1.151 -0.4027 -0.0269 -0.2473
 2760TIP3   OH2 8220   4.623   7.620   1.523  0.4642 -0.2266  0.2940
 2760TIP3    H1 8221   4.678   7.580   1.456 -0.0639  1.2831 -1.1172
 2760TIP3    H2 8222   4.677   7.620   1.602  1.1933 -1.8406 -0.1677
 2761TIP3   OH2 8223   3.777   1.249   2.932 -0.5566 -0.7457  0.0094
 2761TIP3    H1 8224   3.701   1.248   2.874  0.2660 -2.3464 -1.1176
 2761TIP3    H2 8225   3.852   1.239   2.874  0.4199 -0.7587  1.2257
 2762TIP3   OH2 8226   6.789   3.850   5.881 -0.0921 -0.1837 -0.4100
 2762TIP3    H1 8227   6.844   3.920   5.915  0.3475  0.3196 -2.1042
 2762TIP3    H2 8228   6.841   3.771   5.892  0.1368  0.0030 -0.1479
 2763TIP3   OH2 8229   5.723   3.442   6.285  0.0138 -0.4819  0.2491
 2763TIP3    H1 8230   5.686   3.355   6.272 -2.4046  0.7545 -2.2441
 2763TIP3    H2 8231   5.802   3.443   6.231 -1.2090 -0.4859 -1.6185
 2764TIP3   OH2 8232   7.026   7.363   3.056 -0.4450 -0.4472 -0.2858
 2764TIP3    H1 8233   7.000   7.450   3.027 -1.4245 -0.2369  1.1548
 2764TIP3    H2 8234   7.085   7.378   3.130  0.6821 -1.0013 -1.0379
 2765TIP3   OH2 8235   5.951   3.208   6.459 -0.0617 -0.5683 -0.4824
 2765TIP3    H1 8236   5.890   3.185   6.389 -1.2713  1.2964 -0.1331
 2765TIP3    H2 8237   6.018   3.261   6.417 -0.1613 -0.3984 -0.4290
 2766TIP3   OH2 8238   1.752   0.570   1.264 -0.5424  0.6007 -0.1477
 2766TIP3    H1 8239   1.773   0.652   1.220 -1.3096  0.7615 -0.2373
 2766TIP3    H2 8240   1.701   0.597   1.341  0.0861  0.2698  0.3969
 2767TIP3   OH2 8241   5.765   3.154   3.729 -0.0889 -0.2723  0.0110
 2767TIP3    H1 8242   5.799   3.203   3.803  2.3042  0.4186 -1.4379
 2767TIP3    H2 8243   5.745   3.220   3.663 -1.4071 -0.9279 -0.2784
 2768TIP3   OH2 8244   6.935   6.511   1.489  0.6602 -0.3439  0.4179
 2768TIP3    H1 8245   6.865   6.483   1.430  3.0439 -1.1693 -2.2233
 2768TIP3    H2 8246   6.907   6.596   1.521 -2.2175 -1.2848  0.7389
 2769TIP3   OH2 8247   7.493   5.731   1.735 -0.2454  0.3231 -0.1132
 2769TIP3    H1 8248   7.473   5.769   1.821  0.4474  0.4071  0.0157
 2769TIP3    H2 8249   7.478   5.803   1.673 -1.0914  0.1635 -0.1144
 2770TIP3   OH2 8250   5.746   4.326   4.603 -0.0998  0.1221  0.5886
 2770TIP3    H1 8251   5.750   4.304   4.510  0.9431  1.6782  0.2447
 2770TIP3    H2 8252   5.825   4.376   4.620 -2.3386  3.7686  1.2575
 2771TIP3   OH2 8253   2.822   1.726   4.590  0.1093 -0.1593 -0.3529
 2771TIP3    H1 8254   2.914   1.750   4.597  0.0321  0.0576 -0.0675
 2771TIP3    H2 8255   2.778   1.781   4.655 -0.3309  0.3530 -1.0708
 2772TIP3   OH2 8256   0.376   5.004   1.467 -0.2062 -1.0409  0.0036
 2772TIP3    H1 8257   0.391   4.965   1.381  0.6297 -1.6007  0.3912
 2772TIP3    H2 8258   0.337   5.089   1.448  0.0966 -1.1014 -0.9351
 2773TIP3   OH2 8259   3.804   0.542   5.428 -0.4469  0.5005 -0.1569
 2773TIP3    H1 8260   3.723   0.516   5.473  0.0450  0.9559  1.0232
 2773TIP3    H2 8261   3.849   0.459   5.411 -2.1277 -0.0018 -2.8603
 2774TIP3   OH2 8262   1.115   0.732   4.133 -0.6592 -0.4030  0.2133
 2774TIP3    H1 8263   1.090   0.653   4.084  0.3936  0.4793 -1.8626
 2774TIP3    H2 8264   1.210   0.733   4.130 -0.5736 -0.0608  1.9649
 2775TIP3   OH2 8265   1.754   6.936   0.296 -0.1752  0.3758  0.5553
 2775TIP3    H1 8266   1.828   6.987   0.330  2.1480 -2.1285 -0.3309
 2775TIP3    H2 8267   1.767   6.849   0.332 -1.7777 -0.5497 -0.9867
 2776TIP3   OH2 8268   4.339   6.806   1.589 -0.3404  0.3640 -0.1338
 2776TIP3    H1 8269   4.252   6.820   1.553 -1.5660 -1.1715  2.0439
 2776TIP3    H2 8270   4.397   6.853   1.528 -2.8226  3.5517 -0.3402
 2777TIP3   OH2 8271   4.721   2.976   4.674 -0.3311  0.2520 -0.2479
 2777TIP3    H1 8272   4.721   3.059   4.627 -1.3390  0.0197 -0.6970
 2777TIP3    H2 8273   4.645   2.981   4.732 -0.0353 -0.1145  0.1806
 2778TIP3   OH2 8274   8.028   4.434   5.621  0.0113  0.1266  0.1654
 2778TIP3    H1 8275   8.098   4.475   5.673  0.6924 -1.3409  0.4601
 2778TIP3    H2 8276   8.046   4.460   5.531  0.7045  0.0957  0.2902
 2779TIP3   OH2 8277   4.323   3.695   6.420 -0.3796 -0.2521  0.3149
 2779TIP3    H1 8278   4.391   3.651   6.472 -1.1761 -0.4033  1.2578
 2779TIP3    H2 8279   4.334   3.788   6.439  1.1187 -0.0062 -1.4552
 2780TIP3   OH2 8280   3.859   0.550   5.733 -0.3146 -0.1855  0.0060
 2780TIP3    H1 8281   3.818   0.514   5.654 -1.7976 -1.5660  1.3443
 2780TIP3    H2 8282   3.804   0.625   5.755  1.2796  1.4870 -1.3254
 2781TIP3   OH2 8283   6.514   4.336   0.841  0.1376  0.1997  0.6740
 2781TIP3    H1 8284   6.490   4.368   0.928  0.2365 -0.0719  0.8023
 2781TIP3    H2 8285   6.468   4.252   0.833  0.3479  0.0933  0.5737
 2782TIP3   OH2 8286   4.366   2.098   1.643  0.2544  0.0660 -0.2783
 2782TIP3    H1 8287   4.447   2.048   1.632  0.5124  0.2255  0.7506
 2782TIP3    H2 8288   4.389   2.168   1.704 -0.8918 -0.4983  0.8660
 2783TIP3   OH2 8289   7.712   6.494   2.830  0.1663  0.0226 -0.5671
 2783TIP3    H1 8290   7.636   6.499   2.772 -0.6573 -1.3501  0.3534
 2783TIP3    H2 8291   7.680   6.450   2.909  2.6385 -4.0308 -1.5336
 2784TIP3   OH2 8292   5.122   4.521   1.505 -0.2340  0.3419 -0.2041
 2784TIP3    H1 8293   5.212   4.541   1.482 -0.0397  0.0257  0.2594
 2784TIP3    H2 8294   5.120   4.425   1.513 -0.9133  0.2317 -1.4361
 2785TIP3   OH2 8295   5.374   2.847   6.688  0.2411  0.1424  0.1184
 2785TIP3    H1 8296   5.317   2.794   6.744  0.6392  0.1534  0.5468
 2785TIP3    H2 8297   5.321   2.867   6.611  0.1318 -1.0141 -0.1293
 2786TIP3   OH2 8298   1.680   2.700   5.810  0.4010 -0.3464 -0.2307
 2786TIP3    H1 8299   1.648   2.773   5.863  0.7149 -0.9721  0.8664
 2786TIP3    H2 8300   1.664   2.623   5.864  0.5849 -1.0277 -1.1337
 2787TIP3   OH2 8301   0.032   1.628   3.585 -0.7995 -0.4097  0.4617
 2787TIP3    H1 8302   0.090   1.683   3.638 -1.4981 -0.2508  1.0827
 2787TIP3    H2 8303   0.085   1.601   3.511 -0.2898  0.6873  0.4090
 2788TIP3   OH2 8304   0.512   1.974   1.215 -0.8933 -0.4868 -0.1052
 2788TIP3    H1 8305   0.516   1.978   1.310 -2.0285 -0.8550 -0.0214
 2788TIP3    H2 8306   0.424   2.006   1.194 -0.7423 -0.6420 -1.0026
 2789TIP3   OH2 8307   2.764   7.686   3.979  0.9152 -0.6399  0.2903
 2789TIP3    H1 8308   2.758   7.618   4.046  1.2749 -1.4059 -0.4351
 2789TIP3    H2 8309   2.824   7.750   4.015 -0.8364  0.2646  1.7824
 2790TIP3   OH2 8310   4.496   4.494   4.529  0.0779  0.0845 -0.0563
 2790TIP3    H1 8311   4.433   4.566   4.531 -0.9274 -0.7660  2.4134
 2790TIP3    H2 8312   4.580   4.536   4.552 -0.1192  0.7525 -0.5139
 2791TIP3   OH2 8313   6.144   6.584   0.342  0.0334 -0.6665 -0.3835
 2791TIP3    H1 8314   6.101   6.518   0.287 -0.9003  0.5101 -1.1223
 2791TIP3    H2 8315   6.072   6.626   0.389  0.6255 -0.2002  0.1152
 2792TIP3   OH2 8316   0.759   4.689   4.516  0.2113 -0.1466  0.0994
 2792TIP3    H1 8317   0.749   4.640   4.434  0.8452 -1.1173  0.5740
 2792TIP3    H2 8318   0.670   4.710   4.543  0.0194  0.6413 -1.0964
 2793TIP3   OH2 8319   8.430   7.791   5.068  0.1127 -0.5168  0.5261
 2793TIP3    H1 8320   8.441   7.856   4.999  1.3088  0.0241  1.1772
 2793TIP3    H2 8321   8.344   7.809   5.105  0.2999  0.4987  0.4941
 2794TIP3   OH2 8322   8.373   2.798   1.969  0.0786  0.7116 -0.1448
 2794TIP3    H1 8323   8.386   2.747   1.889  2.1534  0.1239  0.4914
 2794TIP3    H2 8324   8.429   2.755   2.034 -1.1308  1.5005  1.4865
 2795TIP3   OH2 8325   7.227   5.730   2.502 -0.2440 -0.4254  0.0513
 2795TIP3    H1 8326   7.259   5.662   2.444  0.9137  1.2812 -1.4139
 2795TIP3    H2 8327   7.282   5.806   2.484 -2.5542  1.4510  0.3277
 2796TIP3   OH2 8328   4.346   7.697   2.605 -0.0675 -0.1572 -0.0548
 2796TIP3    H1 8329   4.251   7.704   2.599 -0.3653 -1.7646  1.7388
 2796TIP3    H2 8330   4.369   7.627   2.543 -0.2891 -0.9378  0.7251
 2797TIP3   OH2 8331   1.372   6.761   2.148 -0.3784  0.1414  0.1851
 2797TIP3    H1 8332   1.345   6.699   2.081 -0.4148 -1.2642  1.4347
 2797TIP3    H2 8333   1.409   6.707   2.218 -2.1905  1.3135  2.1976
 2798TIP3   OH2 8334   5.158   7.416   5.407  0.3174  0.1571  0.1914
 2798TIP3    H1 8335   5.153   7.496   5.354 -0.5302  1.1391  1.7073
 2798TIP3    H2 8336   5.084   7.364   5.378  0.5631  0.1445 -0.4305
 2799TIP3   OH2 8337   4.179   5.332   3.453  0.0027 -0.0655  0.1610
 2799TIP3    H1 8338   4.094   5.289   3.446  0.0978 -0.1468 -0.5847
 2799TIP3    H2 8339   4.240   5.272   3.408  0.7756 -0.8442  2.1402
 2800TIP3   OH2 8340   0.126   7.893   6.084 -0.0354  0.2709 -0.2280
 2800TIP3    H1 8341   0.153   7.851   6.166  0.6039  1.1733  0.0469
 2800TIP3    H2 8342   0.034   7.917   6.099  0.3145  1.2078  0.5906
 2801TIP3   OH2 8343   5.418   0.937   6.469 -0.0961 -0.0144 -0.3898
 2801TIP3    H1 8344   5.421   1.031   6.453 -1.6013  0.1529  0.1793
 2801TIP3    H2 8345   5.509   0.908   6.462  0.0889  1.0051 -3.2189
 2802TIP3   OH2 8346   3.050   4.772   0.270 -0.0337  0.0045 -0.0528
 2802TIP3    H1 8347   2.972   4.828   0.266  1.0918  1.6164 -0.0290
 2802TIP3    H2 8348   3.114   4.823   0.318  0.3953 -2.1476  1.7983
 2803TIP3   OH2 8349   7.591   5.405   2.230  0.5658 -0.3851  0.0302
 2803TIP3    H1 8350   7.685   5.420   2.221  0.4481  0.1639 -0.2759
 2803TIP3    H2 8351   7.553   5.432   2.147 -0.1210  1.5447  0.9166
 2804TIP3   OH2 8352   3.016   5.315   3.027 -0.4444  0.3159 -0.0306
 2804TIP3    H1 8353   2.948   5.250   3.044 -0.2805  0.3769  0.8602
 2804TIP3    H2 8354   2.969   5.388   2.985 -0.7336 -0.1034 -0.4470
 2805TIP3   OH2 8355   4.429   1.221   3.133 -0.5720  0.3364 -0.0315
 2805TIP3    H1 8356   4.518   1.187   3.137 -1.4430 -2.0212  0.9662
 2805TIP3    H2 8357   4.397   1.193   3.047 -0.6219  0.4387 -0.0465
 2806TIP3   OH2 8358   4.961   4.649   0.897 -0.1077 -0.0038 -0.2206
 2806TIP3    H1 8359   5.029   4.616   0.839 -0.9893 -3.6224  0.5165
 2806TIP3    H2 8360   4.938   4.574   0.952 -0.8961  2.5468  3.3288
 2807TIP3   OH2 8361   8.033   2.938   5.133  0.2294  0.2402 -0.0124
 2807TIP3    H1 8362   8.036   2.861   5.076 -1.0957  1.9607 -2.6198
 2807TIP3    H2 8363   8.115   2.936   5.181  0.4263 -2.5306 -0.2986
 2808TIP3   OH2 8364   6.742   5.160   2.875  0.4521 -0.3602  0.3124
 2808TIP3    H1 8365   6.720   5.086   2.818  0.9710  0.2809 -0.7486
 2808TIP3    H2 8366   6.677   5.156   2.945  0.5175 -1.8638  0.3306
 2809TIP3   OH2 8367   7.379   0.369   2.791 -0.2150  0.4843  0.9485
 2809TIP3    H1 8368   7.353   0.457   2.763  0.5450 -0.3912 -2.9917
 2809TIP3    H2 8369   7.297   0.326   2.816 -0.5906  2.1901  2.9846
 2810TIP3   OH2 8370   1.275   3.315   5.137 -0.5893  0.4597  0.5157
 2810TIP3    H1 8371   1.321   3.234   5.160  1.0283  1.5927  1.4785
 2810TIP3    H2 8372   1.216   3.331   5.211  0.1036  0.8649  0.9918
 2811TIP3   OH2 8373   1.201   7.235   2.865 -0.0520  0.7821 -0.8876
 2811TIP3    H1 8374   1.237   7.156   2.905 -1.0796  0.2861 -0.9225
 2811TIP3    H2 8375   1.213   7.222   2.771 -0.0926  0.7349 -0.8860
 2812TIP3   OH2 8376   7.745   1.486   6.795  0.1518  0.4198 -0.0037
 2812TIP3    H1 8377   7.664   1.502   6.844  0.8953  0.0041  1.4145
 2812TIP3    H2 8378   7.733   1.398   6.758  0.7271 -0.4934  1.8778
 2813TIP3   OH2 8379   6.604   0.489   6.720  0.1511  0.2593  0.5081
 2813TIP3    H1 8380   6.543   0.554   6.684  0.1063 -0.3421 -0.5106
 2813TIP3    H2 8381   6.548   0.427   6.767  0.0531  0.1475  0.2443
 2814TIP3   OH2 8382   7.035   7.280   1.733 -0.1679 -0.3452 -0.7618
 2814TIP3    H1 8383   7.117   7.313   1.767  0.1592  1.1179 -2.8075
 2814TIP3    H2 8384   7.058   7.198   1.688 -0.1180 -0.7360 -0.0413
 2815TIP3   OH2 8385   3.446   2.665   3.177  0.1411 -0.2819 -0.0800
 2815TIP3    H1 8386   3.468   2.572   3.186 -1.4188 -0.6865 -0.0689
 2815TIP3    H2 8387   3.380   2.680   3.246 -0.5062  0.5127 -0.8485
 2816TIP3   OH2 8388   0.128   0.363   4.524 -0.3612 -0.1109 -0.2232
 2816TIP3    H1 8389   0.220   0.364   4.495  0.3916 -0.0357  1.9940
 2816TIP3    H2 8390   0.129   0.316   4.607 -2.4006 -0.3419 -0.2804
 2817TIP3   OH2 8391   4.835   0.807   0.050  0.5802  0.9519  1.3759
 2817TIP3    H1 8392   4.742   0.782   0.051  0.5778  0.9161  0.7080
 2817TIP3    H2 8393   4.848   0.852   0.133 -0.1354  1.2849  1.3179
 2818TIP3   OH2 8394   1.643   1.084   4.336 -0.0310 -0.1023 -0.3011
 2818TIP3    H1 8395   1.604   1.018   4.393  0.8240 -0.4780 -0.1395
 2818TIP3    H2 8396   1.672   1.034   4.259  0.3987  0.1218 -0.2867
 2819TIP3   OH2 8397   7.842   4.856   3.442 -0.4780 -0.6983 -0.2013
 2819TIP3    H1 8398   7.897   4.904   3.380  2.9789 -2.9047  0.8673
 2819TIP3    H2 8399   7.828   4.771   3.400 -0.5763 -1.1783  0.7846
 2820TIP3   OH2 8400   7.109   3.399   3.269  0.2884 -0.1730 -0.4028
 2820TIP3    H1 8401   7.091   3.357   3.353 -1.1165  0.7110 -0.2303
 2820TIP3    H2 8402   7.186   3.453   3.285  1.0989 -1.3495 -0.1787
 2821TIP3   OH2 8403   2.630   6.298   6.048 -0.4655 -0.1098  0.4956
 2821TIP3    H1 8404   2.639   6.222   6.106  0.2459  0.1457  0.7389
 2821TIP3    H2 8405   2.565   6.272   5.983 -0.7446 -0.6671  0.9916
 2822TIP3   OH2 8406   2.393   0.609   6.889 -0.3221 -0.1513 -0.4810
 2822TIP3    H1 8407   2.452   0.537   6.868  0.9628  0.2639  1.4815
 2822TIP3    H2 8408   2.369   0.646   6.804  1.7367 -0.7513 -1.3897
 2823TIP3   OH2 8409   1.315   5.775   4.333  0.6038 -0.5487  0.0089
 2823TIP3    H1 8410   1.346   5.840   4.397 -0.4181 -2.1161  2.2305
 2823TIP3    H2 8411   1.395   5.746   4.289  1.0883  2.1515 -1.0781
 2824TIP3   OH2 8412   0.972   1.774   1.156  0.3188 -0.1969 -0.1155
 2824TIP3    H1 8413   0.930   1.720   1.090 -0.6302  0.6011 -0.1854
 2824TIP3    H2 8414   0.950   1.731   1.239  2.5406 -1.9032 -0.3273
 2825TIP3   OH2 8415   6.367   3.406   4.558 -0.1841 -0.3582 -0.5627
 2825TIP3    H1 8416   6.440   3.352   4.531  0.1084 -0.4317  0.3412
 2825TIP3    H2 8417   6.292   3.346   4.561  0.1029 -0.6758  0.2691
 2826TIP3   OH2 8418   8.030   0.600   6.622 -0.2252 -0.9520  0.5146
 2826TIP3    H1 8419   8.093   0.539   6.661 -0.0691 -1.4078 -0.4405
 2826TIP3    H2 8420   8.081   0.680   6.607 -0.0100 -1.1390  0.2406
 2827TIP3   OH2 8421   1.611   2.238   1.836 -0.4992  0.2211 -0.3944
 2827TIP3    H1 8422   1.544   2.188   1.881 -1.1097 -0.9447 -2.4523
 2827TIP3    H2 8423   1.679   2.254   1.902 -1.1843 -1.6425  0.8193
 2828TIP3   OH2 8424   3.946   5.705   4.057  0.2891  0.3681 -0.3182
 2828TIP3    H1 8425   3.880   5.696   3.989  0.7484 -1.7444 -0.5612
 2828TIP3    H2 8426   3.975   5.615   4.075  0.0035  0.7770  2.8443
 2829TIP3   OH2 8427   4.509   1.293   1.935  0.4401 -0.2039  0.1882
 2829TIP3    H1 8428   4.586   1.288   1.990 -0.2409 -2.3213  1.0453
 2829TIP3    H2 8429   4.447   1.346   1.985  0.3801 -0.7958  0.7486
 2830TIP3   OH2 8430   4.862   6.628   4.040  0.3407  0.1204  0.3805
 2830TIP3    H1 8431   4.885   6.704   4.094 -1.5873  1.2485 -0.3078
 2830TIP3    H2 8432   4.802   6.662   3.975  0.6586 -1.7173 -0.9500
 2831TIP3   OH2 8433   4.190   0.737   5.044  0.1317 -0.3845  0.1366
 2831TIP3    H1 8434   4.267   0.773   5.087  0.1752  1.9371 -1.6391
 2831TIP3    H2 8435   4.225   0.681   4.974  0.1911 -0.3492  0.1382
 2832TIP3   OH2 8436   0.867   1.347   4.801  0.3518 -0.8502  0.1773
 2832TIP3    H1 8437   0.904   1.430   4.771 -1.0843  0.0016  0.6776
 2832TIP3    H2 8438   0.811   1.318   4.728 -1.7592  0.3411  1.2299
 2833TIP3   OH2 8439   5.037   5.717   1.192  0.3022 -0.2770 -0.1143
 2833TIP3    H1 8440   5.071   5.747   1.107  0.4307  0.8979  0.3378
 2833TIP3    H2 8441   5.116   5.703   1.245  0.1567  0.9584  0.4478
 2834TIP3   OH2 8442   0.984   5.189   1.878  0.4481  0.1150 -0.0553
 2834TIP3    H1 8443   0.998   5.268   1.826  0.1589  0.3870  0.2683
 2834TIP3    H2 8444   1.069   5.173   1.920  0.0079  1.4247  1.4478
 2835TIP3   OH2 8445   3.196   1.918   0.689  0.6351  0.2214  0.1859
 2835TIP3    H1 8446   3.197   1.825   0.667 -1.3085  0.5279 -1.5026
 2835TIP3    H2 8447   3.242   1.960   0.617 -3.3267  0.9623 -2.2615
 2836TIP3   OH2 8448   6.636   3.626   1.082  0.2793 -0.1173 -0.0409
 2836TIP3    H1 8449   6.562   3.573   1.112 -0.2729  0.3625 -0.5378
 2836TIP3    H2 8450   6.648   3.691   1.151  0.9149 -0.8247  0.5388
 2837TIP3   OH2 8451   4.556   5.341   4.267  0.4683  0.4184 -0.7518
 2837TIP3    H1 8452   4.592   5.428   4.281  0.6694 -0.0324  2.5615
 2837TIP3    H2 8453   4.633   5.284   4.257  0.5023  0.2434  0.3499
 2838TIP3   OH2 8454   2.999   2.631   1.119 -0.3894 -0.0161  0.1472
 2838TIP3    H1 8455   3.082   2.678   1.117 -0.9584  0.9990 -0.1665
 2838TIP3    H2 8456   3.009   2.567   1.189  1.5136 -1.5231 -1.3740
 2839TIP3   OH2 8457   5.307   6.550   3.969  0.4973  0.0881 -0.1298
 2839TIP3    H1 8458   5.272   6.619   4.025 -0.0856  0.7107 -1.2236
 2839TIP3    H2 8459   5.387   6.522   4.013  0.6297  1.3049  0.4571
 2840TIP3   OH2 8460   0.548   5.380   5.179  0.1598 -0.1608  0.2638
 2840TIP3    H1 8461   0.597   5.303   5.208 -1.2175 -0.6394  1.4462
 2840TIP3    H2 8462   0.586   5.402   5.094  2.4597 -0.4326  1.1576
 2841TIP3   OH2 8463   3.178   6.028   0.577  0.3423 -0.6978 -0.3687
 2841TIP3    H1 8464   3.099   6.023   0.524 -0.9484  1.3477  1.2305
 2841TIP3    H2 8465   3.246   6.058   0.516 -0.4552 -0.9610 -1.4188
 2842TIP3   OH2 8466   8.128   2.969   0.556 -0.2932  0.1768  0.0752
 2842TIP3    H1 8467   8.142   2.957   0.462 -0.3660 -1.7477  0.2710
 2842TIP3    H2 8468   8.092   3.057   0.564  0.3483  0.6266 -1.6299
 2843TIP3   OH2 8469   4.836   2.148   2.690  0.5459  0.4345 -0.1764
 2843TIP3    H1 8470   4.845   2.083   2.759  0.5696 -1.3712 -1.8177
 2843TIP3    H2 8471   4.926   2.176   2.672  0.7962 -0.8904 -1.0977
 2844TIP3   OH2 8472   7.311   0.279   6.464  0.4487 -0.0748 -0.5489
 2844TIP3    H1 8473   7.403   0.272   6.437  1.1129  1.0682  1.1964
 2844TIP3    H2 8474   7.270   0.330   6.395  1.3737  0.2480 -0.8804
 2845TIP3   OH2 8475   6.940   5.413   5.843  0.0428 -0.3734 -0.2921
 2845TIP3    H1 8476   7.004   5.467   5.890 -0.8760  0.1156  0.4195
 2845TIP3    H2 8477   6.941   5.329   5.890  1.1105 -0.8471 -1.1003
 2846TIP3   OH2 8478   1.443   0.907   6.672  0.3465  0.2783  0.3924
 2846TIP3    H1 8479   1.496   0.829   6.658  0.9651  0.3815  1.9327
 2846TIP3    H2 8480   1.455   0.959   6.592  0.1030 -1.0790 -0.5485
 2847TIP3   OH2 8481   4.677   0.230   2.134 -0.8090 -0.0991 -0.0536
 2847TIP3    H1 8482   4.685   0.322   2.109 -0.5294  0.1557  0.9038
 2847TIP3    H2 8483   4.703   0.229   2.226 -2.2832 -0.8826  0.3835
 2848TIP3   OH2 8484   5.469   7.392   4.621 -0.1323 -0.5087 -0.3730
 2848TIP3    H1 8485   5.429   7.473   4.587 -0.7639 -0.3556  0.6913
 2848TIP3    H2 8486   5.510   7.419   4.704  0.8871 -0.9923 -0.7065
 2849TIP3   OH2 8487   3.768   0.873   2.676  0.2513  0.0398  0.0253
 2849TIP3    H1 8488   3.785   0.866   2.582 -0.4900  2.0046 -0.2932
 2849TIP3    H2 8489   3.797   0.789   2.711  1.8501 -0.2400 -1.7536
 2850TIP3   OH2 8490   3.254   1.120   2.566  0.0314  0.5812  0.6821
 2850TIP3    H1 8491   3.165   1.083   2.571  0.2920  0.0226  1.2947
 2850TIP3    H2 8492   3.311   1.044   2.572  0.5617  0.9664  0.5398
 2851TIP3   OH2 8493   1.692   7.567   3.214  0.4478  0.0433 -0.0122
 2851TIP3    H1 8494   1.708   7.501   3.147  1.5776 -0.1935  0.4592
 2851TIP3    H2 8495   1.755   7.546   3.283  0.5223  1.3464  0.3410
 2852TIP3   OH2 8496   4.209   4.783   2.588 -0.2145  0.2773 -0.1028
 2852TIP3    H1 8497   4.215   4.765   2.494  1.1631 -0.2319  0.0633
 2852TIP3    H2 8498   4.208   4.697   2.629 -3.0224  0.3988  0.3058
 2853TIP3   OH2 8499   1.124   5.089   5.563  0.0364 -0.4254  0.8407
 2853TIP3    H1 8500   1.115   4.999   5.532  1.8100 -0.3034 -0.1365
 2853TIP3    H2 8501   1.164   5.137   5.490 -0.2267  1.0089  1.5883
 2854TIP3   OH2 8502   7.003   7.730   2.738 -0.0803 -0.1665  0.1736
 2854TIP3    H1 8503   6.924   7.684   2.712 -0.3311 -2.0013  3.6054
 2854TIP3    H2 8504   6.972   7.800   2.796  0.6619  1.4817 -1.3042
 2855TIP3   OH2 8505   2.078   6.377   4.943  0.6267  0.3893  0.0555
 2855TIP3    H1 8506   2.019   6.427   5.000  1.5397  0.0057  1.3740
 2855TIP3    H2 8507   2.127   6.320   5.002  0.2274 -1.4773 -1.3244
 2856TIP3   OH2 8508   7.005   1.759   6.528  0.2261 -0.0748  0.1050
 2856TIP3    H1 8509   7.092   1.796   6.546  0.2686 -0.3681  0.5225
 2856TIP3    H2 8510   6.944   1.830   6.548  0.3293 -0.0983  0.5165
 2857TIP3   OH2 8511   6.507   6.861   5.717 -0.2054 -0.5558 -0.7346
 2857TIP3    H1 8512   6.548   6.812   5.646 -0.8095 -0.6535 -1.0269
 2857TIP3    H2 8513   6.460   6.932   5.673 -0.6378 -0.6558 -0.4418
 2858TIP3   OH2 8514   7.209   3.884   6.668 -0.1440  0.0470 -0.7129
 2858TIP3    H1 8515   7.206   3.869   6.762  0.4336  1.0746 -0.5226
 2858TIP3    H2 8516   7.299   3.862   6.642 -0.2578 -0.0942 -0.9999
 2859TIP3   OH2 8517   7.990   6.564   1.766 -0.6277  0.1650 -0.5522
 2859TIP3    H1 8518   7.967   6.564   1.859  0.0196  1.4967 -0.3809
 2859TIP3    H2 8519   7.918   6.516   1.724  0.9753 -4.1812  1.0445
 2860TIP3   OH2 8520   3.909   2.687   6.748  0.6846  0.1252 -0.5000
 2860TIP3    H1 8521   3.946   2.730   6.825  0.5493 -1.7230  0.6548
 2860TIP3    H2 8522   3.824   2.654   6.778  0.9521 -1.2717 -1.2000
 2861TIP3   OH2 8523   8.060   3.236   2.746  0.6868  0.8236 -0.2168
 2861TIP3    H1 8524   8.060   3.232   2.842 -0.7251  0.8369 -0.1895
 2861TIP3    H2 8525   7.977   3.195   2.721  2.0248 -1.2594 -1.5637
 2862TIP3   OH2 8526   4.393   3.944   6.483  0.3986  0.6832  0.2567
 2862TIP3    H1 8527   4.432   4.004   6.547 -2.1522  0.9187  1.7352
 2862TIP3    H2 8528   4.330   3.998   6.436 -0.1468 -0.2660 -0.1309
 2863TIP3   OH2 8529   7.573   5.058   3.383 -0.0734 -0.2096  0.5467
 2863TIP3    H1 8530   7.542   4.997   3.451 -0.4711  0.6808  1.1837
 2863TIP3    H2 8531   7.644   5.105   3.425  0.5768 -0.5746 -0.1202
 2864TIP3   OH2 8532   5.060   5.567   3.184 -0.3074 -0.3942 -0.1639
 2864TIP3    H1 8533   5.135   5.599   3.234 -0.1987  0.2584 -0.7364
 2864TIP3    H2 8534   4.999   5.641   3.184  0.2135  0.0808 -2.0481
 2865TIP3   OH2 8535   4.558   3.812   5.924 -0.5831  0.3630 -0.4663
 2865TIP3    H1 8536   4.501   3.755   5.976 -1.7760  1.5280 -0.4615
 2865TIP3    H2 8537   4.629   3.835   5.983 -0.8585  0.0482 -0.0081
 2866TIP3   OH2 8538   5.885   0.485   1.382 -0.1142 -0.5085  0.2797
 2866TIP3    H1 8539   5.864   0.417   1.447  1.3328 -0.4420  0.8465
 2866TIP3    H2 8540   5.977   0.471   1.361  0.1499  1.0974  0.2100
 2867TIP3   OH2 8541   0.976   0.227   1.175 -0.2231  0.0548  0.4113
 2867TIP3    H1 8542   0.961   0.242   1.082  0.0231 -1.8935  0.0173
 2867TIP3    H2 8543   1.062   0.185   1.180  0.3841  1.3375  1.6698
 2868TIP3   OH2 8544   0.830   0.094   0.609 -0.0874 -0.1835  0.5074
 2868TIP3    H1 8545   0.858   0.177   0.649 -0.8525  0.1308  0.3942
 2868TIP3    H2 8546   0.868   0.095   0.521  1.9994 -1.0833  1.3225
 2869TIP3   OH2 8547   2.726   7.659   1.505 -0.3933  0.2357 -0.0834
 2869TIP3    H1 8548   2.752   7.658   1.413  2.7323 -1.0291  0.6719
 2869TIP3    H2 8549   2.677   7.741   1.515 -1.0813  0.2896 -2.8653
 2870TIP3   OH2 8550   0.996   2.346   0.945  0.0449  0.1294  0.2468
 2870TIP3    H1 8551   1.083   2.386   0.955  1.3240 -2.2223 -0.7560
 2870TIP3    H2 8552   0.970   2.321   1.033  1.6532 -1.5667  0.2884
 2871TIP3   OH2 8553   0.072   4.958   5.473 -0.0958  0.8421 -0.6180
 2871TIP3    H1 8554   0.003   4.971   5.539 -0.4796  0.5359 -0.9513
 2871TIP3    H2 8555   0.153   4.983   5.517 -0.2268 -0.2325  0.2723
 2872TIP3   OH2 8556   6.275   5.497   6.811 -0.1095 -0.4968  0.1317
 2872TIP3    H1 8557   6.188   5.459   6.817 -0.0105 -0.5600  1.8705
 2872TIP3    H2 8558   6.278   5.561   6.883  0.9547  0.2025 -0.4951
 2873TIP3   OH2 8559   6.990   5.594   2.087  0.2438  0.1918  0.5800
 2873TIP3    H1 8560   6.924   5.597   2.018 -0.7157 -1.2063  1.3751
 2873TIP3    H2 8561   6.940   5.598   2.169  1.3652  2.0552  1.2489
 2874TIP3   OH2 8562   6.246   3.578   5.180  0.1275 -0.6122  0.0625
 2874TIP3    H1 8563   6.204   3.522   5.246  2.4507 -2.0227  0.4421
 2874TIP3    H2 8564   6.319   3.620   5.226 -0.9984  2.1566 -0.4562
 2875TIP3   OH2 8565   3.654   7.522   1.386  0.0956  0.4567  0.2890
 2875TIP3    H1 8566   3.674   7.492   1.475  0.2530 -0.5279 -0.0708
 2875TIP3    H2 8567   3.653   7.617   1.393  0.3700  0.3990  1.2892
 2876TIP3   OH2 8568   1.699   0.874   5.788 -0.1045  0.6685  0.0888
 2876TIP3    H1 8569   1.746   0.838   5.863 -2.0240  0.1144  1.0737
 2876TIP3    H2 8570   1.713   0.810   5.718  1.5763  1.1156 -0.0435
 2877TIP3   OH2 8571   7.453   4.819   2.065 -0.1657 -0.1412  0.1051
 2877TIP3    H1 8572   7.418   4.781   1.985  0.7986  0.6304 -0.7079
 2877TIP3    H2 8573   7.434   4.912   2.058  1.2533  0.1672  0.0385
 2878TIP3   OH2 8574   6.927   2.377   2.496 -0.1990  0.6854  0.2672
 2878TIP3    H1 8575   6.964   2.346   2.413  1.6181  0.8085  0.9884
 2878TIP3    H2 8576   6.892   2.464   2.476  0.1609  0.6879 -0.3776
 2879TIP3   OH2 8577   8.123   7.267   2.783  0.0052 -0.0063 -0.1867
 2879TIP3    H1 8578   8.158   7.323   2.853  2.0242  0.0746 -1.1896
 2879TIP3    H2 8579   8.048   7.317   2.748 -0.3760  0.4296  1.1986
 2880TIP3   OH2 8580   3.964   7.068   5.512  0.2789 -0.3462  0.3316
 2880TIP3    H1 8581   4.016   7.101   5.585 -0.1507 -0.0145  0.4887
 2880TIP3    H2 8582   3.950   7.144   5.456 -0.5271 -0.2989  0.5828
 2881TIP3   OH2 8583   2.149   2.388   2.439 -0.1059  0.1573  0.2863
 2881TIP3    H1 8584   2.089   2.435   2.497 -1.7089  0.6806 -1.6793
 2881TIP3    H2 8585   2.216   2.452   2.417 -0.1314  0.3030  0.6163
 2882TIP3   OH2 8586   7.073   2.811   4.546  0.3005 -0.0927  0.8891
 2882TIP3    H1 8587   7.146   2.852   4.500 -0.3741  0.0371 -0.0863
 2882TIP3    H2 8588   7.002   2.876   4.541 -1.9317 -2.4230 -3.6121
 2883TIP3   OH2 8589   6.433   1.125   3.906  0.5007 -0.3197  0.4614
 2883TIP3    H1 8590   6.407   1.115   3.997  2.1818  0.2266  1.0525
 2883TIP3    H2 8591   6.472   1.213   3.902  3.3227 -1.4855  0.0226
 2884TIP3   OH2 8592   7.042   3.504   3.619  0.1781 -0.1478  0.2641
 2884TIP3    H1 8593   6.951   3.492   3.646  0.6709  0.3938  2.3587
 2884TIP3    H2 8594   7.064   3.424   3.570 -1.0108 -0.9123  0.9446
 2885TIP3   OH2 8595   5.049   6.488   4.866 -0.8497  0.0198  0.4091
 2885TIP3    H1 8596   5.063   6.575   4.903 -0.8327  0.1263  0.1599
 2885TIP3    H2 8597   5.137   6.457   4.844 -0.6044 -1.0844  2.7376
 2886TIP3   OH2 8598   3.579   2.984   6.755 -0.0011  0.6564 -0.0235
 2886TIP3    H1 8599   3.534   2.916   6.804 -1.9172  0.4790 -1.8534
 2886TIP3    H2 8600   3.546   2.974   6.665  0.1141  3.5838 -0.4895
 2887TIP3   OH2 8601   0.543   5.838   0.209  0.2350  0.1284 -0.1419
 2887TIP3    H1 8602   0.634   5.868   0.209  0.5460 -0.7814 -0.8006
 2887TIP3    H2 8603   0.492   5.918   0.200  1.0614  0.4932 -2.2099
 2888TIP3   OH2 8604   6.097   1.873   4.222  0.5933  0.3019  0.1393
 2888TIP3    H1 8605   6.120   1.831   4.304  0.7447 -0.6759 -0.3865
 2888TIP3    H2 8606   6.063   1.959   4.247 -1.1055 -0.6741  1.3726
 2889TIP3   OH2 8607   1.826   3.001   0.891  0.1588 -0.0022  0.1636
 2889TIP3    H1 8608   1.874   2.931   0.936  0.8870  0.7162  0.5445
 2889TIP3    H2 8609   1.892   3.040   0.834 -0.3232  0.1809 -0.2610
 2890TIP3   OH2 8610   1.775   6.543   3.289  0.5234 -0.4267  0.2529
 2890TIP3    H1 8611   1.814   6.473   3.341  1.5644  0.7557  1.1262
 2890TIP3    H2 8612   1.704   6.577   3.344 -0.8303 -1.5766 -0.6996
 2891TIP3   OH2 8613   5.413   2.444   3.100  0.1934 -0.0603  0.8533
 2891TIP3    H1 8614   5.499   2.425   3.137  1.1173  1.6766 -0.2950
 2891TIP3    H2 8615   5.412   2.539   3.089 -2.1382  0.0407  1.4244
 2892TIP3   OH2 8616   0.516   4.865   3.681  0.0887  0.0680  0.1727
 2892TIP3    H1 8617   0.579   4.797   3.655  1.3163  1.5184 -0.7923
 2892TIP3    H2 8618   0.435   4.816   3.699  1.3210 -1.8033  0.9781
 2893TIP3   OH2 8619   3.941   3.933   3.469 -0.2832 -0.0909 -0.0602
 2893TIP3    H1 8620   3.972   4.023   3.483 -1.7126  0.3727  0.3967
 2893TIP3    H2 8621   3.956   3.916   3.376 -0.8247  0.9791 -0.3617
 2894TIP3   OH2 8622   7.409   0.581   2.489 -0.0506 -0.1050  0.0852
 2894TIP3    H1 8623   7.384   0.612   2.576  0.0453  0.4635 -0.0839
 2894TIP3    H2 8624   7.491   0.626   2.470 -0.1794 -0.0598 -0.3817
 2895TIP3   OH2 8625   2.861   3.400   0.099  0.3061  0.4985 -0.1367
 2895TIP3    H1 8626   2.804   3.325   0.117 -0.0013  0.5513 -0.8467
 2895TIP3    H2 8627   2.950   3.365   0.107  0.1679  0.2370  0.2664
 2896TIP3   OH2 8628   5.360   7.694   4.588 -0.0745 -0.0167 -0.3451
 2896TIP3    H1 8629   5.339   7.773   4.538 -0.2506  0.0216 -0.2130
 2896TIP3    H2 8630   5.452   7.704   4.613 -0.2382  0.3873  0.1114
 2897TIP3   OH2 8631   2.505   1.743   2.546 -0.5672 -0.4714 -0.0566
 2897TIP3    H1 8632   2.551   1.681   2.603 -1.4390 -1.5938 -0.5484
 2897TIP3    H2 8633   2.533   1.829   2.578 -1.5396 -1.0250  2.5461
 2898TIP3   OH2 8634   0.502   5.681   1.905  0.1178  0.3649 -0.2628
 2898TIP3    H1 8635   0.513   5.592   1.938 -0.0532  0.5846  0.4008
 2898TIP3    H2 8636   0.474   5.670   1.814 -2.4141 -0.3119  0.5164
 2899TIP3   OH2 8637   2.533   0.387   6.801  0.1505 -0.1815  0.4036
 2899TIP3    H1 8638   2.600   0.319   6.804  1.5472  1.0757 -0.6263
 2899TIP3    H2 8639   2.505   0.389   6.709 -0.1732  0.3361  0.5079
 2900TIP3   OH2 8640   6.701   7.812   3.528  0.2842  0.4542 -0.3196
 2900TIP3    H1 8641   6.635   7.855   3.473 -0.4062  0.3680  0.4209
 2900TIP3    H2 8642   6.759   7.883   3.555 -0.5573  0.8622  0.4844
 2901TIP3   OH2 8643   6.191   3.556   5.778  0.3160 -0.4275  0.0449
 2901TIP3    H1 8644   6.212   3.621   5.845 -1.2467  0.2227 -0.0565
 2901TIP3    H2 8645   6.275   3.514   5.758  1.2009  0.9349  0.7579
 2902TIP3   OH2 8646   5.434   3.205   6.666  0.5639  0.1485  0.2984
 2902TIP3    H1 8647   5.439   3.207   6.571 -2.9783  0.4101  0.0115
 2902TIP3    H2 8648   5.490   3.132   6.692  1.0927 -0.3250 -1.9795
 2903TIP3   OH2 8649   4.080   3.670   5.770 -0.0627  0.2055  0.3431
 2903TIP3    H1 8650   4.095   3.672   5.676  0.1753  0.8359  0.3899
 2903TIP3    H2 8651   4.145   3.730   5.806 -1.4910  1.6031  0.7042
 2904TIP3   OH2 8652   3.732   2.863   4.171 -0.0032  0.2481  0.0176
 2904TIP3    H1 8653   3.681   2.783   4.162 -2.0166  1.3189  1.1424
 2904TIP3    H2 8654   3.702   2.919   4.099  0.1437  0.5975  0.2218
 2905TIP3   OH2 8655   1.676   5.627   5.240  0.4045 -0.1092 -0.1807
 2905TIP3    H1 8656   1.601   5.623   5.299  1.1302  1.2018  0.8737
 2905TIP3    H2 8657   1.723   5.545   5.256  0.7175  0.3214  1.2837
 2906TIP3   OH2 8658   1.039   6.120   0.086 -0.4497  0.1856  0.4930
 2906TIP3    H1 8659   1.072   6.075   0.008 -2.3413 -1.2580  0.4682
 2906TIP3    H2 8660   1.076   6.071   0.160 -0.0321  0.5128  0.5069
 2907TIP3   OH2 8661   2.013   5.108   5.093  0.3986  0.0991  0.4648
 2907TIP3    H1 8662   2.107   5.101   5.072  0.4564  0.0509  0.7377
 2907TIP3    H2 8663   2.007   5.084   5.185  0.0302 -0.5717  0.2786
 2908TIP3   OH2 8664   1.651   3.383   1.088  0.6164  0.2132 -0.0957
 2908TIP3    H1 8665   1.694   3.423   1.013 -0.7515 -0.9153 -1.5535
 2908TIP3    H2 8666   1.567   3.428   1.095  1.7563  2.1725  2.5139
 2909TIP3   OH2 8667   8.397   5.737   0.129 -0.2946 -0.1278 -0.3246
 2909TIP3    H1 8668   8.391   5.651   0.170 -0.5738 -0.4207 -0.9549
 2909TIP3    H2 8669   8.309   5.774   0.138 -1.3378 -1.4917 -3.3461
 2910TIP3   OH2 8670   1.880   1.758   2.835  0.1933  0.4923  0.3908
 2910TIP3    H1 8671   1.805   1.698   2.836 -0.4189  1.2277 -0.4356
 2910TIP3    H2 8672   1.951   1.707   2.873 -0.2995 -0.7933 -0.3293
 2911TIP3   OH2 8673   4.267   3.787   0.179  0.0423  0.0928 -0.3641
 2911TIP3    H1 8674   4.256   3.692   0.172  0.1412  0.1180 -0.9965
 2911TIP3    H2 8675   4.303   3.801   0.267 -3.1416 -0.1323  1.0898
 2912TIP3   OH2 8676   8.036   6.132   0.111  0.3771 -0.0318  0.2481
 2912TIP3    H1 8677   8.057   6.141   0.018  0.9103  0.6890  0.4352
 2912TIP3    H2 8678   7.973   6.201   0.128 -0.1988 -0.5567  0.2899
 2913TIP3   OH2 8679   4.751   3.127   6.881 -0.4559 -0.2967  0.0543
 2913TIP3    H1 8680   4.739   3.080   6.799 -0.0838  0.2507 -0.3154
 2913TIP3    H2 8681   4.767   3.218   6.856  1.0231 -0.3611  0.6583
 2914TIP3   OH2 8682   1.083   7.326   3.085  0.2077  0.1588  0.4894
 2914TIP3    H1 8683   1.114   7.285   3.004 -0.2287  2.4602 -0.9299
 2914TIP3    H2 8684   1.113   7.416   3.079 -3.7650  1.6946  0.5709
 2915TIP3   OH2 8685   8.262   3.800   1.667 -0.4113 -0.5198 -0.1288
 2915TIP3    H1 8686   8.312   3.740   1.723 -1.2131 -0.3678  0.7863
 2915TIP3    H2 8687   8.179   3.755   1.652 -0.1902 -0.5712 -1.2435
 2916TIP3   OH2 8688   7.431   2.306   1.876  0.1030 -0.2308  0.4521
 2916TIP3    H1 8689   7.397   2.337   1.792  0.0932  0.8854  0.8515
 2916TIP3    H2 8690   7.424   2.382   1.935  0.9657 -0.7148  1.2152
 2917TIP3   OH2 8691   7.546   4.937   5.866  0.6799  0.3854 -0.1663
 2917TIP3    H1 8692   7.624   4.952   5.920  0.5780  3.6862 -0.7140
 2917TIP3    H2 8693   7.473   4.943   5.929  0.7400  0.0996 -0.0682
 2918TIP3   OH2 8694   6.275   6.382   0.973  0.5322  0.2398 -0.0613
 2918TIP3    H1 8695   6.257   6.336   1.055 -0.0808  0.9465  0.2068
 2918TIP3    H2 8696   6.191   6.421   0.948  1.2393  2.0655  0.2576
 2919TIP3   OH2 8697   6.830   6.530   0.830 -0.4223  0.1751  0.0443
 2919TIP3    H1 8698   6.909   6.567   0.867 -0.3191 -0.9760  1.0162
 2919TIP3    H2 8699   6.824   6.569   0.743  0.5377  1.2050  0.4196
 2920TIP3   OH2 8700   0.913   1.058   0.522  0.3935 -0.1082 -0.2118
 2920TIP3    H1 8701   0.991   1.024   0.477  0.5700  1.4763 -1.1993
 2920TIP3    H2 8702   0.939   1.065   0.613  0.9293 -0.9186 -0.2888
 2921TIP3   OH2 8703   2.450   3.807   3.264 -0.0449  0.3747 -0.2983
 2921TIP3    H1 8704   2.428   3.715   3.254  1.0754  0.2248 -1.7705
 2921TIP3    H2 8705   2.545   3.810   3.256 -0.0029  1.5912  0.4033
 2922TIP3   OH2 8706   3.532   1.524   3.861  0.9864 -0.5366 -0.5231
 2922TIP3    H1 8707   3.584   1.516   3.940 -0.7245 -2.4241  0.5124
 2922TIP3    H2 8708   3.563   1.453   3.804  0.6888 -0.6314 -0.5738
 2923TIP3   OH2 8709   0.817   2.553   0.466  0.4944 -0.6836 -0.2041
 2923TIP3    H1 8710   0.797   2.572   0.374  0.1677 -0.1369 -0.0224
 2923TIP3    H2 8711   0.731   2.548   0.508  0.6908  0.7933  0.4146
 2924TIP3   OH2 8712   5.577   3.967   1.147 -0.1788 -0.4478 -0.1796
 2924TIP3    H1 8713   5.487   3.972   1.180 -0.1840 -0.4626 -0.1919
 2924TIP3    H2 8714   5.566   3.956   1.052 -0.1678 -0.9035 -0.1267
 2925TIP3   OH2 8715   5.451   7.442   2.660 -0.4187  0.2320 -0.4475
 2925TIP3    H1 8716   5.392   7.368   2.676  0.0074 -0.0419 -0.1237
 2925TIP3    H2 8717   5.460   7.484   2.745  1.1344 -0.6940 -0.1106
 2926TIP3   OH2 8718   7.918   2.139   3.047  0.9977 -0.3196 -0.1362
 2926TIP3    H1 8719   7.954   2.226   3.035 -0.1415  0.1795 -0.0493
 2926TIP3    H2 8720   7.840   2.152   3.102  0.6467 -1.3392 -0.3632
 2927TIP3   OH2 8721   4.212   6.602   0.961  0.3169  0.1367  0.1484
 2927TIP3    H1 8722   4.171   6.684   0.988  0.3434  0.1927  0.0201
 2927TIP3    H2 8723   4.295   6.628   0.922  0.7662 -0.0249  0.9787
 2928TIP3   OH2 8724   4.869   7.668   0.775  0.1485  0.1986  0.5349
 2928TIP3    H1 8725   4.828   7.654   0.860 -0.4672 -0.1648  0.1870
 2928TIP3    H2 8726   4.950   7.715   0.795  0.0742  0.0067  1.3288
 2929TIP3   OH2 8727   1.882   4.703   4.823  0.7497 -0.4147  0.1380
 2929TIP3    H1 8728   1.857   4.747   4.742 -1.6625 -1.2522  0.3378
 2929TIP3    H2 8729   1.898   4.774   4.885  0.4009  0.2091 -0.4665
 2930TIP3   OH2 8730   8.284   6.059   0.179  0.3120  0.3002 -0.0410
 2930TIP3    H1 8731   8.287   6.001   0.255  0.7929  0.6314  0.2019
 2930TIP3    H2 8732   8.191   6.068   0.159  0.1984 -0.0288  0.3262
 2931TIP3   OH2 8733   7.714   6.092   1.399 -0.0696  0.1442 -0.5510
 2931TIP3    H1 8734   7.683   6.126   1.482 -0.9115 -0.6301 -0.5357
 2931TIP3    H2 8735   7.635   6.069   1.351  0.4198  0.2192 -1.4150
 2932TIP3   OH2 8736   1.929   2.970   4.428 -0.3137  0.3064  0.0090
 2932TIP3    H1 8737   1.952   2.942   4.516 -0.9975 -0.5182 -0.0606
 2932TIP3    H2 8738   1.977   2.910   4.370  0.7930  1.3647 -0.2130
 2933TIP3   OH2 8739   0.684   4.441   6.075 -0.1967  0.6540  0.3312
 2933TIP3    H1 8740   0.692   4.500   6.000  1.6858 -0.7336 -0.6204
 2933TIP3    H2 8741   0.681   4.353   6.037 -1.0213 -0.0003  1.8087
 2934TIP3   OH2 8742   3.767   0.958   2.408  0.0968 -0.5108 -0.8446
 2934TIP3    H1 8743   3.800   1.000   2.329  2.5082  1.6555  1.1287
 2934TIP3    H2 8744   3.736   1.030   2.463 -2.1034 -1.9890  0.0093
 2935TIP3   OH2 8745   0.509   0.591   6.664 -0.2289 -0.2604 -0.5945
 2935TIP3    H1 8746   0.445   0.557   6.726 -0.0313 -0.7419 -0.6484
 2935TIP3    H2 8747   0.462   0.657   6.613  0.1662  1.7372  1.4902
 2936TIP3   OH2 8748   3.584   1.501   4.959 -0.2973 -0.7713 -0.5777
 2936TIP3    H1 8749   3.574   1.412   4.993 -1.7303 -0.8690 -1.1970
 2936TIP3    H2 8750   3.521   1.553   5.007 -1.0286 -0.5445 -1.7448
 2937TIP3   OH2 8751   6.785   7.940   4.483 -0.2536  0.8778  0.8549
 2937TIP3    H1 8752   6.708   7.890   4.456 -0.4711  1.4334  0.4239
 2937TIP3    H2 8753   6.821   7.891   4.556 -0.8869  0.4875  0.9127
 2938TIP3   OH2 8754   0.766   5.373   2.882  0.1253 -0.2545 -0.0138
 2938TIP3    H1 8755   0.822   5.420   2.819  0.1741 -1.0038 -0.5417
 2938TIP3    H2 8756   0.787   5.281   2.868 -1.5841 -0.5874 -0.5557
 2939TIP3   OH2 8757   0.404   6.859   5.233 -0.7016  0.5137  0.4203
 2939TIP3    H1 8758   0.407   6.954   5.224 -2.8443  0.5997 -0.0915
 2939TIP3    H2 8759   0.493   6.830   5.213 -0.0650  2.3753  0.3357
 2940TIP3   OH2 8760   1.876   7.819   5.218 -0.2467  0.1166 -0.5396
 2940TIP3    H1 8761   1.926   7.752   5.172  0.7861  1.5955 -1.6886
 2940TIP3    H2 8762   1.932   7.897   5.215 -0.7729  0.6721  2.0176
 2941TIP3   OH2 8763   1.532   6.179   4.728  0.1816  0.0755  0.4286
 2941TIP3    H1 8764   1.598   6.205   4.664  0.3092 -1.8988 -0.3230
 2941TIP3    H2 8765   1.582   6.156   4.806  0.2445  0.0026  0.3665
 2942TIP3   OH2 8766   5.152   4.364   5.299  0.4602 -0.5186  0.3068
 2942TIP3    H1 8767   5.197   4.423   5.359  0.8867  0.8498 -1.3018
 2942TIP3    H2 8768   5.074   4.412   5.272  0.4651 -0.9593 -0.5298
 2943TIP3   OH2 8769   0.079   4.101   3.279  0.4373 -0.3824  0.4352
 2943TIP3    H1 8770   0.060   4.089   3.186  2.7322  0.3255 -0.1795
 2943TIP3    H2 8771   0.127   4.184   3.283 -1.6422  0.8455  2.5862
 2944TIP3   OH2 8772   5.791   4.672   6.064 -0.5551 -0.1377 -0.1419
 2944TIP3    H1 8773   5.787   4.578   6.081  0.3540 -0.4246 -1.3793
 2944TIP3    H2 8774   5.795   4.712   6.151 -1.7318 -1.1714  0.4310
 2945TIP3   OH2 8775   0.210   4.950   2.586 -0.2397 -0.2520  0.4473
 2945TIP3    H1 8776   0.268   4.957   2.662  0.6513 -0.1642 -0.2207
 2945TIP3    H2 8777   0.238   5.021   2.528 -1.7236  0.4555  0.5593
 2946TIP3   OH2 8778   5.861   4.967   2.270 -0.5690 -0.5281 -0.4348
 2946TIP3    H1 8779   5.947   4.927   2.283  0.3119  1.4635  0.1878
 2946TIP3    H2 8780   5.802   4.918   2.327  0.4107 -1.0665  0.1249
 2947TIP3   OH2 8781   7.132   7.498   5.615 -0.1235 -0.5923  0.8259
 2947TIP3    H1 8782   7.153   7.514   5.707  1.3171  0.6259  0.3115
 2947TIP3    H2 8783   7.194   7.552   5.566 -1.9362  0.0898 -0.8449
 2948TIP3   OH2 8784   3.337   7.407   2.377 -0.9676  0.2117  0.8095
 2948TIP3    H1 8785   3.333   7.479   2.440 -0.0700 -0.1539  1.2959
 2948TIP3    H2 8786   3.250   7.367   2.381 -0.9965  0.3405  1.6405
 2949TIP3   OH2 8787   6.261   0.453   1.941  0.2088  0.6218 -0.0408
 2949TIP3    H1 8788   6.269   0.506   1.861  0.8408  0.4922 -0.0711
 2949TIP3    H2 8789   6.350   0.449   1.975 -0.2996  2.1447  1.6309
 2950TIP3   OH2 8790   0.543   3.107   2.278  0.3330  0.0557  0.6769
 2950TIP3    H1 8791   0.484   3.067   2.214  1.4613  0.2384 -0.5278
 2950TIP3    H2 8792   0.534   3.201   2.264  0.5959  0.0980  0.7741
 2951TIP3   OH2 8793   6.465   6.226   1.621 -0.0251 -0.1599 -0.2973
 2951TIP3    H1 8794   6.414   6.270   1.689  0.8287  2.4534 -1.2274
 2951TIP3    H2 8795   6.549   6.206   1.662  0.5090  1.4646 -0.5227
 2952TIP3   OH2 8796   0.968   3.868   6.594 -1.1520 -0.1151 -0.1429
 2952TIP3    H1 8797   1.044   3.822   6.628 -0.2525  1.2351 -0.2446
 2952TIP3    H2 8798   0.962   3.841   6.502 -0.2419  0.4417 -0.3790
 2953TIP3   OH2 8799   6.290   5.847   2.495  0.1433  0.0162 -0.4917
 2953TIP3    H1 8800   6.332   5.838   2.410 -1.3450  0.7620 -1.3525
 2953TIP3    H2 8801   6.210   5.896   2.477 -0.5251 -0.3586  1.2456
 2954TIP3   OH2 8802   6.859   1.092   3.018 -0.8365 -0.2364  0.3455
 2954TIP3    H1 8803   6.819   1.073   3.103  0.0174  1.6222  1.2095
 2954TIP3    H2 8804   6.951   1.111   3.039 -0.5777  0.0935 -1.0188
 2955TIP3   OH2 8805   7.722   0.128   5.901 -0.1195  0.1026  0.0284
 2955TIP3    H1 8806   7.817   0.125   5.914 -0.1774 -1.0224  0.2924
 2955TIP3    H2 8807   7.686   0.147   5.988 -0.1448  0.5902 -0.0833
 2956TIP3   OH2 8808   0.987   1.170   1.776  0.5998 -0.3324 -0.1191
 2956TIP3    H1 8809   1.054   1.236   1.792  0.1198 -0.2938  2.1409
 2956TIP3    H2 8810   0.908   1.220   1.757  0.9780 -0.3616 -1.8842
 2957TIP3   OH2 8811   4.669   6.123   0.456 -0.1521  0.1728 -0.1073
 2957TIP3    H1 8812   4.614   6.159   0.387  0.4175  1.5397  0.1039
 2957TIP3    H2 8813   4.753   6.106   0.414  0.3093  1.3454  0.2905
 2958TIP3   OH2 8814   3.745   6.612   5.443 -0.8463 -0.1333  0.6071
 2958TIP3    H1 8815   3.804   6.678   5.481  0.0910 -1.8748  2.3585
 2958TIP3    H2 8816   3.772   6.605   5.352 -2.3368  3.3028 -0.2880
 2959TIP3   OH2 8817   3.302   0.797   0.313 -0.2228 -0.2957  0.2984
 2959TIP3    H1 8818   3.304   0.864   0.381  1.5058  0.4024 -0.3718
 2959TIP3    H2 8819   3.354   0.725   0.348 -1.2255 -0.8850  0.6068
 2960TIP3   OH2 8820   1.103   7.604   4.249 -0.0502 -0.0293 -0.2714
 2960TIP3    H1 8821   1.075   7.696   4.251  1.4351  0.4475  0.5091
 2960TIP3    H2 8822   1.029   7.555   4.285 -0.7242  0.9016 -0.3590
 2961TIP3   OH2 8823   0.973   7.877   1.710 -0.1873 -0.1943  0.7569
 2961TIP3    H1 8824   0.995   7.794   1.751 -2.1555 -0.6524  0.9833
 2961TIP3    H2 8825   1.038   7.939   1.745  1.0003 -1.5037  0.9587
 2962TIP3   OH2 8826   5.279   2.707   5.676  0.1840 -0.1804  0.6060
 2962TIP3    H1 8827   5.311   2.783   5.626 -2.4749 -0.1961 -1.3341
 2962TIP3    H2 8828   5.316   2.632   5.630  2.7755 -0.1863  2.4975
 2963TIP3   OH2 8829   6.437   5.801   2.251  0.2372  0.6528 -0.0533
 2963TIP3    H1 8830   6.480   5.719   2.277 -1.6304 -1.1453 -2.1678
 2963TIP3    H2 8831   6.499   5.844   2.192  0.5602 -0.1206 -0.2893
 2964TIP3   OH2 8832   4.253   5.753   6.768 -0.3130  0.6018 -1.0257
 2964TIP3    H1 8833   4.328   5.703   6.801 -0.3698  0.5253 -1.0104
 2964TIP3    H2 8834   4.197   5.687   6.728 -0.4367  0.6409 -0.9172
 2965TIP3   OH2 8835   1.609   2.128   3.787  0.0733  0.2262  0.1424
 2965TIP3    H1 8836   1.685   2.072   3.799  0.6884  1.3934  2.0692
 2965TIP3    H2 8837   1.537   2.079   3.825  0.4441  0.3690  1.0438
 2966TIP3   OH2 8838   6.872   5.299   4.744  0.0702  0.0350 -0.2238
 2966TIP3    H1 8839   6.945   5.282   4.684  0.5426 -0.0998  0.3714
 2966TIP3    H2 8840   6.795   5.308   4.687  0.0218 -2.6269 -0.7183
 2967TIP3   OH2 8841   0.494   0.557   1.347  0.2282  0.0194  0.4882
 2967TIP3    H1 8842   0.542   0.478   1.372  0.5776 -0.3204 -1.1090
 2967TIP3    H2 8843   0.550   0.629   1.378  1.0709 -0.3762 -0.0526
 2968TIP3   OH2 8844   0.197   2.514   0.312 -0.3632  0.1868  0.3926
 2968TIP3    H1 8845   0.197   2.507   0.408  0.6249 -0.0527  0.3945
 2968TIP3    H2 8846   0.275   2.464   0.285 -0.0905  1.0475 -0.4682
 2969TIP3   OH2 8847   0.348   0.680   4.092 -0.5336  0.0838  0.5352
 2969TIP3    H1 8848   0.296   0.611   4.133 -0.8131 -1.3810 -2.0974
 2969TIP3    H2 8849   0.435   0.641   4.081 -0.4337  0.4850 -0.1381
 2970TIP3   OH2 8850   3.081   6.122   2.960 -0.0993 -0.2462 -0.2086
 2970TIP3    H1 8851   3.055   6.085   3.045 -0.7306  0.6688  0.0098
 2970TIP3    H2 8852   3.021   6.195   2.947  1.1469  0.7231 -0.6184
 2971TIP3   OH2 8853   3.124   6.249   2.606 -0.3824  0.3385 -0.1390
 2971TIP3    H1 8854   3.152   6.330   2.649  0.2260  0.3769 -0.5858
 2971TIP3    H2 8855   3.156   6.258   2.516  2.1236 -1.5264  0.4400
 2972TIP3   OH2 8856   2.978   0.629   1.062 -0.0179  0.5459  0.1497
 2972TIP3    H1 8857   2.974   0.537   1.036  1.4663  0.3772  0.4504
 2972TIP3    H2 8858   2.897   0.666   1.028  0.3845 -0.3563 -1.9867
 2973TIP3   OH2 8859   5.440   7.036   0.985 -0.4221  0.3048  0.1815
 2973TIP3    H1 8860   5.443   7.089   0.905 -0.7968  0.8063  0.4956
 2973TIP3    H2 8861   5.421   6.947   0.954  0.5387  0.2729 -0.3776
 2974TIP3   OH2 8862   8.200   4.298   0.750  0.1959 -0.8814  0.3801
 2974TIP3    H1 8863   8.141   4.274   0.822 -0.8141  0.4860  0.0544
 2974TIP3    H2 8864   8.287   4.282   0.784 -0.0969  1.9015  2.8658
 2975TIP3   OH2 8865   0.371   4.098   2.433 -0.5371 -0.4111 -0.1771
 2975TIP3    H1 8866   0.349   4.014   2.472  0.3406 -1.1137 -1.1469
 2975TIP3    H2 8867   0.445   4.130   2.484  0.4465 -1.2103 -1.0641
 2976TIP3   OH2 8868   6.366   2.023   1.874 -0.4509 -0.2789  0.1469
 2976TIP3    H1 8869   6.437   2.087   1.878 -2.0031  1.5397 -0.0215
 2976TIP3    H2 8870   6.342   2.019   1.782 -0.9672 -0.4280  0.2830
 2977TIP3   OH2 8871   4.128   7.734   3.640  0.4386  0.3337  0.1098
 2977TIP3    H1 8872   4.195   7.796   3.670  1.6107 -1.3226  1.0599
 2977TIP3    H2 8873   4.160   7.648   3.669 -1.2949 -0.6936 -0.8772
 2978TIP3   OH2 8874   8.265   7.228   5.645  0.2279  0.6342 -0.6284
 2978TIP3    H1 8875   8.327   7.293   5.678  1.6374 -1.1391  0.3652
 2978TIP3    H2 8876   8.246   7.256   5.555  1.8828  1.6395 -0.7004
 2979TIP3   OH2 8877   1.682   5.866   4.762 -0.1726  0.5081  0.3432
 2979TIP3    H1 8878   1.721   5.780   4.781 -0.4637  0.0003 -1.1483
 2979TIP3    H2 8879   1.589   5.855   4.781 -0.2297  0.4457  0.0361
 2980TIP3   OH2 8880   5.210   1.675   1.768  0.2465 -0.5438  0.0681
 2980TIP3    H1 8881   5.192   1.670   1.862  0.3738 -0.8499  0.0782
 2980TIP3    H2 8882   5.296   1.634   1.758  0.8299  0.6640 -0.0136
 2981TIP3   OH2 8883   2.663   5.077   1.473 -0.2766  0.1719 -0.4954
 2981TIP3    H1 8884   2.569   5.085   1.458 -0.0724 -0.0034 -2.0356
 2981TIP3    H2 8885   2.702   5.094   1.387  1.1997  1.9860  0.4468
 2982TIP3   OH2 8886   0.769   4.353   0.006  0.0055  0.7295 -0.5839
 2982TIP3    H1 8887   0.692   4.317   0.050  0.7350 -0.4645 -0.2509
 2982TIP3    H2 8888   0.736   4.429  -0.042 -1.2912  0.4949 -0.0912
 2983TIP3   OH2 8889   5.048   6.258   6.398 -0.2866 -0.1572 -0.5247
 2983TIP3    H1 8890   5.028   6.182   6.453 -1.7818  0.8495  0.4193
 2983TIP3    H2 8891   5.095   6.223   6.323 -2.1474 -2.2454 -0.8180
 2984TIP3   OH2 8892   2.801   6.178   1.957  0.1843 -0.2218 -0.2139
 2984TIP3    H1 8893   2.838   6.137   1.879 -1.8226 -2.0104 -0.3276
 2984TIP3    H2 8894   2.853   6.143   2.029 -0.3508 -1.6369 -0.4721
 2985TIP3   OH2 8895   3.550   4.605   4.603  0.2101  0.3404  0.0432
 2985TIP3    H1 8896   3.495   4.683   4.592 -0.3656 -0.2224 -1.2642
 2985TIP3    H2 8897   3.520   4.567   4.685 -2.4640 -0.7481 -1.3183
 2986TIP3   OH2 8898   5.628   1.898   6.441  0.8297  0.4593 -0.1122
 2986TIP3    H1 8899   5.545   1.886   6.394  1.2376  0.1820 -0.7581
 2986TIP3    H2 8900   5.695   1.868   6.380  1.5313  2.0189 -0.1417
 2987TIP3   OH2 8901   3.915   7.471   3.875 -0.6350 -0.3417 -0.3105
 2987TIP3    H1 8902   3.983   7.527   3.913 -0.2383 -1.4232  0.6309
 2987TIP3    H2 8903   3.940   7.462   3.783 -0.6584  0.9364 -0.4579
 2988TIP3   OH2 8904   4.351   2.923   0.393 -0.0397  0.4067  0.6214
 2988TIP3    H1 8905   4.328   2.841   0.437  1.5872  0.2396  1.2366
 2988TIP3    H2 8906   4.412   2.896   0.324 -0.7668  0.9324 -0.2408
 2989TIP3   OH2 8907   5.565   7.097   1.238 -0.5317 -0.2958  0.2831
 2989TIP3    H1 8908   5.505   7.058   1.175 -1.0631 -1.4466  1.4489
 2989TIP3    H2 8909   5.581   7.027   1.302  0.3279  0.6864  1.1795
 2990TIP3   OH2 8910   7.212   3.152   0.430  0.0782 -0.3645 -0.6719
 2990TIP3    H1 8911   7.301   3.129   0.403  0.3546 -0.2364  0.0965
 2990TIP3    H2 8912   7.186   3.221   0.370 -0.5085 -2.1441 -2.5944
 2991TIP3   OH2 8913   7.119   6.065   5.391 -0.0233 -0.3650 -0.0595
 2991TIP3    H1 8914   7.151   6.116   5.316  1.1385  0.2372  0.8041
 2991TIP3    H2 8915   7.071   5.992   5.352  0.5465 -0.0595 -1.3907
 2992TIP3   OH2 8916   4.318   3.614   4.025  0.0524  0.0103  0.2228
 2992TIP3    H1 8917   4.306   3.619   3.930 -0.4705 -0.4242  0.2621
 2992TIP3    H2 8918   4.264   3.685   4.059 -1.4559 -1.1393  0.3173
 2993TIP3   OH2 8919   6.476   7.134   4.493 -0.2829 -0.4812 -0.0458
 2993TIP3    H1 8920   6.566   7.102   4.489  0.5030  1.6571 -0.6907
 2993TIP3    H2 8921   6.457   7.165   4.404 -0.1499  2.7674  0.9191
 2994TIP3   OH2 8922   0.591   2.827   5.899  0.5038 -0.1529  0.1144
 2994TIP3    H1 8923   0.548   2.856   5.819 -0.4722 -1.3323  0.1929
 2994TIP3    H2 8924   0.577   2.898   5.961 -1.4465 -0.5219  0.1621
 2995TIP3   OH2 8925   8.246   0.356   0.537 -0.1005 -0.4611 -0.2126
 2995TIP3    H1 8926   8.336   0.342   0.566  0.2943 -3.1498 -2.3277
 2995TIP3    H2 8927   8.230   0.449   0.554  3.1465  0.1940  0.0005
 2996TIP3   OH2 8928   6.515   3.350   4.249 -0.0968  0.0507 -0.2556
 2996TIP3    H1 8929   6.444   3.292   4.223  0.1397 -0.4800  0.2405
 2996TIP3    H2 8930   6.588   3.326   4.191 -0.7072  1.5426 -1.7035
 2997TIP3   OH2 8931   5.838   4.907   5.149  1.1500  0.1064  0.4964
 2997TIP3    H1 8932   5.838   4.832   5.208  3.1903 -0.6586 -0.4052
 2997TIP3    H2 8933   5.809   4.981   5.204  0.8830 -0.9735  1.8614
 2998TIP3   OH2 8934   7.639   2.690   2.765 -0.5116 -0.4855  0.1156
 2998TIP3    H1 8935   7.668   2.774   2.799 -0.6714 -0.0502 -0.8015
 2998TIP3    H2 8936   7.570   2.662   2.826 -0.1017 -0.2013  0.7145
 2999TIP3   OH2 8937   4.734   3.945   1.189 -0.8019 -0.6080 -0.0312
 2999TIP3    H1 8938   4.686   3.889   1.127 -0.2538 -0.4614 -0.6104
 2999TIP3    H2 8939   4.748   3.890   1.266 -0.7914 -1.0764 -0.3639
 3000TIP3   OH2 8940   6.301   5.451   5.383 -0.3135 -0.1915 -0.4237
 3000TIP3    H1 8941   6.246   5.514   5.336 -1.0674 -1.8594 -1.9159
 3000TIP3    H2 8942   6.368   5.425   5.320  0.1937 -0.6276  0.2777
 3001TIP3   OH2 8943   4.657   4.687   0.888  0.3439  0.0716 -0.0341
 3001TIP3    H1 8944   4.586   4.623   0.879 -0.2593  0.8562 -1.0584
 3001TIP3    H2 8945   4.732   4.636   0.920 -0.2027 -1.0851 -0.5524
 3002TIP3   OH2 8946   0.171   2.113   1.371  0.0639  0.3259  0.3590
 3002TIP3    H1 8947   0.213   2.060   1.303 -0.3861  1.4689 -0.8361
 3002TIP3    H2 8948   0.108   2.053   1.411  1.1455 -0.7077  0.6024
 3003TIP3   OH2 8949   1.154   1.782   1.579 -0.0337 -0.0355 -0.6822
 3003TIP3    H1 8950   1.240   1.791   1.539 -1.4233  1.1125 -3.6411
 3003TIP3    H2 8951   1.110   1.715   1.527 -1.0682 -0.4047  0.6045
 3004TIP3   OH2 8952   5.942   1.967   4.920 -0.5279 -0.2181  0.4045
 3004TIP3    H1 8953   5.865   1.911   4.912 -0.7886  0.2798 -0.8055
 3004TIP3    H2 8954   5.950   2.009   4.834  0.9397 -0.0608  0.5970
 3005TIP3   OH2 8955   2.585   2.378   6.542  0.2538  0.4244  0.3154
 3005TIP3    H1 8956   2.553   2.324   6.470  0.7181  0.9157 -0.2756
 3005TIP3    H2 8957   2.653   2.324   6.583  1.1128  0.7549 -0.6236
 3006TIP3   OH2 8958   0.774   3.157   6.496  0.1569 -0.0439 -0.0076
 3006TIP3    H1 8959   0.696   3.196   6.534  1.8078  0.6267  2.9916
 3006TIP3    H2 8960   0.774   3.186   6.405 -3.1479 -0.2859 -0.1945
 3007TIP3   OH2 8961   7.304   7.012   5.469  0.0993  0.0038 -0.1984
 3007TIP3    H1 8962   7.357   7.075   5.421 -0.2836  0.4774 -0.0030
 3007TIP3    H2 8963   7.255   7.064   5.533 -1.1024 -0.3362 -0.8050
 3008TIP3   OH2 8964   1.206   5.018   6.491  0.3348 -0.7601 -0.2067
 3008TIP3    H1 8965   1.233   5.075   6.563 -0.5027 -0.7855  0.1460
 3008TIP3    H2 8966   1.166   5.077   6.427  1.9383 -0.6110 -1.1129
 3009TIP3   OH2 8967   0.460   5.407   2.874  0.1967  0.1641  0.2411
 3009TIP3    H1 8968   0.393   5.352   2.832  0.0926  1.2769 -1.0988
 3009TIP3    H2 8969   0.543   5.366   2.851  0.0895  0.2281 -0.2736
 3010TIP3   OH2 8970   1.284   1.843   4.774  0.0063  1.2876  0.3648
 3010TIP3    H1 8971   1.252   1.753   4.771 -0.7012  1.5519 -0.3607
 3010TIP3    H2 8972   1.364   1.838   4.825  0.5559  0.0776 -0.5698
 3011TIP3   OH2 8973   6.269   2.812   3.895  0.0863  0.9407  0.7686
 3011TIP3    H1 8974   6.264   2.784   3.803 -0.5502  0.4962  0.9302
 3011TIP3    H2 8975   6.198   2.876   3.903 -1.3521 -0.6612  1.4915
 3012TIP3   OH2 8976   3.185   7.865   1.652  0.1804 -0.2138  0.2421
 3012TIP3    H1 8977   3.264   7.837   1.698 -0.1720 -2.5476 -0.4228
 3012TIP3    H2 8978   3.113   7.823   1.700 -0.2746 -1.7684 -1.6574
 3013TIP3   OH2 8979   4.757   4.608   4.480  0.1048 -0.0721  0.5404
 3013TIP3    H1 8980   4.773   4.695   4.516 -0.3318  0.3812 -0.3313
 3013TIP3    H2 8981   4.843   4.578   4.452 -0.2157  1.8508 -3.0191
 3014TIP3   OH2 8982   3.640   2.739   2.213 -0.5060 -0.0708 -0.1470
 3014TIP3    H1 8983   3.645   2.807   2.280 -1.3682 -1.7643  1.7403
 3014TIP3    H2 8984   3.558   2.694   2.230  0.9047 -2.8470 -0.0020
 3015TIP3   OH2 8985   6.684   5.306   2.144 -0.4178 -0.1196 -0.3303
 3015TIP3    H1 8986   6.603   5.266   2.110  0.4766 -1.5282 -0.8794
 3015TIP3    H2 8987   6.739   5.232   2.168  0.5726  0.8344  0.4166
 3016TIP3   OH2 8988   7.775   2.471   2.859 -0.2255  0.4838 -0.2959
 3016TIP3    H1 8989   7.695   2.426   2.832 -1.5946  0.9425  2.6403
 3016TIP3    H2 8990   7.767   2.558   2.821 -0.6803  0.2643 -0.7170
 3017TIP3   OH2 8991   6.887   7.678   0.836 -0.5067  0.3440 -0.0601
 3017TIP3    H1 8992   6.932   7.594   0.839  0.2856  0.7459 -0.4647
 3017TIP3    H2 8993   6.948   7.739   0.877 -0.9114  0.8036 -0.1367
 3018TIP3   OH2 8994   1.137   6.196   1.936  0.2273  0.1723  0.0064
 3018TIP3    H1 8995   1.132   6.134   1.863  2.3603  1.4423 -1.3123
 3018TIP3    H2 8996   1.157   6.141   2.012 -0.1003 -0.9708 -0.7060
 3019TIP3   OH2 8997   0.211   6.568   2.030  0.2414  0.4499 -0.4880
 3019TIP3    H1 8998   0.221   6.587   1.937  1.1716  0.5651 -0.3743
 3019TIP3    H2 8999   0.251   6.643   2.075 -1.4841  1.1067  0.0437
 3020TIP3   OH2 9000   4.440   4.915   2.663  0.0381  0.1924  0.1693
 3020TIP3    H1 9001   4.500   4.854   2.618  0.6521  1.7532 -1.2362
 3020TIP3    H2 9002   4.353   4.882   2.641  0.3095 -1.5945  1.4998
 3021TIP3   OH2 9003   0.841   5.640   6.134  0.1401  0.2986 -0.2119
 3021TIP3    H1 9004   0.770   5.704   6.123  1.1459  1.3499 -0.7336
 3021TIP3    H2 9005   0.867   5.618   6.044  1.3932  0.9692 -0.0225
 3022TIP3   OH2 9006   3.705   6.663   2.165  0.8925  0.0615 -0.1617
 3022TIP3    H1 9007   3.792   6.689   2.196  0.6218  1.2565 -0.3632
 3022TIP3    H2 9008   3.662   6.745   2.141 -0.1438 -0.5485 -0.4714
 3023TIP3   OH2 9009   0.985   1.601   5.027  0.1048  0.4415  0.0682
 3023TIP3    H1 9010   0.961   1.676   4.973 -0.3943  0.4339  0.2795
 3023TIP3    H2 9011   0.902   1.565   5.057  0.3757  1.0982  1.7313
 3024TIP3   OH2 9012   7.891   7.164   2.549  0.4885  0.4856 -0.1800
 3024TIP3    H1 9013   7.889   7.101   2.622  0.1944  0.3855 -0.2732
 3024TIP3    H2 9014   7.874   7.248   2.590 -1.2979  0.2322 -0.3351
 3025TIP3   OH2 9015   7.562   6.191   0.812  0.5631  0.4775  0.6932
 3025TIP3    H1 9016   7.543   6.282   0.791 -1.2727 -0.0279  0.0112
 3025TIP3    H2 9017   7.605   6.156   0.734 -0.4455  0.2838  0.2106
 3026TIP3   OH2 9018   6.795   4.332   0.747 -0.0164 -0.2413 -0.3785
 3026TIP3    H1 9019   6.825   4.261   0.690  0.6638 -0.9674  0.8602
 3026TIP3    H2 9020   6.699   4.327   0.740  0.0086 -1.3510 -0.2478
 3027TIP3   OH2 9021   0.620   5.941   1.691 -0.3514  0.2418  0.3476
 3027TIP3    H1 9022   0.601   5.983   1.775  1.0011  1.4405  0.0971
 3027TIP3    H2 9023   0.645   6.014   1.633 -0.4244 -0.6538 -0.8510
 3028TIP3   OH2 9024   0.980   5.207   0.462 -0.2959 -0.2061  0.8762
 3028TIP3    H1 9025   1.036   5.282   0.483 -1.4093  0.5388  1.3031
 3028TIP3    H2 9026   1.027   5.131   0.495  0.8048  0.3112  0.5440
 3029TIP3   OH2 9027   3.763   3.130   1.957  0.1982 -0.3868  0.3842
 3029TIP3    H1 9028   3.802   3.046   1.931 -0.3655 -0.1461 -1.3950
 3029TIP3    H2 9029   3.677   3.107   1.989  0.3351 -0.5627  0.6274
 3030TIP3   OH2 9030   1.687   7.231   4.984 -0.4329  0.2278 -0.2704
 3030TIP3    H1 9031   1.747   7.236   4.910 -1.1120  0.0173 -0.8419
 3030TIP3    H2 9032   1.739   7.263   5.059  0.4941 -0.2856 -0.6795
 3031TIP3   OH2 9033   7.608   6.622   1.374 -0.3357 -0.2461  0.3762
 3031TIP3    H1 9034   7.654   6.619   1.291 -0.8474  1.8928 -0.0507
 3031TIP3    H2 9035   7.572   6.711   1.378 -2.5920 -1.1471  1.6591
 3032TIP3   OH2 9036   4.942   3.589   1.525  0.6101 -0.1484 -0.2867
 3032TIP3    H1 9037   4.880   3.517   1.519  0.6869 -0.4496  1.7219
 3032TIP3    H2 9038   4.906   3.647   1.593  1.4651  0.7570 -0.5685
 3033TIP3   OH2 9039   7.847   0.695   4.127 -0.5123 -0.4865  0.0422
 3033TIP3    H1 9040   7.763   0.738   4.109 -0.1519  0.8603  1.3964
 3033TIP3    H2 9041   7.848   0.682   4.221  1.0318  0.0360  0.1294
 3034TIP3   OH2 9042   5.439   5.885   0.353 -0.1633  0.2397  0.4519
 3034TIP3    H1 9043   5.444   5.896   0.258  0.8964  0.4680  0.5243
 3034TIP3    H2 9044   5.514   5.830   0.375  0.0154  0.7788  1.2362
 3035TIP3   OH2 9045   5.608   4.957   4.533  0.1468  0.2754 -0.3208
 3035TIP3    H1 9046   5.601   4.971   4.439  0.6588 -0.0789 -0.4146
 3035TIP3    H2 9047   5.518   4.965   4.565 -0.1412 -0.3371 -0.9447
 3036TIP3   OH2 9048   7.623   5.113   6.290  0.1385 -0.4754 -0.0850
 3036TIP3    H1 9049   7.543   5.093   6.338  1.0045  0.6556  1.9738
 3036TIP3    H2 9050   7.593   5.158   6.211 -1.2627  0.2639  0.8231
 3037TIP3   OH2 9051   4.529   1.787   6.142 -0.1369  0.1326  0.6264
 3037TIP3    H1 9052   4.448   1.776   6.092  0.0841  1.3214 -0.0327
 3037TIP3    H2 9053   4.535   1.881   6.158  1.5016  0.1649 -0.0171
 3038TIP3   OH2 9054   4.945   6.881   1.458  0.4183 -0.0299  0.5979
 3038TIP3    H1 9055   4.997   6.921   1.528  1.9140 -1.2291  0.2315
 3038TIP3    H2 9056   4.978   6.921   1.378 -2.0232  2.1470  0.5320
 3039TIP3   OH2 9057   3.442   4.304   3.617 -0.4976  0.3010 -0.3437
 3039TIP3    H1 9058   3.475   4.235   3.675 -2.7006 -0.0540  0.5880
 3039TIP3    H2 9059   3.424   4.259   3.534 -0.0333  0.2162 -0.4055
 3040TIP3   OH2 9060   3.068   6.953   2.321  0.2690 -0.5555 -0.2731
 3040TIP3    H1 9061   3.158   6.985   2.310  0.0311  0.8178  1.3932
 3040TIP3    H2 9062   3.075   6.882   2.385  0.0839  0.2093  0.6222
 3041TIP3   OH2 9063   4.437   3.005   6.086 -0.4061  0.2717 -0.6494
 3041TIP3    H1 9064   4.480   3.028   6.169 -3.8042  0.4275  1.2805
 3041TIP3    H2 9065   4.414   3.089   6.047 -1.4035  0.2364 -0.1815
 3042TIP3   OH2 9066   5.956   7.072   1.503 -0.6186  0.0066 -0.1413
 3042TIP3    H1 9067   6.037   7.122   1.497  0.0020 -0.8659  0.5987
 3042TIP3    H2 9068   5.887   7.137   1.492  0.1720  0.8689 -0.1809
 3043TIP3   OH2 9069   1.771   5.658   2.240  0.8637  0.0715 -0.2310
 3043TIP3    H1 9070   1.837   5.612   2.292  0.5541 -0.9299 -0.7006
 3043TIP3    H2 9071   1.687   5.630   2.277  0.6762  0.5723 -0.2693
 3044TIP3   OH2 9072   0.984   4.644   3.517 -0.5472 -0.0938 -0.6046
 3044TIP3    H1 9073   1.062   4.663   3.467 -0.9221  2.0902 -0.4341
 3044TIP3    H2 9074   0.928   4.593   3.458 -0.9136  2.2805 -2.4116
 3045TIP3   OH2 9075   6.383   1.723   6.799 -0.7510  0.0595 -0.0583
 3045TIP3    H1 9076   6.380   1.635   6.837 -0.6362  0.6512  1.3888
 3045TIP3    H2 9077   6.292   1.741   6.775 -0.4053 -1.5201 -3.0829
 3046TIP3   OH2 9078   4.208   4.633   3.598  1.0066  0.4749 -0.5967
 3046TIP3    H1 9079   4.188   4.562   3.659 -1.5625  1.7969  0.2549
 3046TIP3    H2 9080   4.252   4.590   3.525  1.0228 -1.7166  0.6101
 3047TIP3   OH2 9081   8.260   7.487   0.366 -0.5216 -0.0351  0.3349
 3047TIP3    H1 9082   8.177   7.449   0.394 -1.3662  0.8257 -0.8855
 3047TIP3    H2 9083   8.250   7.498   0.271  1.4484 -1.0285 -0.0546
 3048TIP3   OH2 9084   1.149   2.403   6.452 -0.8792 -0.2180  0.3996
 3048TIP3    H1 9085   1.173   2.342   6.521 -1.3483 -2.3923 -1.2576
 3048TIP3    H2 9086   1.228   2.455   6.437 -0.3911 -0.5471  1.7061
 3049TIP3   OH2 9087   0.368   7.679   1.484  0.2935 -0.5048  0.2427
 3049TIP3    H1 9088   0.418   7.621   1.541  1.6788 -0.6124 -1.0359
 3049TIP3    H2 9089   0.415   7.763   1.487  0.7491 -0.6834 -1.1873
 3050TIP3   OH2 9090   3.941   3.352   6.763 -0.6196  0.3736 -0.2536
 3050TIP3    H1 9091   3.943   3.257   6.771  1.2208  0.3550 -0.5345
 3050TIP3    H2 9092   3.902   3.382   6.845  1.0787 -0.5518  0.9605
 3051TIP3   OH2 9093   4.175   1.001   6.067 -0.4002 -0.0651 -0.1322
 3051TIP3    H1 9094   4.080   0.994   6.060 -0.4249  1.2493 -2.5301
 3051TIP3    H2 9095   4.191   1.093   6.088  0.3084  0.2312 -1.7585
 3052TIP3   OH2 9096   1.591   3.914   2.240  0.2125  0.1878  0.1366
 3052TIP3    H1 9097   1.511   3.958   2.268 -0.3499  1.2075 -2.6592
 3052TIP3    H2 9098   1.659   3.981   2.249  0.2075  0.2124 -0.0001
 3053TIP3   OH2 9099   2.984   1.933   5.595 -0.2704 -0.1713 -0.5084
 3053TIP3    H1 9100   3.011   1.994   5.664 -0.1168  0.1469 -0.8492
 3053TIP3    H2 9101   2.897   1.905   5.622 -0.9622  1.3083 -1.0671
 3054TIP3   OH2 9102   2.980   1.334   2.438  0.1055 -0.1334 -0.1470
 3054TIP3    H1 9103   3.056   1.364   2.489  0.4494  0.7583 -1.1406
 3054TIP3    H2 9104   3.009   1.339   2.347 -0.9814 -0.2686 -0.5117
 3055TIP3   OH2 9105   1.687   5.938   6.837 -0.5449 -0.4800 -0.6556
 3055TIP3    H1 9106   1.759   5.914   6.778  0.1517  0.1921 -0.1078
 3055TIP3    H2 9107   1.718   5.913   6.924 -0.2991  1.2157 -0.2147
 3056TIP3   OH2 9108   4.933   6.802   5.664 -0.1352 -0.0210  0.7244
 3056TIP3    H1 9109   5.001   6.795   5.596 -0.6365 -0.1365  0.2229
 3056TIP3    H2 9110   4.981   6.801   5.746  0.5465  0.8785  0.3566
 3057TIP3   OH2 9111  -0.012   4.234   6.868  0.3360 -0.2493  0.3935
 3057TIP3    H1 9112   0.042   4.258   6.792  1.1600 -1.0090  0.7320
 3057TIP3    H2 9113   0.045   4.179   6.922  0.0531  0.9625  1.9957
 3058TIP3   OH2 9114   0.776   5.801   3.994 -0.4650 -0.0440 -0.2615
 3058TIP3    H1 9115   0.761   5.873   4.054  0.8717 -1.3281  1.7186
 3058TIP3    H2 9116   0.846   5.832   3.936 -0.1535  0.3799  0.3324
 3059TIP3   OH2 9117   7.209   0.271   0.239 -0.3212  0.0495  0.4006
 3059TIP3    H1 9118   7.143   0.341   0.247  0.6411  1.2863 -1.7447
 3059TIP3    H2 9119   7.168   0.206   0.182 -0.4602 -0.1756  0.7564
 3060TIP3   OH2 9120   4.687   4.525   4.781 -0.7199 -0.3652 -0.1578
 3060TIP3    H1 9121   4.714   4.560   4.696 -0.2985  0.5248  0.3181
 3060TIP3    H2 9122   4.651   4.601   4.827 -0.8649 -0.8192  0.4896
 3061TIP3   OH2 9123   6.879   4.509   4.583 -0.5821 -0.0427 -0.2240
 3061TIP3    H1 9124   6.786   4.490   4.574 -0.9043  1.8259 -1.3679
 3061TIP3    H2 9125   6.922   4.423   4.575 -2.1388 -0.8180 -0.6966
 3062TIP3   OH2 9126   2.312   4.572   3.735  0.4973 -0.1755 -0.4530
 3062TIP3    H1 9127   2.334   4.491   3.780 -0.0298 -0.0341  0.0706
 3062TIP3    H2 9128   2.261   4.544   3.659 -0.2384 -0.3071  0.0752
 3063TIP3   OH2 9129   4.130   7.009   4.035 -0.2285 -0.2363 -0.1560
 3063TIP3    H1 9130   4.035   7.001   4.045  0.0395 -1.7935  1.4732
 3063TIP3    H2 9131   4.150   7.096   4.070 -0.7624 -0.9772  2.1443
 3064TIP3   OH2 9132   6.665   1.889   6.373 -0.1122 -0.0341  0.3261
 3064TIP3    H1 9133   6.626   1.976   6.373 -1.9087 -0.7847 -1.2950
 3064TIP3    H2 9134   6.608   1.837   6.429  0.8002 -0.2724  1.0693
 3065TIP3   OH2 9135   7.457   0.208   4.163 -0.1704 -0.5031 -0.0536
 3065TIP3    H1 9136   7.374   0.186   4.204  0.1270  1.3018  1.6472
 3065TIP3    H2 9137   7.441   0.196   4.069 -2.8652  1.3320  0.0752
 3066TIP3   OH2 9138   4.062   3.441   6.168  0.5135 -0.4051 -0.0032
 3066TIP3    H1 9139   4.017   3.516   6.206  2.2480  0.7569 -0.1341
 3066TIP3    H2 9140   4.006   3.413   6.096 -0.9905 -0.3290  1.0831
 3067TIP3   OH2 9141   8.013   1.686   2.580  0.0073  0.0724  0.6468
 3067TIP3    H1 9142   8.031   1.667   2.672  0.3383  1.6066  0.9189
 3067TIP3    H2 9143   8.058   1.617   2.532  0.9180 -0.0059  1.5869
 3068TIP3   OH2 9144   4.001   1.356   3.100 -0.4084 -0.4993  0.1142
 3068TIP3    H1 9145   3.923   1.325   3.055  0.8438 -2.2228 -1.0198
 3068TIP3    H2 9146   3.988   1.330   3.191 -0.8783 -1.3571 -0.1881
 3069TIP3   OH2 9147   1.827   2.989   5.421 -0.2203 -0.3131  0.7101
 3069TIP3    H1 9148   1.755   3.050   5.437  0.2812 -0.1137  2.4736
 3069TIP3    H2 9149   1.829   2.978   5.326 -1.3737  1.1261  0.4827
 3070TIP3   OH2 9150   5.781   3.942   6.349  0.7400  0.0135  0.2667
 3070TIP3    H1 9151   5.711   4.007   6.357  0.2120 -0.6308  0.9755
 3070TIP3    H2 9152   5.801   3.917   6.439  0.1536 -1.6318 -0.0324
 3071TIP3   OH2 9153   8.034   5.747   1.000 -0.1791 -0.2353  0.3942
 3071TIP3    H1 9154   8.097   5.819   0.998 -0.2186 -0.1793  1.0450
 3071TIP3    H2 9155   8.088   5.669   1.012 -0.1439 -0.3112 -0.2225
 3072TIP3   OH2 9156   1.400   4.502   1.510 -0.8999 -0.5466  0.2008
 3072TIP3    H1 9157   1.467   4.487   1.576 -0.5088  1.0936  0.2098
 3072TIP3    H2 9158   1.317   4.484   1.555 -0.5334 -1.9534  0.3676
 3073TIP3   OH2 9159   1.603   5.721   0.012  0.1650  0.5314  0.5266
 3073TIP3    H1 9160   1.627   5.671   0.090 -0.3688 -0.8879 -0.1685
 3073TIP3    H2 9161   1.509   5.703   0.000  0.1679  0.9816 -0.2585
 3074TIP3   OH2 9162   5.977   3.865   1.447 -0.3902 -0.4770  0.1624
 3074TIP3    H1 9163   5.897   3.845   1.398 -0.2408  1.0448 -0.7783
 3074TIP3    H2 9164   5.964   3.954   1.479  1.2945  0.2075 -0.8921
 3075TIP3   OH2 9165   2.546   3.067   6.485 -0.1940 -0.2701 -0.3985
 3075TIP3    H1 9166   2.499   3.145   6.455  1.5116  0.4282 -1.4101
 3075TIP3    H2 9167   2.624   3.101   6.528 -0.8014 -1.3829  1.7256
 3076TIP3   OH2 9168   6.430   4.162   6.036 -0.4836  0.7195 -0.3321
 3076TIP3    H1 9169   6.470   4.203   5.959  0.7835  0.5847  0.2219
 3076TIP3    H2 9170   6.449   4.069   6.027  0.8696  0.8432  0.7616
 3077TIP3   OH2 9171   6.678   4.929   2.174  0.3305  0.7246  0.2806
 3077TIP3    H1 9172   6.701   4.953   2.084 -1.0794  0.2270 -0.2394
 3077TIP3    H2 9173   6.748   4.869   2.201 -0.3064 -0.7882 -1.2592
 3078TIP3   OH2 9174   5.262   4.037   3.908 -0.4858  0.3629  0.2004
 3078TIP3    H1 9175   5.354   4.017   3.891 -0.1003  1.5241  0.7684
 3078TIP3    H2 9176   5.247   4.005   3.997 -0.3918  0.8809  0.4081
 3079TIP3   OH2 9177   6.571   3.311   6.362 -0.0913 -0.1367 -0.1510
 3079TIP3    H1 9178   6.497   3.364   6.333 -1.8835 -1.9756  0.7988
 3079TIP3    H2 9179   6.592   3.254   6.288 -0.9770 -0.9648  0.2077
 3080TIP3   OH2 9180   1.426   4.068   2.915 -0.5433 -0.6509  0.6672
 3080TIP3    H1 9181   1.374   4.144   2.941 -0.5582 -0.3221 -0.2795
 3080TIP3    H2 9182   1.517   4.097   2.925 -0.5484 -0.4188  0.0771
 3081TIP3   OH2 9183   1.627   4.434   1.343  0.3682  0.5386  0.3509
 3081TIP3    H1 9184   1.664   4.379   1.412 -1.7267  0.5716  1.5798
 3081TIP3    H2 9185   1.540   4.457   1.375  0.6622  3.4989 -0.7247
 3082TIP3   OH2 9186   4.061   2.376   4.124  0.2182  0.3050 -0.2021
 3082TIP3    H1 9187   4.076   2.394   4.031  0.6818  0.2639 -0.1397
 3082TIP3    H2 9188   4.032   2.285   4.127  0.0205  0.3633 -0.3217
 3083TIP3   OH2 9189   3.236   5.688   2.049 -0.1664  0.1427  0.0617
 3083TIP3    H1 9190   3.226   5.712   1.957 -0.8025  0.6613  0.2532
 3083TIP3    H2 9191   3.150   5.652   2.073 -0.5103  1.4192  0.8431
 3084TIP3   OH2 9192   4.784   3.941   4.273 -0.3109  0.5058  0.8047
 3084TIP3    H1 9193   4.842   3.957   4.199  0.2039  0.1030  1.1136
 3084TIP3    H2 9194   4.794   4.018   4.328 -0.7735  0.8523  0.4072
 3085TIP3   OH2 9195   5.857   3.318   3.924  0.1593 -0.1090  0.3900
 3085TIP3    H1 9196   5.775   3.363   3.943 -0.0786 -0.6103  0.5773
 3085TIP3    H2 9197   5.910   3.383   3.878  0.4046  0.8510  1.9595
 3086TIP3   OH2 9198   5.079   2.210   3.937  0.0954  0.3895  0.3457
 3086TIP3    H1 9199   5.161   2.195   3.985  0.3115 -1.6381 -0.5477
 3086TIP3    H2 9200   5.097   2.287   3.883  1.3241  0.1597  0.3853
 3087TIP3   OH2 9201   7.837   2.311   2.561 -0.1912 -0.4180 -0.0872
 3087TIP3    H1 9202   7.821   2.396   2.602  0.0417 -0.4078 -0.0145
 3087TIP3    H2 9203   7.755   2.263   2.572 -0.7358  0.2310 -1.2083
 3088TIP3   OH2 9204   0.622   2.268   0.502 -0.3372  0.1520  0.4345
 3088TIP3    H1 9205   0.703   2.228   0.534 -1.0616 -0.5605  1.4195
 3088TIP3    H2 9206   0.616   2.237   0.411  0.4466  0.1411  0.3757
 3089TIP3   OH2 9207   4.060   3.537   1.811 -0.3198  0.1675  0.3125
 3089TIP3    H1 9208   4.030   3.465   1.754  0.4084 -1.5152  1.9342
 3089TIP3    H2 9209   4.123   3.585   1.757  0.3043 -1.3235 -0.3546
 3090TIP3   OH2 9210   5.770   6.434   0.436  0.2123  0.2479 -0.4017
 3090TIP3    H1 9211   5.800   6.343   0.438 -0.7701 -0.1038 -0.8693
 3090TIP3    H2 9212   5.785   6.466   0.525 -1.2395 -1.0033  0.3400
 3091TIP3   OH2 9213   2.816   7.512   5.765  0.1279  0.5722 -0.6540
 3091TIP3    H1 9214   2.736   7.463   5.781  0.7147 -0.5752 -1.1006
 3091TIP3    H2 9215   2.853   7.527   5.852 -0.6913  1.3520 -0.4255
 3092TIP3   OH2 9216   4.698   1.112   3.146 -0.1688  0.5729 -0.4140
 3092TIP3    H1 9217   4.727   1.079   3.231 -1.9362 -1.6370 -0.5674
 3092TIP3    H2 9218   4.775   1.105   3.090 -0.1321 -2.5794 -0.1529
 3093TIP3   OH2 9219   0.797   3.286   2.373  0.2552  0.0716  0.2406
 3093TIP3    H1 9220   0.725   3.236   2.411 -0.9683  0.9705 -0.7972
 3093TIP3    H2 9221   0.841   3.225   2.314 -0.1024 -0.2804  0.3389
 3094TIP3   OH2 9222   4.180   5.655   3.692 -0.4297 -0.1295 -0.1707
 3094TIP3    H1 9223   4.232   5.585   3.652 -1.2189 -0.4843 -0.6252
 3094TIP3    H2 9224   4.208   5.735   3.648  0.9576 -0.0412  0.8255
 3095TIP3   OH2 9225   6.040   0.077   3.877  0.5910 -0.1684 -0.3502
 3095TIP3    H1 9226   6.120   0.113   3.916 -0.4061  0.2916  1.4392
 3095TIP3    H2 9227   5.991   0.154   3.847  0.4784 -0.3758 -0.6984
 3096TIP3   OH2 9228   2.532   1.372   3.318  0.5197  0.6305  0.1796
 3096TIP3    H1 9229   2.543   1.297   3.376 -1.9748  0.1501  0.1499
 3096TIP3    H2 9230   2.538   1.336   3.230 -0.8263  0.4055  0.1646
 3097TIP3   OH2 9231   8.277   1.595   5.171 -0.1089 -0.4414 -0.4337
 3097TIP3    H1 9232   8.214   1.667   5.168 -0.5517 -0.7335  1.0598
 3097TIP3    H2 9233   8.271   1.555   5.084 -0.5886  0.6912 -0.9511
 3098TIP3   OH2 9234   2.148   1.234   0.178 -0.2284  0.6765  0.3992
 3098TIP3    H1 9235   2.183   1.158   0.132 -0.6660  0.9529 -0.4033
 3098TIP3    H2 9236   2.067   1.256   0.131 -1.0376  0.5663  1.6932
 3099TIP3   OH2 9237   7.227   2.367   0.991  0.1066  0.0878  0.3919
 3099TIP3    H1 9238   7.137   2.356   1.022 -0.7558  1.9417 -1.2348
 3099TIP3    H2 9239   7.280   2.371   1.071 -1.6016  1.5739  1.5030
 3100TIP3   OH2 9240   2.742   2.789   6.085 -0.5858 -0.4772 -0.2020
 3100TIP3    H1 9241   2.702   2.712   6.045  0.0836 -0.3319 -1.1859
 3100TIP3    H2 9242   2.805   2.753   6.149 -0.4309 -0.7476 -0.5019
 3101TIP3   OH2 9243   3.596   1.040   0.094 -0.4648 -0.0462  0.1318
 3101TIP3    H1 9244   3.612   0.965   0.037 -2.0614 -1.8422  1.8676
 3101TIP3    H2 9245   3.682   1.058   0.133  0.0030 -0.8374 -0.4879
 3102TIP3   OH2 9246   6.548   0.418   1.831 -0.3295 -0.2736  0.1491
 3102TIP3    H1 9247   6.586   0.442   1.915 -0.5053  2.0461 -0.3636
 3102TIP3    H2 9248   6.624   0.393   1.777 -0.1652 -1.2067  0.7842
 3103TIP3   OH2 9249   1.215   0.995   2.387  0.2396  0.0429  0.3571
 3103TIP3    H1 9250   1.236   0.928   2.322 -0.1675 -0.1991  0.4706
 3103TIP3    H2 9251   1.290   0.996   2.446  0.5834  0.2175 -0.0717
 3104TIP3   OH2 9252   3.229   7.117   6.340  0.4206 -0.5285 -0.0454
 3104TIP3    H1 9253   3.184   7.177   6.399  0.9068 -0.7896  0.6051
 3104TIP3    H2 9254   3.161   7.085   6.281 -0.2939 -1.0928  1.0619
 3105TIP3   OH2 9255   1.431   5.374   0.829  0.4937  0.4139 -0.5795
 3105TIP3    H1 9256   1.524   5.392   0.816  1.5536 -2.6404  1.6414
 3105TIP3    H2 9257   1.419   5.373   0.924 -1.4399 -0.7630 -0.7705
 3106TIP3   OH2 9258   7.842   5.461   5.287  0.1151  0.9338 -0.1908
 3106TIP3    H1 9259   7.896   5.500   5.218  0.9219  0.2717  0.0542
 3106TIP3    H2 9260   7.878   5.497   5.368 -0.2547  1.0123 -0.0573
 3107TIP3   OH2 9261   7.980   6.076   5.295 -0.3364  0.1960 -0.1022
 3107TIP3    H1 9262   7.951   6.011   5.232 -1.8465  0.3123  0.4368
 3107TIP3    H2 9263   7.909   6.141   5.298  0.0202  0.5590  1.1825
 3108TIP3   OH2 9264   1.454   2.324   4.203 -0.0708  0.2090  0.0570
 3108TIP3    H1 9265   1.461   2.343   4.110  1.7420  1.3696  0.3835
 3108TIP3    H2 9266   1.544   2.311   4.232 -0.3061  2.4945  2.1559
 3109TIP3   OH2 9267   3.058   1.065   2.092 -0.5051  0.1234 -1.0594
 3109TIP3    H1 9268   3.144   1.032   2.066  0.0181  0.4272  0.1828
 3109TIP3    H2 9269   3.075   1.155   2.119 -0.9708 -0.2032  0.3847
 3110TIP3   OH2 9270   6.552   7.753   4.103  0.1308  0.6501 -0.0563
 3110TIP3    H1 9271   6.489   7.777   4.036  1.1485 -2.7382 -2.5168
 3110TIP3    H2 9272   6.616   7.824   4.102 -1.7537  2.4363  0.0072
 3111TIP3   OH2 9273   1.605   1.337   2.691  0.3531  0.1796 -0.5933
 3111TIP3    H1 9274   1.510   1.331   2.684  0.3688  0.3508 -0.9587
 3111TIP3    H2 9275   1.638   1.266   2.635  0.4357 -0.1564 -0.1264
 3112TIP3   OH2 9276   4.924   1.116   0.508  0.4115 -0.2322  0.0110
 3112TIP3    H1 9277   4.955   1.177   0.575  0.6170 -1.9971  1.6136
 3112TIP3    H2 9278   4.830   1.112   0.520  0.3542  0.0408 -0.3381
 3113TIP3   OH2 9279   6.052   7.366   6.493  0.0947  0.4700 -0.1248
 3113TIP3    H1 9280   6.079   7.445   6.541 -1.3914 -0.0756  1.7544
 3113TIP3    H2 9281   6.030   7.398   6.406 -1.3692  2.3830  0.8478
 3114TIP3   OH2 9282   4.576   0.070   0.965 -0.3155  0.3613  0.2877
 3114TIP3    H1 9283   4.603   0.128   0.894  1.4476  2.0126  2.1568
 3114TIP3    H2 9284   4.487   0.098   0.986 -0.3708  0.7324 -0.4246
 3115TIP3   OH2 9285   1.044   5.615   4.984  0.0094 -0.1344 -0.1799
 3115TIP3    H1 9286   1.087   5.691   4.946  0.3492  0.7688  1.8650
 3115TIP3    H2 9287   0.950   5.636   4.978  0.1355  1.0423  1.4401
 3116TIP3   OH2 9288   5.545   2.057   3.630 -0.4874  0.0639 -0.3141
 3116TIP3    H1 9289   5.498   2.071   3.713 -2.8750  0.7538 -1.6734
 3116TIP3    H2 9290   5.549   2.144   3.590 -0.9348 -0.5039 -1.6545
 3117TIP3   OH2 9291   1.821   3.231   0.618  0.3548  0.0735  0.1807
 3117TIP3    H1 9292   1.860   3.319   0.619  1.6290 -0.4517 -0.6412
 3117TIP3    H2 9293   1.879   3.178   0.672 -0.1646 -0.3659  0.3158
 3118TIP3   OH2 9294   6.545   4.209   1.507 -0.2851 -0.1647 -0.0429
 3118TIP3    H1 9295   6.456   4.201   1.540 -0.3723  0.3391 -0.1451
 3118TIP3    H2 9296   6.536   4.196   1.412 -0.9018  3.7916 -0.7167
 3119TIP3   OH2 9297   5.249   4.804   1.505  0.2545 -0.0513  0.2966
 3119TIP3    H1 9298   5.309   4.846   1.567 -1.5839  2.1742  0.7124
 3119TIP3    H2 9299   5.221   4.875   1.448 -1.4822 -1.1521 -0.2886
 3120TIP3   OH2 9300   2.982   6.744   3.810  0.3656 -0.0910  0.5971
 3120TIP3    H1 9301   2.980   6.651   3.785 -1.8928 -0.1696  0.9103
 3120TIP3    H2 9302   3.047   6.748   3.880  0.8402 -1.3407  0.2661
 3121TIP3   OH2 9303   2.792   5.640   2.374  0.0133 -0.4215  0.0151
 3121TIP3    H1 9304   2.701   5.665   2.357  1.1711  2.2749 -3.4320
 3121TIP3    H2 9305   2.822   5.703   2.441  0.5037  1.9802 -2.3058
 3122TIP3   OH2 9306   6.844   2.838   0.929  0.0696  0.2513  0.2384
 3122TIP3    H1 9307   6.853   2.930   0.954  2.1829  0.2754 -0.3666
 3122TIP3    H2 9308   6.903   2.792   0.988 -0.8895 -0.7143  0.4563
 3123TIP3   OH2 9309   3.724   1.798   3.484 -0.5986  0.1647  0.2417
 3123TIP3    H1 9310   3.745   1.823   3.394 -2.3429 -2.2218 -0.9159
 3123TIP3    H2 9311   3.806   1.764   3.520 -0.3330 -0.6584 -1.1080
 3124TIP3   OH2 9312   2.110   1.552   1.257 -0.6130  0.1489  0.5520
 3124TIP3    H1 9313   2.026   1.509   1.249 -0.2440 -0.4241 -0.5255
 3124TIP3    H2 9314   2.156   1.531   1.175  0.9191 -0.3078  1.4757
 3125TIP3   OH2 9315   1.624   6.854   5.981 -0.0729 -0.4158  0.0489
 3125TIP3    H1 9316   1.576   6.909   5.920 -1.0936  0.5626  1.6482
 3125TIP3    H2 9317   1.561   6.835   6.051  1.6655  0.4224  1.9515
 3126TIP3   OH2 9318   7.265   7.940   5.818 -0.5986 -0.3153 -0.2266
 3126TIP3    H1 9319   7.302   7.852   5.820 -2.2462 -1.0576 -0.9543
 3126TIP3    H2 9320   7.183   7.933   5.866 -0.7286  0.8393 -0.2507
 3127TIP3   OH2 9321   7.289   2.830   0.760 -0.2705 -0.1681 -0.2210
 3127TIP3    H1 9322   7.225   2.870   0.702  2.1985 -0.2212 -3.2575
 3127TIP3    H2 9323   7.250   2.747   0.787 -1.9684  0.3939 -0.8576
 3128TIP3   OH2 9324   7.511   3.889   3.806 -0.0238  0.0941  0.3601
 3128TIP3    H1 9325   7.457   3.950   3.756 -0.2590 -1.2030 -1.0359
 3128TIP3    H2 9326   7.448   3.829   3.847  0.2819 -0.4027  0.1120
 3129TIP3   OH2 9327   2.698   7.712   6.058  0.1539  0.1766  0.2656
 3129TIP3    H1 9328   2.656   7.626   6.065  0.5116 -0.1662 -1.4408
 3129TIP3    H2 9329   2.726   7.731   6.148 -0.9756 -0.9315  0.8950
 3130TIP3   OH2 9330   5.255   0.760   2.778  0.1792  0.1214  0.3328
 3130TIP3    H1 9331   5.259   0.668   2.804 -1.8645 -0.5489 -1.3828
 3130TIP3    H2 9332   5.177   0.765   2.722 -0.2758  3.0992  1.0896
 3131TIP3   OH2 9333   1.364   5.664   4.953  0.3918 -0.0613 -0.6888
 3131TIP3    H1 9334   1.364   5.749   4.996  0.0953 -0.6445  0.4852
 3131TIP3    H2 9335   1.417   5.678   4.874  0.2553  1.2327 -0.5811
 3132TIP3   OH2 9336   0.171   0.333   5.501 -0.2602 -0.3134 -0.2271
 3132TIP3    H1 9337   0.217   0.364   5.422  0.8144  3.4489  1.6399
 3132TIP3    H2 9338   0.240   0.301   5.558 -0.7825 -1.0733 -0.0155
 3133TIP3   OH2 9339   8.435   6.847   5.344  0.1953 -0.2076  0.0972
 3133TIP3    H1 9340   8.353   6.820   5.302 -0.4083 -0.2162  1.2431
 3133TIP3    H2 9341   8.429   6.943   5.347  0.5437 -0.1661 -0.4252
 3134TIP3   OH2 9342   0.494   3.547   3.903  0.1274 -0.4822  0.9708
 3134TIP3    H1 9343   0.546   3.604   3.846 -0.3490 -1.0546 -0.0716
 3134TIP3    H2 9344   0.511   3.579   3.991  0.6447  0.6379  0.4852
 3135TIP3   OH2 9345   2.654   7.843   4.692 -0.1981  0.3371  0.1332
 3135TIP3    H1 9346   2.662   7.792   4.772  0.9090  0.7060  0.2813
 3135TIP3    H2 9347   2.609   7.786   4.631  0.2988 -0.5110  0.5472
 3136TIP3   OH2 9348   7.245   2.910   1.571  0.0407  0.2753 -0.0799
 3136TIP3    H1 9349   7.313   2.884   1.509 -0.2710  1.3247 -0.9051
 3136TIP3    H2 9350   7.259   2.855   1.648  2.6496  1.3706  0.3076
 3137TIP3   OH2 9351   1.723   0.077   3.470  0.5975 -0.7798 -0.2732
 3137TIP3    H1 9352   1.777  -0.001   3.477  0.9269 -0.5114  0.3003
 3137TIP3    H2 9353   1.780   0.148   3.500 -0.5040 -0.6901  1.8228
 3138TIP3   OH2 9354   6.602   5.676   1.610  0.3443  0.1275 -0.6881
 3138TIP3    H1 9355   6.578   5.718   1.693 -2.6880 -0.4454 -1.1444
 3138TIP3    H2 9356   6.625   5.586   1.634 -1.5469 -0.3437 -0.4998
 3139TIP3   OH2 9357   1.804   2.620   1.756  0.3663 -0.1050 -0.2475
 3139TIP3    H1 9358   1.741   2.673   1.708 -1.4227 -1.9562 -0.0793
 3139TIP3    H2 9359   1.766   2.610   1.843  1.3224 -0.5581  0.1342
 3140TIP3   OH2 9360   1.887   2.566   6.661  0.4002  0.4077 -0.1694
 3140TIP3    H1 9361   1.844   2.482   6.644 -0.4819  0.6433  0.8504
 3140TIP3    H2 9362   1.929   2.588   6.577  0.6286 -1.0294 -0.4637
 3141TIP3   OH2 9363   1.396   5.056   6.174 -0.1095 -0.1202 -0.3220
 3141TIP3    H1 9364   1.440   5.051   6.259 -0.0078 -2.1874 -0.4423
 3141TIP3    H2 9365   1.463   5.028   6.111 -0.7662 -0.5620 -0.8344
 3142TIP3   OH2 9366   3.174   4.947   3.328  0.3308  0.0575 -0.6505
 3142TIP3    H1 9367   3.136   5.034   3.316  0.4236  0.5397  2.0015
 3142TIP3    H2 9368   3.264   4.956   3.296  0.1787  0.7547 -0.9178
 3143TIP3   OH2 9369   2.562   7.032   2.157 -0.6447 -0.1082  0.0645
 3143TIP3    H1 9370   2.622   6.974   2.205  0.7579  1.2003 -0.0353
 3143TIP3    H2 9371   2.616   7.070   2.088 -2.7100 -2.2409 -2.9585
 3144TIP3   OH2 9372   3.093   4.181   6.322  0.1947 -0.0874  0.0843
 3144TIP3    H1 9373   3.122   4.132   6.245 -0.2337  0.8848 -0.7192
 3144TIP3    H2 9374   3.048   4.258   6.286 -3.1242 -1.3317  1.2156
 3145TIP3   OH2 9375   4.454   3.267   3.058  0.1169 -0.1375  0.6600
 3145TIP3    H1 9376   4.375   3.254   3.111  0.3993  2.6399  1.9228
 3145TIP3    H2 9377   4.523   3.221   3.106 -0.5747 -2.2009 -0.2176
 3146TIP3   OH2 9378   0.177   1.491   2.040  0.4077 -0.1838  0.0572
 3146TIP3    H1 9379   0.139   1.424   2.097  0.5758  0.5638  1.0790
 3146TIP3    H2 9380   0.200   1.444   1.960 -0.3938 -1.1437  0.3644
 3147TIP3   OH2 9381   6.954   3.653   5.887 -0.0830 -0.1629 -0.6651
 3147TIP3    H1 9382   6.986   3.591   5.822  0.4987  0.3448 -0.8731
 3147TIP3    H2 9383   7.017   3.647   5.959  0.6334  1.0207 -1.1815
 3148TIP3   OH2 9384   8.306   6.521   6.782  0.5213  0.5283 -0.3366
 3148TIP3    H1 9385   8.243   6.532   6.853  2.1016  1.7431  0.9534
 3148TIP3    H2 9386   8.295   6.430   6.754 -0.7103  0.2623  0.8873
 3149TIP3   OH2 9387   5.792   2.626   3.533 -0.2619 -0.4779  0.0508
 3149TIP3    H1 9388   5.753   2.572   3.602  1.2868 -0.4016  1.0325
 3149TIP3    H2 9389   5.790   2.715   3.567 -0.9062 -0.2122 -0.6727
 3150TIP3   OH2 9390   4.202   6.468   4.937  0.2868 -0.3765 -0.1009
 3150TIP3    H1 9391   4.264   6.519   4.885 -0.2206 -1.4744 -1.9113
 3150TIP3    H2 9392   4.204   6.507   5.024  3.1549 -0.0794 -0.2208
 3151TIP3   OH2 9393   1.680   1.483   0.428  0.2319 -0.6652 -0.2384
 3151TIP3    H1 9394   1.605   1.423   0.424 -0.5453  0.3481 -1.8007
 3151TIP3    H2 9395   1.653   1.559   0.377  1.5870  0.6064  0.8470
 3152TIP3   OH2 9396   2.220   4.305   6.473 -0.1657 -0.5634 -0.4535
 3152TIP3    H1 9397   2.310   4.306   6.505 -0.6299 -0.2317  0.9315
 3152TIP3    H2 9398   2.203   4.213   6.452  0.6037 -0.5668 -1.0539
 3153TIP3   OH2 9399   6.992   1.402   1.417 -0.4365 -0.3744  0.4604
 3153TIP3    H1 9400   6.906   1.377   1.381 -0.0469 -1.1113  0.0257
 3153TIP3    H2 9401   6.979   1.402   1.512 -1.1005  0.2048  0.3774
 3154TIP3   OH2 9402   7.147   6.051   2.457 -0.2201  0.0412  0.7481
 3154TIP3    H1 9403   7.202   5.976   2.432  0.1406  0.1580  1.1810
 3154TIP3    H2 9404   7.166   6.118   2.391 -0.2519 -0.1118  0.5837
 3155TIP3   OH2 9405   3.924   6.483   4.905  0.1142 -0.2355  0.3140
 3155TIP3    H1 9406   4.019   6.469   4.894  0.3906  1.6871 -0.0101
 3155TIP3    H2 9407   3.884   6.411   4.856  1.4027 -0.3710 -0.5986
 3156TIP3   OH2 9408   5.403   2.236   1.149 -0.5471  0.2585  0.5189
 3156TIP3    H1 9409   5.434   2.164   1.204 -1.2463  0.1061  0.7198
 3156TIP3    H2 9410   5.342   2.195   1.088 -1.2990  0.7352  0.9295
 3157TIP3   OH2 9411   7.494   6.042   6.660  0.5044 -0.4491 -0.1189
 3157TIP3    H1 9412   7.451   5.957   6.652 -0.8803  0.1593  0.5345
 3157TIP3    H2 9413   7.431   6.104   6.625  0.3543  0.5956  1.9089
 3158TIP3   OH2 9414   1.839   5.473   1.068 -0.0325  0.7882  0.3821
 3158TIP3    H1 9415   1.822   5.563   1.040 -0.9439 -0.0314 -1.9378
 3158TIP3    H2 9416   1.765   5.422   1.033 -0.4412 -0.6586  3.0643
 3159TIP3   OH2 9417   2.981   5.228   2.665  0.0699 -0.0780 -0.3478
 3159TIP3    H1 9418   2.991   5.148   2.717 -1.8739 -0.9823 -1.2559
 3159TIP3    H2 9419   3.001   5.299   2.726  1.3753 -1.2177  0.6103
 3160TIP3   OH2 9420   3.612   6.975   2.536  0.0795  0.2781  0.3202
 3160TIP3    H1 9421   3.578   7.057   2.570 -0.9188 -0.5836  1.4738
 3160TIP3    H2 9422   3.534   6.923   2.515  0.6586 -1.0907  1.3917
 3161TIP3   OH2 9423   5.348   0.112   6.250  0.1218  0.4941  0.3995
 3161TIP3    H1 9424   5.289   0.174   6.293 -0.0790  0.4361  0.2083
 3161TIP3    H2 9425   5.428   0.115   6.303 -0.1865  0.2846  0.8913
 3162TIP3   OH2 9426   3.845   2.330   3.296  0.5130 -0.0206  0.2022
 3162TIP3    H1 9427   3.828   2.271   3.223  0.2666  0.5071 -0.1709
 3162TIP3    H2 9428   3.849   2.417   3.257 -0.1958  0.3373  0.8869
 3163TIP3   OH2 9429   0.308   1.691   6.343 -0.0501  0.9047  0.0521
 3163TIP3    H1 9430   0.263   1.661   6.264  0.0861 -0.6566  0.5215
 3163TIP3    H2 9431   0.265   1.773   6.367 -1.1229  0.5914 -0.7677
 3164TIP3   OH2 9432   3.516   5.627   4.688 -0.9501 -0.1543 -0.0060
 3164TIP3    H1 9433   3.440   5.672   4.651 -0.1078 -0.5510 -2.4378
 3164TIP3    H2 9434   3.584   5.695   4.693 -0.1300 -0.7001 -2.2796
 3165TIP3   OH2 9435   6.041   4.813   5.679 -0.0410 -0.2745  0.4610
 3165TIP3    H1 9436   6.090   4.758   5.617  1.7159 -1.2829  2.6168
 3165TIP3    H2 9437   6.104   4.835   5.747 -1.4177  2.3109  1.0250
 3166TIP3   OH2 9438   7.796   5.413   2.965 -0.0546  0.1485 -0.3398
 3166TIP3    H1 9439   7.761   5.324   2.978 -2.1758  0.7698 -1.2620
 3166TIP3    H2 9440   7.808   5.447   3.053  0.1131 -0.7984  0.0228
 3167TIP3   OH2 9441   2.505   3.911   1.500  0.1410 -0.4103 -0.0089
 3167TIP3    H1 9442   2.566   3.856   1.450  0.4864 -1.4315  1.4668
 3167TIP3    H2 9443   2.456   3.849   1.554  0.0429  0.6716  1.1825
 3168TIP3   OH2 9444   2.315   6.930   2.176  0.1252  0.0674  0.1930
 3168TIP3    H1 9445   2.408   6.943   2.159  0.0058 -0.7503 -1.2627
 3168TIP3    H2 9446   2.271   6.998   2.124 -0.1113  0.7651  1.2494
 3169TIP3   OH2 9447   3.156   3.827   3.051  0.5805 -0.0529 -0.4123
 3169TIP3    H1 9448   3.185   3.744   3.087  1.8629 -0.1849 -1.6622
 3169TIP3    H2 9449   3.236   3.879   3.042  0.1302  0.4687 -1.7282
 3170TIP3   OH2 9450   5.856   4.617   4.375  0.5947  0.3499 -1.0116
 3170TIP3    H1 9451   5.797   4.613   4.450  1.5431 -3.2473 -0.2862
 3170TIP3    H2 9452   5.930   4.670   4.406  0.1490  0.4291 -0.0485
 3171TIP3   OH2 9453   4.617   4.921   4.324  0.4288  0.2418 -0.0338
 3171TIP3    H1 9454   4.700   4.886   4.357  0.2872  0.5988  0.7325
 3171TIP3    H2 9455   4.590   4.984   4.391 -2.8103 -3.1369  2.1821
 3172TIP3   OH2 9456   1.083   3.321   4.576 -0.3152 -0.0035 -0.3890
 3172TIP3    H1 9457   1.130   3.300   4.495 -0.2295 -0.3835 -0.2460
 3172TIP3    H2 9458   1.089   3.241   4.628 -2.7300 -0.7312 -1.1277
 3173TIP3   OH2 9459   5.376   5.443   2.774  0.1727 -0.0170 -0.8120
 3173TIP3    H1 9460   5.440   5.395   2.825  0.0003 -0.2945 -0.8546
 3173TIP3    H2 9461   5.295   5.436   2.824  0.1288  0.1721 -0.8535
 3174TIP3   OH2 9462   7.986   0.648   2.682  0.9579 -0.3763  0.4766
 3174TIP3    H1 9463   7.955   0.592   2.753 -0.2900 -2.3565 -1.4920
 3174TIP3    H2 9464   8.073   0.614   2.661  0.1359 -1.8324 -0.8276
 3175TIP3   OH2 9465   0.580   2.543   0.145  0.2599  0.6208  0.0927
 3175TIP3    H1 9466   0.673   2.562   0.154  0.2956  0.5449 -0.1025
 3175TIP3    H2 9467   0.536   2.622   0.176  0.3809  0.5048  0.5642
 3176TIP3   OH2 9468   0.089   1.377   0.426 -0.1256 -0.5152  0.3032
 3176TIP3    H1 9469   0.170   1.329   0.407 -0.3164 -0.4856 -0.6216
 3176TIP3    H2 9470   0.107   1.466   0.395 -0.6063 -0.5797 -0.1745
 3177TIP3   OH2 9471   1.683   7.623   2.825  0.7375 -0.3796  0.1290
 3177TIP3    H1 9472   1.667   7.557   2.892 -0.8791 -0.3181 -0.1569
 3177TIP3    H2 9473   1.598   7.668   2.815  1.5660  1.1691 -0.2817
 3178TIP3   OH2 9474   5.989   0.932   5.883  0.1682  0.4573 -0.2874
 3178TIP3    H1 9475   5.956   1.018   5.859  3.0283  2.0764  1.1078
 3178TIP3    H2 9476   6.006   0.888   5.799 -2.0353  0.8625 -1.0062
 3179TIP3   OH2 9477   1.879   4.938   6.042  0.6383  0.3478  0.1537
 3179TIP3    H1 9478   1.875   5.033   6.044 -0.7178  0.3249  2.7450
 3179TIP3    H2 9479   1.922   4.914   6.125 -0.2272 -1.2997  0.1700
 3180TIP3   OH2 9480   1.347   6.789   1.819 -0.8606  0.4611 -0.0031
 3180TIP3    H1 9481   1.262   6.772   1.860  0.4615 -0.9830  2.3559
 3180TIP3    H2 9482   1.340   6.878   1.785 -3.2006  0.4848  0.3916
 3181TIP3   OH2 9483   0.155   1.005   6.734  0.1305 -0.1953 -0.1121
 3181TIP3    H1 9484   0.207   1.053   6.799 -0.7912 -2.4203  2.4823
 3181TIP3    H2 9485   0.065   1.033   6.750 -0.0821 -0.5401 -0.6845
 3182TIP3   OH2 9486   0.378   3.090   3.145  0.0003  0.2689 -0.4993
 3182TIP3    H1 9487   0.311   3.026   3.121 -1.2205  1.2914  0.0707
 3182TIP3    H2 9488   0.366   3.102   3.239  1.1881  0.2693 -0.3369
 3183TIP3   OH2 9489   8.137   6.562   2.544 -0.6150  0.2012 -0.3781
 3183TIP3    H1 9490   8.145   6.631   2.610  1.0389 -0.7731  0.5001
 3183TIP3    H2 9491   8.070   6.503   2.579 -0.5818  0.3035 -0.1402
 3184TIP3   OH2 9492   1.071   3.381   1.075 -0.1154  0.1921 -0.5645
 3184TIP3    H1 9493   1.040   3.305   1.125 -2.0485  1.5462  0.4509
 3184TIP3    H2 9494   1.144   3.347   1.023 -1.2725 -2.4986 -0.6299
 3185TIP3   OH2 9495   2.110   3.174   2.282  0.2395  0.5944 -0.4982
 3185TIP3    H1 9496   2.136   3.263   2.256 -0.3053  0.7459 -0.5254
 3185TIP3    H2 9497   2.015   3.177   2.288  0.1792 -0.1097 -0.9541
 3186TIP3   OH2 9498   1.451   0.626   0.953 -0.0827  0.6094 -0.5354
 3186TIP3    H1 9499   1.513   0.578   1.007 -0.6288  0.6632  0.1439
 3186TIP3    H2 9500   1.497   0.639   0.870  0.2093 -0.7519 -0.6011
 3187TIP3   OH2 9501   5.813   4.947   6.447 -0.5594 -0.1017 -0.3046
 3187TIP3    H1 9502   5.803   5.028   6.397  0.7754 -0.3351 -0.9928
 3187TIP3    H2 9503   5.763   4.882   6.397  1.4581 -0.5297 -1.8888
 3188TIP3   OH2 9504   5.411   6.634   2.701  0.5938  0.4652 -0.4856
 3188TIP3    H1 9505   5.416   6.704   2.765  1.5956 -0.5002  0.5382
 3188TIP3    H2 9506   5.502   6.616   2.676  0.2998  0.0764 -1.3365
 3189TIP3   OH2 9507   3.787   2.476   2.332 -0.2575 -0.4930 -0.3451
 3189TIP3    H1 9508   3.730   2.534   2.382  1.4110  1.0213 -0.0782
 3189TIP3    H2 9509   3.833   2.424   2.398 -0.0469 -0.4601 -0.4659
 3190TIP3   OH2 9510   2.562   4.653   3.058 -0.3827  0.4486  0.3209
 3190TIP3    H1 9511   2.479   4.696   3.078 -2.2207 -2.3260 -0.6523
 3190TIP3    H2 9512   2.553   4.626   2.967  0.9508 -1.2296  0.6348
 3191TIP3   OH2 9513   1.469   5.609   5.482 -0.3022  0.2540 -0.1210
 3191TIP3    H1 9514   1.518   5.662   5.545  0.9841  0.2915 -1.1111
 3191TIP3    H2 9515   1.408   5.671   5.442  0.5191  0.7953 -0.5809
 3192TIP3   OH2 9516   0.364   2.174   3.657  0.4670  0.0642 -0.2773
 3192TIP3    H1 9517   0.374   2.263   3.691  2.8031 -0.4613  0.5960
 3192TIP3    H2 9518   0.272   2.152   3.676  0.1295  1.8777  0.4589
 3193TIP3   OH2 9519   1.956   1.710   5.744 -0.0701 -0.2517  0.0606
 3193TIP3    H1 9520   1.868   1.673   5.736 -0.7386  1.1226  0.9282
 3193TIP3    H2 9521   2.003   1.673   5.669 -2.0810  0.9323 -1.9296
 3194TIP3   OH2 9522   7.691   1.733   2.717 -0.6197  0.3266 -0.7118
 3194TIP3    H1 9523   7.763   1.784   2.680  3.5932 -2.8415  2.1145
 3194TIP3    H2 9524   7.689   1.652   2.666  1.1860 -1.5220  1.8620
 3195TIP3   OH2 9525  -0.010   6.168   3.762 -0.0413 -0.0629 -0.6228
 3195TIP3    H1 9526   0.071   6.210   3.792  0.1965 -1.6422  1.0976
 3195TIP3    H2 9527  -0.034   6.109   3.833 -1.7035 -1.0065 -1.9096
 3196TIP3   OH2 9528   5.893   3.645   6.443  0.2093 -0.4014  0.0413
 3196TIP3    H1 9529   5.961   3.686   6.388 -1.9390  1.4173 -1.4494
 3196TIP3    H2 9530   5.841   3.593   6.382 -1.6450  0.8509  0.4806
 3197TIP3   OH2 9531   3.767   0.816   1.054  0.0291 -0.8920 -0.2613
 3197TIP3    H1 9532   3.838   0.768   1.095  0.3186 -0.6379 -0.4656
 3197TIP3    H2 9533   3.809   0.869   0.986 -0.3027 -0.4355 -0.1149
 3198TIP3   OH2 9534   8.336   7.711   0.507  0.4259  0.5452  0.5136
 3198TIP3    H1 9535   8.425   7.675   0.514  1.7330  2.8304 -2.0697
 3198TIP3    H2 9536   8.291   7.652   0.446  0.8731  0.4969  0.2238
 3199TIP3   OH2 9537   5.976   0.189   0.802 -0.2858  0.6528 -0.3063
 3199TIP3    H1 9538   6.015   0.162   0.885  0.1258  1.4713 -0.2192
 3199TIP3    H2 9539   6.050   0.196   0.742 -0.7648 -1.6839 -1.2819
 3200TIP3   OH2 9540   1.893   2.249   4.781 -0.2475 -0.0807  0.5140
 3200TIP3    H1 9541   1.974   2.293   4.806  1.1267 -0.9296 -2.0934
 3200TIP3    H2 9542   1.832   2.319   4.761  1.9353  0.9363 -3.7264
 3201TIP3   OH2 9543   2.563   6.556   1.733 -0.8766  0.4659  0.0732
 3201TIP3    H1 9544   2.609   6.514   1.805 -0.0386 -1.9123 -1.7023
 3201TIP3    H2 9545   2.611   6.637   1.718  1.5456 -0.9495 -0.3673
 3202TIP3   OH2 9546   6.670   2.637   4.567 -0.0577  0.0845 -0.3316
 3202TIP3    H1 9547   6.748   2.655   4.620  0.0478 -1.4897  0.0844
 3202TIP3    H2 9548   6.653   2.719   4.521  0.6984  1.0524  1.0401
 3203TIP3   OH2 9549   6.373   0.103   1.324  0.0500 -0.1177  0.0069
 3203TIP3    H1 9550   6.294   0.153   1.343  0.0327 -0.0651 -0.2009
 3203TIP3    H2 9551   6.445   0.164   1.342  0.1444 -0.8016  2.2346
 3204TIP3   OH2 9552   2.405   6.744   3.402  0.3991 -0.3377 -0.3143
 3204TIP3    H1 9553   2.362   6.794   3.333  1.8405  0.5264 -0.6458
 3204TIP3    H2 9554   2.396   6.799   3.480 -0.3412 -0.8351 -0.0431
 3205TIP3   OH2 9555   1.287   0.016   3.628  0.0192  1.1133 -0.2637
 3205TIP3    H1 9556   1.320   0.018   3.718  0.5833  0.9359 -0.4595
 3205TIP3    H2 9557   1.364  -0.007   3.576 -0.5661  0.0749 -0.6765
 3206TIP3   OH2 9558   7.187   6.206   5.147  0.5881 -0.2030 -0.2410
 3206TIP3    H1 9559   7.175   6.127   5.095  2.6362 -0.3046 -0.6344
 3206TIP3    H2 9560   7.146   6.276   5.095  2.2068 -0.3788 -1.8306
 3207TIP3   OH2 9561   1.265   7.775   2.170  0.0365 -0.1753  0.1723
 3207TIP3    H1 9562   1.289   7.806   2.258 -0.7154 -0.3829  0.4646
 3207TIP3    H2 9563   1.203   7.704   2.187  1.0200 -1.2127 -0.5046
 3208TIP3   OH2 9564   5.526   3.101   4.080 -0.1103  0.0265  0.0563
 3208TIP3    H1 9565   5.431   3.093   4.082  0.0361 -2.2644  0.6728
 3208TIP3    H2 9566   5.549   3.081   3.989 -0.2555  2.1116 -0.4960
 3209TIP3   OH2 9567   5.177   3.743   1.558 -0.5333  0.2650 -0.3214
 3209TIP3    H1 9568   5.109   3.678   1.545  0.1555 -0.3013 -1.2314
 3209TIP3    H2 9569   5.248   3.715   1.500  0.4035  0.9279  0.4711
 3210TIP3   OH2 9570   3.332   2.302   1.267  0.2878  0.3515  0.1004
 3210TIP3    H1 9571   3.314   2.326   1.176 -0.3453  3.9261  1.0176
 3210TIP3    H2 9572   3.422   2.333   1.281  0.4110 -0.2676  0.7033
 3211TIP3   OH2 9573   0.633   4.703   1.180  0.2218 -0.4185  0.2808
 3211TIP3    H1 9574   0.681   4.758   1.242 -0.8447  0.4861  0.3283
 3211TIP3    H2 9575   0.606   4.627   1.232 -0.7148  0.3635  0.9793
 3212TIP3   OH2 9576   0.500   0.647   5.296  0.4073 -0.0513  0.2813
 3212TIP3    H1 9577   0.589   0.681   5.290  0.0087  0.7756 -1.9760
 3212TIP3    H2 9578   0.446   0.710   5.249 -0.9211 -2.0076 -1.0053
 3213TIP3   OH2 9579   7.395   4.112   4.901  0.1491  0.1275  0.6779
 3213TIP3    H1 9580   7.368   4.199   4.872  1.4038  0.3676  0.1552
 3213TIP3    H2 9581   7.485   4.103   4.869  1.0255 -0.2735  3.0691
 3214TIP3   OH2 9582   5.696   3.934   3.215  0.4312 -0.6544  0.1388
 3214TIP3    H1 9583   5.662   3.917   3.303 -0.2564 -1.8306 -0.3219
 3214TIP3    H2 9584   5.618   3.930   3.159  0.3776  2.7483 -0.2683
 3215TIP3   OH2 9585   5.190   5.075   1.963 -0.2103  0.1000  0.1932
 3215TIP3    H1 9586   5.254   5.080   2.035  1.9768  1.2934 -1.7055
 3215TIP3    H2 9587   5.212   4.993   1.918  2.2052  1.9230 -2.2630
 3216TIP3   OH2 9588   3.586   5.403   4.891 -0.3618  0.4485 -0.0069
 3216TIP3    H1 9589   3.616   5.456   4.817 -0.7570  0.2570 -0.3082
 3216TIP3    H2 9590   3.659   5.343   4.908 -0.3827  0.3014 -0.4273
 3217TIP3   OH2 9591   1.913   3.493   0.652  0.1425 -0.3855 -0.3626
 3217TIP3    H1 9592   1.998   3.461   0.682  0.0948 -0.0642  0.1189
 3217TIP3    H2 9593   1.932   3.577   0.610 -0.0413  0.1110  0.5200
 3218TIP3   OH2 9594   2.446   0.009   3.235 -0.3947 -0.7059  0.2055
 3218TIP3    H1 9595   2.397   0.091   3.241  0.0494 -0.4167 -0.0868
 3218TIP3    H2 9596   2.528   0.026   3.281  0.4883 -0.3805 -1.3987
 3219TIP3   OH2 9597   1.930   4.222   6.064  0.6917  0.3318 -0.5353
 3219TIP3    H1 9598   1.860   4.195   6.123  0.8310  1.8752  0.3939
 3219TIP3    H2 9599   1.992   4.149   6.065  1.4416  0.8551  2.4529
 3220TIP3   OH2 9600   1.186   3.554   5.965 -0.2691 -0.6297  0.4516
 3220TIP3    H1 9601   1.210   3.570   5.874  1.3238 -0.5163  0.8615
 3220TIP3    H2 9602   1.234   3.475   5.989 -1.1148 -0.9778  1.0411
 3221TIP3   OH2 9603   1.390   2.898   5.210 -0.5845 -0.1462  0.1642
 3221TIP3    H1 9604   1.447   2.973   5.192 -1.0116  0.3313  0.7493
 3221TIP3    H2 9605   1.303   2.926   5.180 -1.3067  0.6445  2.7185
 3222TIP3   OH2 9606   3.594   6.169   6.268 -0.7925 -0.5787  0.1470
 3222TIP3    H1 9607   3.651   6.216   6.207 -1.5410  0.7138  0.3997
 3222TIP3    H2 9608   3.509   6.167   6.224 -2.0338  2.6050  2.0825
 3223TIP3   OH2 9609   5.254   6.074   2.956  0.7197 -0.6505 -0.2399
 3223TIP3    H1 9610   5.188   6.005   2.955 -1.3625  1.2216 -0.7012
 3223TIP3    H2 9611   5.236   6.123   3.036 -0.1707  1.3646 -1.6032
 3224TIP3   OH2 9612   6.039   2.843   0.090 -0.2124  0.1193 -0.2035
 3224TIP3    H1 9613   6.133   2.861   0.093 -0.7548  3.7496  1.0210
 3224TIP3    H2 9614   6.009   2.884   0.009 -1.1522  2.4106  1.2048
 3225TIP3   OH2 9615   2.605   4.910   0.587 -0.0660  0.5853 -0.3755
 3225TIP3    H1 9616   2.656   4.852   0.643  0.9792  1.1624 -0.7003
 3225TIP3    H2 9617   2.535   4.943   0.643  0.3853  0.3988  0.3071
 3226TIP3   OH2 9618   0.781   4.735   0.348  0.0980  0.0813  0.0702
 3226TIP3    H1 9619   0.729   4.802   0.303 -1.2531 -0.7029  0.4321
 3226TIP3    H2 9620   0.849   4.712   0.284  0.3869  1.5414 -0.1880
 3227TIP3   OH2 9621   5.265   6.315   1.108  0.5910  0.1641  0.2706
 3227TIP3    H1 9622   5.340   6.324   1.050  1.1350  0.0037  0.9408
 3227TIP3    H2 9623   5.199   6.374   1.072  0.8712 -0.0382 -0.5836
 3228TIP3   OH2 9624   2.849   4.082   2.266  0.4153  0.0521  0.2507
 3228TIP3    H1 9625   2.907   4.005   2.266 -0.6211 -0.8744 -2.5170
 3228TIP3    H2 9626   2.797   4.073   2.345  1.2094 -1.4078  0.6541
 3229TIP3   OH2 9627   6.486   4.622   4.039  0.5627 -0.1162 -0.2995
 3229TIP3    H1 9628   6.406   4.673   4.022  1.9375  1.3620 -2.9556
 3229TIP3    H2 9629   6.476   4.544   3.985 -0.6033 -1.8441  2.1901
 3230TIP3   OH2 9630   4.083   1.033   1.752 -0.1052 -0.2281  1.0123
 3230TIP3    H1 9631   4.079   1.102   1.819  0.7756  0.8781 -0.0360
 3230TIP3    H2 9632   4.080   0.951   1.802 -1.0642  0.5510  2.2990
 3231TIP3   OH2 9633   3.669   2.374   4.407 -0.4457  0.2028  0.0370
 3231TIP3    H1 9634   3.631   2.292   4.439 -1.5880  1.1075  1.1344
 3231TIP3    H2 9635   3.611   2.400   4.335 -1.0442  0.8301  0.7317
 3232TIP3   OH2 9636   6.937   3.981   3.973 -0.2920 -0.5534 -0.0846
 3232TIP3    H1 9637   6.912   4.006   3.884  0.7576  0.6771 -0.0596
 3232TIP3    H2 9638   6.930   3.885   3.973  0.6736 -0.6748 -1.8262
 3233TIP3   OH2 9639   7.205   2.073   5.391 -0.1431 -0.0406 -0.0437
 3233TIP3    H1 9640   7.230   2.160   5.422 -2.3125  0.7002 -0.1770
 3233TIP3    H2 9641   7.243   2.012   5.454 -1.1805  1.2043  1.8606
 3234TIP3   OH2 9642   8.240   4.445   4.210  0.5296  0.5191 -0.1180
 3234TIP3    H1 9643   8.196   4.429   4.293  2.2797  0.3901  0.8390
 3234TIP3    H2 9644   8.328   4.408   4.222  0.9641  0.8748 -1.8816
 3235TIP3   OH2 9645   2.843   0.424   5.897  0.1317  0.4481 -0.3520
 3235TIP3    H1 9646   2.753   0.407   5.926  0.1671  0.3306 -0.3133
 3235TIP3    H2 9647   2.896   0.358   5.941  0.2293  0.4780 -0.4243
 3236TIP3   OH2 9648   4.828   6.420   6.500 -0.5899  0.2230 -0.4686
 3236TIP3    H1 9649   4.895   6.353   6.486 -1.1468 -0.0722 -1.8559
 3236TIP3    H2 9650   4.766   6.407   6.429 -0.7738  2.1592 -0.7111
 3237TIP3   OH2 9651   0.249   4.135   5.781  0.2824 -0.4586 -0.3163
 3237TIP3    H1 9652   0.187   4.208   5.780  0.3755 -0.3825 -0.6635
 3237TIP3    H2 9653   0.309   4.154   5.709  1.1077 -0.1933  0.4203
 3238TIP3   OH2 9654   4.035   3.035   5.774 -0.0049  0.0060 -0.0760
 3238TIP3    H1 9655   4.084   3.026   5.692  0.3224  1.8056 -0.1204
 3238TIP3    H2 9656   3.943   3.030   5.747  0.1069 -0.2494 -0.4245
 3239TIP3   OH2 9657   5.333   1.599   5.394  0.2525 -0.2855 -0.0991
 3239TIP3    H1 9658   5.304   1.543   5.465  0.2167  1.5601  1.4137
 3239TIP3    H2 9659   5.418   1.632   5.422  1.3949 -1.3597 -2.0283
 3240TIP3   OH2 9660   5.624   2.048   4.910 -0.3784 -0.0698  0.1217
 3240TIP3    H1 9661   5.715   2.056   4.941 -0.2309 -2.9843  0.6757
 3240TIP3    H2 9662   5.571   2.074   4.984 -0.0074  0.6686  0.1368
 3241TIP3   OH2 9663   7.354   5.775   3.830  0.1533  0.0199 -0.3531
 3241TIP3    H1 9664   7.322   5.685   3.818 -0.7508  0.2376  0.3818
 3241TIP3    H2 9665   7.446   5.763   3.856 -0.6567 -0.8853  2.5926
 3242TIP3   OH2 9666   3.098   5.057   5.519 -0.2809 -0.0046 -0.3055
 3242TIP3    H1 9667   3.129   5.124   5.581  0.9837  0.5344 -1.4773
 3242TIP3    H2 9668   3.004   5.049   5.538 -0.2337  1.2739  0.6247
 3243TIP3   OH2 9669   2.265   3.157   2.524 -0.0030  0.3906 -0.2896
 3243TIP3    H1 9670   2.203   3.169   2.452 -1.3125 -1.6381  0.3987
 3243TIP3    H2 9671   2.230   3.212   2.595  0.7066  1.5833 -0.8461
 3244TIP3   OH2 9672   6.887   7.925   4.240 -0.3039 -0.8342 -0.2749
 3244TIP3    H1 9673   6.861   7.833   4.233 -0.1368 -1.0936  1.8282
 3244TIP3    H2 9674   6.837   7.957   4.315  0.4750  0.4854 -0.3065
 3245TIP3   OH2 9675   4.040   0.247   5.922 -0.3775 -0.2483 -0.6857
 3245TIP3    H1 9676   4.083   0.324   5.884 -1.3282  1.4211  1.4322
 3245TIP3    H2 9677   4.111   0.183   5.931  0.6012  0.6304 -1.7657
 3246TIP3   OH2 9678   1.841   3.696   2.574 -0.4074 -0.4117 -0.5128
 3246TIP3    H1 9679   1.904   3.752   2.620 -0.8030  1.2833 -1.9252
 3246TIP3    H2 9680   1.756   3.727   2.603 -0.6348 -0.6383 -0.9293
 3247TIP3   OH2 9681   6.330   4.078   4.355 -0.2952 -0.3516 -0.0608
 3247TIP3    H1 9682   6.343   4.114   4.267  1.1697  0.4641  0.4542
 3247TIP3    H2 9683   6.269   4.138   4.397  0.5125  0.3879  0.0956
 3248TIP3   OH2 9684   4.544   7.630   5.030  0.0752 -0.6370 -0.1658
 3248TIP3    H1 9685   4.623   7.598   5.073 -0.0449 -0.1129  0.4623
 3248TIP3    H2 9686   4.473   7.603   5.088  0.0587  1.7816  1.0376
 3249TIP3   OH2 9687   3.427   3.032   5.353 -0.6485 -0.4272  0.2234
 3249TIP3    H1 9688   3.365   3.103   5.370 -0.2843 -0.2156  0.6773
 3249TIP3    H2 9689   3.419   3.017   5.258 -1.1878 -0.2167  0.2263
 3250TIP3   OH2 9690   3.985   6.850   3.497 -0.0768  0.4416 -0.1559
 3250TIP3    H1 9691   3.901   6.879   3.532 -2.5016 -2.8412 -2.6212
 3250TIP3    H2 9692   4.028   6.805   3.570 -0.8348  1.3522  0.8833
 3251TIP3   OH2 9693   3.643   1.926   6.474  0.0767 -0.0104  0.2458
 3251TIP3    H1 9694   3.694   1.945   6.553 -0.7002 -0.3397  0.8323
 3251TIP3    H2 9695   3.625   1.832   6.480 -0.7539  0.1373  0.1404
 3252TIP3   OH2 9696   4.389   1.631   6.846  0.4541  0.0582  0.2218
 3252TIP3    H1 9697   4.397   1.710   6.793  1.3970  0.9057  1.5677
 3252TIP3    H2 9698   4.350   1.662   6.929  1.3889 -0.7615  0.9895
 3253TIP3   OH2 9699   7.199   1.374   0.334  0.3994  0.6508  0.1170
 3253TIP3    H1 9700   7.282   1.404   0.296 -0.4784  2.6513 -0.2917
 3253TIP3    H2 9701   7.139   1.448   0.325 -1.0648 -0.2690  1.6487
 3254TIP3   OH2 9702   6.559   5.079   2.351  0.0269 -0.3391 -0.3074
 3254TIP3    H1 9703   6.477   5.108   2.312 -0.9681 -1.1761  1.0786
 3254TIP3    H2 9704   6.595   5.017   2.288 -0.9464 -0.7768 -0.4394
 3255TIP3   OH2 9705   1.689   7.214   5.331 -0.2472 -0.3308  0.0978
 3255TIP3    H1 9706   1.687   7.310   5.333  0.5876 -0.3126  1.0225
 3255TIP3    H2 9707   1.782   7.193   5.333 -0.4321 -1.1632  0.0869
 3256TIP3   OH2 9708   6.216   4.945   6.519  0.3537  0.1470 -0.1883
 3256TIP3    H1 9709   6.141   4.914   6.570  0.0092 -1.0929 -1.3771
 3256TIP3    H2 9710   6.215   5.040   6.531 -0.9979  0.0982  0.3750
 3257TIP3   OH2 9711   6.529   0.941   6.449  0.3727 -0.4855  0.0422
 3257TIP3    H1 9712   6.584   1.011   6.415 -0.8912  0.0755 -0.9420
 3257TIP3    H2 9713   6.477   0.913   6.374 -1.6103 -0.0778  1.1822
 3258TIP3   OH2 9714   0.075   3.447   6.578 -0.4344  0.1631 -0.3321
 3258TIP3    H1 9715   0.002   3.479   6.525 -0.4692  0.9908  0.1944
 3258TIP3    H2 9716   0.034   3.392   6.645 -0.4352 -0.4872 -0.8560
 3259TIP3   OH2 9717   0.579   5.932   0.647  0.5844  0.1045 -0.5352
 3259TIP3    H1 9718   0.640   6.002   0.623  0.5509 -0.1415 -1.3709
 3259TIP3    H2 9719   0.498   5.954   0.602  1.1222 -1.4509 -2.4387
 3260TIP3   OH2 9720   0.078   3.216   3.230  0.4332 -0.0111 -0.2885
 3260TIP3    H1 9721   0.076   3.307   3.261  0.6861 -0.6823  1.8372
 3260TIP3    H2 9722   0.138   3.171   3.290  1.5343 -1.2950 -2.2315
 3261TIP3   OH2 9723   3.224   4.172   4.642  0.1872 -0.2371  0.7614
 3261TIP3    H1 9724   3.243   4.131   4.557 -0.2556  1.2100 -0.0759
 3261TIP3    H2 9725   3.256   4.262   4.632  1.1823 -0.3510  2.5584
 3262TIP3   OH2 9726   0.775   0.023   1.204 -0.0387 -0.6822  0.4374
 3262TIP3    H1 9727   0.838   0.092   1.184 -1.0026 -0.2791 -1.4633
 3262TIP3    H2 9728   0.829  -0.053   1.225  1.0953  1.0164  4.6424
 3263TIP3   OH2 9729   1.044   5.630   1.547  0.4220  0.9366  0.3827
 3263TIP3    H1 9730   1.088   5.651   1.629 -0.3977  2.3749  0.4861
 3263TIP3    H2 9731   0.952   5.651   1.564  0.1045  0.4229 -0.6332
 3264TIP3   OH2 9732   0.320   2.808   1.224 -0.4489 -0.0330 -0.0299
 3264TIP3    H1 9733   0.379   2.883   1.237  0.4759 -0.6454 -0.5920
 3264TIP3    H2 9734   0.272   2.831   1.144 -2.5779  1.4576  1.5868
 3265TIP3   OH2 9735   8.132   6.698   3.372 -0.7463  0.5552 -0.5497
 3265TIP3    H1 9736   8.187   6.620   3.369  0.0534  0.9383  1.8202
 3265TIP3    H2 9737   8.193   6.771   3.382 -1.5785  1.1354  0.6545
 3266TIP3   OH2 9738   6.742   7.522   3.227 -0.0068  0.0690 -0.2030
 3266TIP3    H1 9739   6.813   7.541   3.288  0.3294  0.6934 -0.7680
 3266TIP3    H2 9740   6.785   7.518   3.141 -0.2993 -1.8112 -0.3077
 3267TIP3   OH2 9741   1.863   5.562   3.614 -0.4898  0.1033  0.1944
 3267TIP3    H1 9742   1.864   5.501   3.688 -2.6966 -0.5377 -0.2460
 3267TIP3    H2 9743   1.842   5.647   3.654 -2.5989 -0.4034  0.2616
 3268TIP3   OH2 9744   1.545   4.453   2.068  0.8112  0.2411 -0.4188
 3268TIP3    H1 9745   1.535   4.458   2.163  1.7100  0.2877 -0.3193
 3268TIP3    H2 9746   1.458   4.475   2.033  0.3442 -0.2662  0.3948
 3269TIP3   OH2 9747   6.486   5.843   1.882 -0.1400  0.5105  0.1266
 3269TIP3    H1 9748   6.505   5.875   1.971 -1.7610 -0.0272  0.7199
 3269TIP3    H2 9749   6.460   5.922   1.834 -2.1826  0.4605  1.0237
 3270TIP3   OH2 9750   2.778   2.256   1.434  0.3650 -0.0799  0.0420
 3270TIP3    H1 9751   2.689   2.228   1.454  0.6900  0.8440  3.5429
 3270TIP3    H2 9752   2.831   2.178   1.446  0.2352 -0.1667  0.0558
 3271TIP3   OH2 9753   7.623   1.485   3.016 -0.3594 -0.5727  0.0408
 3271TIP3    H1 9754   7.585   1.572   3.000 -0.0457 -0.6288 -1.1310
 3271TIP3    H2 9755   7.571   1.426   2.962 -0.9072 -1.2166  1.2288
 3272TIP3   OH2 9756   0.142   5.711   0.838 -0.3416 -0.9095  0.2091
 3272TIP3    H1 9757   0.175   5.695   0.750  3.8031 -0.7709  1.5401
 3272TIP3    H2 9758   0.187   5.791   0.867 -1.9427 -0.6798  2.3285
 3273TIP3   OH2 9759   6.801   2.246   6.210 -0.2105  0.1834 -0.0566
 3273TIP3    H1 9760   6.810   2.321   6.268 -0.2036 -0.1623  0.3967
 3273TIP3    H2 9761   6.715   2.210   6.230 -0.7405  0.7981 -1.1564
 3274TIP3   OH2 9762   8.147   0.006   3.260  0.5685  0.1864  0.1370
 3274TIP3    H1 9763   8.122  -0.064   3.200  2.7715  0.1946 -0.8882
 3274TIP3    H2 9764   8.072   0.066   3.260 -0.3896 -0.9630 -0.8091
 3275TIP3   OH2 9765   6.557   7.682   4.640  0.1790  0.1996 -0.5557
 3275TIP3    H1 9766   6.545   7.636   4.557 -1.3597  4.4374 -2.9976
 3275TIP3    H2 9767   6.495   7.755   4.636  0.8152  1.2731  3.9126
 3276TIP3   OH2 9768   2.254   1.659   3.493  0.2748 -0.0650 -0.3274
 3276TIP3    H1 9769   2.342   1.623   3.502  0.1817 -0.1547  0.2346
 3276TIP3    H2 9770   2.214   1.647   3.579  0.6308  2.4518  0.2488
 3277TIP3   OH2 9771   6.588   6.916   1.317  0.1029 -0.0964 -0.1932
 3277TIP3    H1 9772   6.628   7.002   1.315 -1.0400  0.4742  0.4196
 3277TIP3    H2 9773   6.516   6.921   1.254 -0.3550 -0.3871  0.2929
 3278TIP3   OH2 9774   4.518   1.214   5.467 -0.3876  0.2310 -0.1949
 3278TIP3    H1 9775   4.593   1.263   5.498 -1.4264  1.7932 -0.0454
 3278TIP3    H2 9776   4.507   1.143   5.531  1.2152 -0.3333 -0.5009
 3279TIP3   OH2 9777   1.277   0.797   2.201  0.3821 -0.0202 -0.2480
 3279TIP3    H1 9778   1.346   0.772   2.139 -1.6631 -1.2351 -2.1513
 3279TIP3    H2 9779   1.213   0.726   2.195 -0.7452  0.7541  1.9507
 3280TIP3   OH2 9780   1.060   4.591   0.225  0.0952  0.8830 -0.7781
 3280TIP3    H1 9781   0.986   4.625   0.175 -0.5552 -0.7430 -0.9777
 3280TIP3    H2 9782   1.132   4.587   0.161 -0.1094  0.8940 -1.0085
 3281TIP3   OH2 9783   3.968   0.321   2.626 -0.6983  0.0296 -0.3679
 3281TIP3    H1 9784   3.901   0.375   2.585 -2.9550 -1.4039  1.2348
 3281TIP3    H2 9785   3.960   0.236   2.584  2.0486  0.4579 -2.0499
 3282TIP3   OH2 9786   7.951   2.801   0.683 -0.0072  0.0136 -0.8044
 3282TIP3    H1 9787   8.020   2.859   0.653 -0.4072  0.7356 -0.3458
 3282TIP3    H2 9788   7.874   2.826   0.632 -0.7631  1.4204  0.9013
 3283TIP3   OH2 9789   2.576   0.979   6.428 -0.4081  0.2723  0.3551
 3283TIP3    H1 9790   2.491   1.006   6.392 -0.5623 -0.6877 -0.0229
 3283TIP3    H2 9791   2.620   0.934   6.356 -0.6009 -1.4218  1.2618
 3284TIP3   OH2 9792   0.534   2.872   4.310 -0.7571  0.1847  0.3184
 3284TIP3    H1 9793   0.463   2.880   4.247  0.6494  1.3455 -1.2073
 3284TIP3    H2 9794   0.493   2.887   4.395 -2.6307 -1.0096 -0.3295
 3285TIP3   OH2 9795   2.785   6.468   3.524 -0.1804 -0.0631 -0.2669
 3285TIP3    H1 9796   2.757   6.377   3.516 -1.0236  0.1766 -0.0832
 3285TIP3    H2 9797   2.879   6.462   3.543 -0.4444 -0.9455  0.9023
 3286TIP3   OH2 9798   2.160   2.341   1.270 -0.2934 -0.0531 -0.1150
 3286TIP3    H1 9799   2.158   2.266   1.329  0.4482  1.4169  1.9262
 3286TIP3    H2 9800   2.242   2.333   1.222  1.0743  0.7170  1.9757
 3287TIP3   OH2 9801   1.127   1.030   4.474 -0.3231  0.2037 -0.9795
 3287TIP3    H1 9802   1.106   0.985   4.555 -0.7219  0.6796 -0.8169
 3287TIP3    H2 9803   1.177   1.107   4.501 -0.9128  0.6473 -1.1431
 3288TIP3   OH2 9804   2.881   2.367   1.967  0.1359 -0.0993 -0.6800
 3288TIP3    H1 9805   2.926   2.284   1.953  0.1907 -0.1352 -0.2959
 3288TIP3    H2 9806   2.858   2.397   1.879  0.9247 -0.0746 -0.8814
 3289TIP3   OH2 9807   1.230   0.863   0.749 -0.1256  0.2564  0.1957
 3289TIP3    H1 9808   1.244   0.865   0.654  1.0363 -0.3782  0.3316
 3289TIP3    H2 9809   1.275   0.942   0.781 -1.4377  1.0683  0.1437
 3290TIP3   OH2 9810   4.190   0.250   6.248 -0.0382  0.4309  0.5938
 3290TIP3    H1 9811   4.118   0.206   6.204  1.6703 -1.3772 -0.5914
 3290TIP3    H2 9812   4.215   0.321   6.188 -0.7129  0.9617  0.9333
 3291TIP3   OH2 9813   7.146   7.404   1.270 -0.3959  0.0686  0.0167
 3291TIP3    H1 9814   7.061   7.358   1.264  0.9558 -2.5462 -0.6931
 3291TIP3    H2 9815   7.205   7.352   1.216  1.3499  2.7402 -0.8576
 3292TIP3   OH2 9816   2.450   7.677   4.529 -0.5506  0.7524 -0.2278
 3292TIP3    H1 9817   2.488   7.697   4.444 -1.0386  2.6617 -0.0485
 3292TIP3    H2 9818   2.358   7.659   4.510 -0.4720  0.3035 -0.1929
 3293TIP3   OH2 9819   8.139   7.589   5.697  0.1717  0.1731  0.0705
 3293TIP3    H1 9820   8.207   7.523   5.709 -0.8574 -0.6871  1.4078
 3293TIP3    H2 9821   8.178   7.669   5.734  0.9783  0.0394 -0.4663
 3294TIP3   OH2 9822   7.928   2.765   6.711 -0.2227  0.4069 -0.0198
 3294TIP3    H1 9823   7.949   2.803   6.796 -0.2390 -0.5987  0.4451
 3294TIP3    H2 9824   8.000   2.705   6.692 -0.4954  0.2111 -0.4556
 3295TIP3   OH2 9825   1.682   2.398   0.677  0.0000  0.0078  0.2093
 3295TIP3    H1 9826   1.715   2.405   0.588 -1.2934 -0.9658 -0.3808
 3295TIP3    H2 9827   1.743   2.450   0.730  2.6498 -1.9182 -0.7457
 3296TIP3   OH2 9828   7.424   4.455   1.755 -0.0999  0.6201  0.1185
 3296TIP3    H1 9829   7.397   4.367   1.730 -2.6166  1.2618  0.2958
 3296TIP3    H2 9830   7.435   4.501   1.671  3.3480 -0.3359 -0.0746
 3297TIP3   OH2 9831   2.696   4.173   1.423  0.1102  0.4467 -0.6318
 3297TIP3    H1 9832   2.649   4.181   1.506 -0.6226 -0.0291 -0.9915
 3297TIP3    H2 9833   2.656   4.097   1.380  2.3736 -1.0865 -0.1915
 3298TIP3   OH2 9834   1.730   0.627   4.051 -0.0054 -0.1226 -0.1161
 3298TIP3    H1 9835   1.680   0.673   3.983  0.6437 -1.0445 -1.2484
 3298TIP3    H2 9836   1.669   0.561   4.084 -0.5121  0.6884  0.6247
 3299TIP3   OH2 9837   5.900   6.008   5.588  0.0753 -0.4793 -0.0530
 3299TIP3    H1 9838   5.814   5.986   5.623 -0.5478  0.9019 -0.6315
 3299TIP3    H2 9839   5.941   6.060   5.657  1.0445 -2.3004  0.8026
 3300TIP3   OH2 9840   1.972   7.118   0.347 -0.4246 -0.4926  0.5388
 3300TIP3    H1 9841   2.010   7.159   0.425  1.1093 -1.5531  0.3905
 3300TIP3    H2 9842   1.991   7.179   0.276  0.9545 -0.9431  0.4910
 3301TIP3   OH2 9843   7.405   2.059   1.745  0.2077  0.8910 -0.8191
 3301TIP3    H1 9844   7.432   2.146   1.773 -0.5125  0.8562  0.0408
 3301TIP3    H2 9845   7.426   2.002   1.820 -0.1073  0.4800 -1.0343
 3302TIP3   OH2 9846   4.363   2.674   2.489 -0.3940 -0.4672  0.5913
 3302TIP3    H1 9847   4.290   2.613   2.496  0.0805 -0.9526  1.6639
 3302TIP3    H2 9848   4.329   2.757   2.523 -1.4909  0.3663 -2.2252
 3303TIP3   OH2 9849   6.948   0.769   0.760  0.4625 -0.0068  0.1258
 3303TIP3    H1 9850   6.935   0.841   0.821  0.0325 -0.4090  0.5127
 3303TIP3    H2 9851   6.897   0.793   0.683  0.0128 -0.0682  0.3997
 3304TIP3   OH2 9852   5.102   4.441   3.225 -0.0681  0.2507  0.1409
 3304TIP3    H1 9853   5.129   4.405   3.310  0.3439 -0.6613 -0.3576
 3304TIP3    H2 9854   5.142   4.528   3.223  0.9322 -0.1827  0.3922
 3305TIP3   OH2 9855   7.381   1.269   0.013  0.3460  0.0579 -0.2459
 3305TIP3    H1 9856   7.456   1.293   0.067  0.2495  0.1716 -0.1626
 3305TIP3    H2 9857   7.400   1.306  -0.073 -1.5335  3.8515  0.7634
 3306TIP3   OH2 9858   0.548   7.625   2.801  0.3796  0.0286  0.2613
 3306TIP3    H1 9859   0.501   7.646   2.882  1.4874  0.5967  0.7858
 3306TIP3    H2 9860   0.509   7.543   2.771 -0.2043 -0.0759  1.2579
 3307TIP3   OH2 9861   7.929   5.662   1.654  0.0376  0.3265 -0.3843
 3307TIP3    H1 9862   7.879   5.741   1.673  0.2790  0.1254  1.2629
 3307TIP3    H2 9863   7.889   5.626   1.574 -2.1490  0.4163  0.5996
 3308TIP3   OH2 9864   6.907   4.013   3.711  0.1287 -0.1360 -0.2415
 3308TIP3    H1 9865   6.969   3.966   3.655  0.1073  1.8085 -2.0621
 3308TIP3    H2 9866   6.824   4.009   3.663 -0.7923 -1.2719  1.3461
 3309TIP3   OH2 9867   5.057   0.307   3.152  0.4157 -0.3797  0.3446
 3309TIP3    H1 9868   5.090   0.227   3.194  1.0009  0.7689  2.1781
 3309TIP3    H2 9869   5.122   0.373   3.171  0.7500  0.2383 -2.5595
 3310TIP3   OH2 9870   4.677   0.517   0.629  0.2506  0.1591  0.1783
 3310TIP3    H1 9871   4.747   0.511   0.564 -0.2076  0.6791 -0.3662
 3310TIP3    H2 9872   4.601   0.477   0.587  0.3127 -0.7607  0.9163
 3311TIP3   OH2 9873   1.628   7.489   4.974 -0.3103  0.1143  0.1641
 3311TIP3    H1 9874   1.705   7.521   4.927  1.1940 -0.5208  2.0572
 3311TIP3    H2 9875   1.628   7.394   4.960  0.3915 -0.1418  1.6755
 3312TIP3   OH2 9876   7.424   3.173   1.567 -0.5458  0.1227  0.3631
 3312TIP3    H1 9877   7.460   3.114   1.633 -0.4383 -0.7692 -0.4689
 3312TIP3    H2 9878   7.331   3.180   1.590 -0.9544 -1.7692 -0.4913
 3313TIP3   OH2 9879   7.904   0.479   2.457 -0.5516 -0.4949 -0.4576
 3313TIP3    H1 9880   7.887   0.495   2.550 -2.1795 -0.4568 -0.7301
 3313TIP3    H2 9881   7.993   0.511   2.443 -0.3071 -0.4332  1.0638
 3314TIP3   OH2 9882   2.320   5.722   2.968 -0.2054 -0.6571 -0.3275
 3314TIP3    H1 9883   2.233   5.747   2.938 -1.4423 -2.5858  1.3499
 3314TIP3    H2 9884   2.340   5.642   2.919  0.2953 -0.6208 -0.1904
 3315TIP3   OH2 9885   0.513   5.165   1.955  0.0085 -0.1099  0.5467
 3315TIP3    H1 9886   0.516   5.092   1.893  0.4677  0.9752 -0.7614
 3315TIP3    H2 9887   0.585   5.149   2.015  0.6711 -0.2655 -0.2798
 3316TIP3   OH2 9888   4.536   4.328   0.968 -0.7191  0.3994  0.3160
 3316TIP3    H1 9889   4.469   4.388   0.936 -0.6177  0.6115  0.5035
 3316TIP3    H2 9890   4.517   4.318   1.062 -1.5677 -0.9267  0.0270
 3317TIP3   OH2 9891   2.310   1.046   2.762  0.0420  0.2666  0.1929
 3317TIP3    H1 9892   2.406   1.037   2.767 -0.1222 -2.7549 -0.2074
 3317TIP3    H2 9893   2.281   1.036   2.853  0.0251 -1.0058  0.0653
 3318TIP3   OH2 9894   6.652   0.303   0.624 -0.0804  0.4059  0.1682
 3318TIP3    H1 9895   6.686   0.343   0.544  1.3392 -0.0453  0.5231
 3318TIP3    H2 9896   6.617   0.219   0.596 -2.1876  1.4046 -0.4156
 3319TIP3   OH2 9897   7.250   3.496   4.288 -0.0249 -0.0404  0.1893
 3319TIP3    H1 9898   7.231   3.546   4.209 -1.3502 -2.0937 -0.8744
 3319TIP3    H2 9899   7.335   3.456   4.272  0.6377  1.1195  0.6853
 3320TIP3   OH2 9900   5.365   3.684   0.267  0.7192  0.6066  0.1050
 3320TIP3    H1 9901   5.344   3.590   0.265 -0.0606  0.7811 -0.0194
 3320TIP3    H2 9902   5.461   3.686   0.273  0.7140 -0.2043  0.7200
 3321TIP3   OH2 9903   0.926   3.666   5.959  0.3915  0.5417  0.4595
 3321TIP3    H1 9904   0.877   3.590   5.925  0.3566  0.0293  1.6139
 3321TIP3    H2 9905   1.016   3.636   5.963  0.1775  0.0595  2.2404
 3322TIP3   OH2 9906   0.743   4.242   5.606 -0.4957 -0.2770  0.0258
 3322TIP3    H1 9907   0.747   4.149   5.628  3.9572 -0.3662 -0.1286
 3322TIP3    H2 9908   0.716   4.284   5.687 -0.1874 -1.5818  0.8479
 3323TIP3   OH2 9909   5.743   4.637   6.674  0.6580  0.4371 -0.0452
 3323TIP3    H1 9910   5.799   4.712   6.695 -0.4866  1.4100 -0.3542
 3323TIP3    H2 9911   5.791   4.561   6.707  2.8209  1.0680 -1.5941
 3324TIP3   OH2 9912   3.536   6.777   6.483 -0.3344 -0.2907  0.0727
 3324TIP3    H1 9913   3.447   6.742   6.486 -0.9232  1.1621  0.2858
 3324TIP3    H2 9914   3.533   6.857   6.534  1.0145 -0.0040 -0.2380
 3325TIP3   OH2 9915   0.957   2.541   3.458  0.1192 -0.2626  0.3850
 3325TIP3    H1 9916   0.960   2.502   3.545 -2.0126 -1.8303 -0.1598
 3325TIP3    H2 9917   0.870   2.578   3.451 -0.1991 -1.2064 -1.4584
 3326TIP3   OH2 9918   3.858   3.349   6.029  0.3154 -0.2038  0.5276
 3326TIP3    H1 9919   3.835   3.424   5.975  1.9238 -0.6023 -0.8112
 3326TIP3    H2 9920   3.827   3.273   5.979  2.9031 -0.6507 -0.5423
 3327TIP3   OH2 9921   1.072   1.819   3.644  0.4984 -0.7323  0.4212
 3327TIP3    H1 9922   1.106   1.844   3.730 -0.1016  0.0254  0.4474
 3327TIP3    H2 9923   0.979   1.842   3.647  0.9200  1.4757 -1.2051
 3328TIP3   OH2 9924   0.693   0.810   1.211  0.7866 -0.2687 -0.5193
 3328TIP3    H1 9925   0.649   0.890   1.185  0.6440 -0.7014 -1.6765
 3328TIP3    H2 9926   0.647   0.741   1.163  0.8846 -1.0476  0.4830
 3329TIP3   OH2 9927   3.714   3.110   3.117  0.1490  0.1553  0.2389
 3329TIP3    H1 9928   3.733   3.017   3.107  1.8294  0.5738 -0.9958
 3329TIP3    H2 9929   3.678   3.119   3.205  0.6275 -1.5536  0.6356
 3330TIP3   OH2 9930   1.082   5.778   6.176  0.5240 -0.4339  0.3679
 3330TIP3    H1 9931   1.002   5.728   6.188  0.2042 -0.1633 -0.5824
 3330TIP3    H2 9932   1.137   5.723   6.119 -0.0253  0.4747 -1.0847
 3331TIP3   OH2 9933   4.088   7.601   6.184 -0.0394 -0.2792 -0.1781
 3331TIP3    H1 9934   4.044   7.559   6.257 -3.6568  1.8752 -0.8493
 3331TIP3    H2 9935   4.025   7.597   6.112  2.3783 -0.1545 -2.4691
 3332TIP3   OH2 9936   1.163   4.607   2.110  0.5024 -0.2872 -0.3078
 3332TIP3    H1 9937   1.143   4.540   2.175 -1.7305  1.5174  1.0546
 3332TIP3    H2 9938   1.080   4.654   2.099  1.3701  0.7456 -2.9912
 3333TIP3   OH2 9939   5.392   3.818   1.721 -0.9025 -0.4249 -0.5695
 3333TIP3    H1 9940   5.303   3.813   1.685 -1.9089 -0.9664  1.7678
 3333TIP3    H2 9941   5.425   3.728   1.715 -0.7383 -0.3409 -0.9198
 3334TIP3   OH2 9942   7.953   4.935   3.689  0.2817 -0.2693 -0.5771
 3334TIP3    H1 9943   8.035   4.948   3.642  0.9071  0.2677  0.6117
 3334TIP3    H2 9944   7.892   4.900   3.623  0.9952  0.8203 -1.8650
 3335TIP3   OH2 9945   0.124   3.208   2.383 -0.0749  0.0215  0.1324
 3335TIP3    H1 9946   0.029   3.203   2.394  0.1736  0.1748  3.6198
 3335TIP3    H2 9947   0.144   3.301   2.397  0.8100 -0.5816  4.3440
 3336TIP3   OH2 9948   7.687   2.636   6.652  0.1968 -0.2661 -0.0413
 3336TIP3    H1 9949   7.661   2.582   6.726  1.2515 -0.2229  0.3787
 3336TIP3    H2 9950   7.774   2.670   6.676  0.7679 -0.6270 -1.4797
 3337TIP3   OH2 9951   5.947   4.325   2.919 -0.3128 -0.0011  0.2119
 3337TIP3    H1 9952   5.918   4.317   2.828 -1.8916  0.2371  0.6652
 3337TIP3    H2 9953   6.024   4.382   2.915  1.5061 -2.3767 -1.2810
 3338TIP3   OH2 9954   3.388   7.710   4.908  0.1699  0.1685  0.0717
 3338TIP3    H1 9955   3.464   7.765   4.924  0.2350 -0.1098  0.7399
 3338TIP3    H2 9956   3.396   7.684   4.816  1.2978 -0.5063  0.3554
 3339TIP3   OH2 9957   6.207   1.529   4.177 -0.0996 -0.2468  0.0743
 3339TIP3    H1 9958   6.265   1.569   4.241  0.7355 -1.4280  0.0774
 3339TIP3    H2 9959   6.142   1.597   4.158  0.5465  0.6555  1.0005
 3340TIP3   OH2 9960   2.336   1.597   2.005  0.0834 -0.1539 -0.1041
 3340TIP3    H1 9961   2.414   1.542   2.012  0.6058  0.6072  0.1475
 3340TIP3    H2 9962   2.363   1.681   2.041 -1.1764 -0.1890  0.9757
 3341TIP3   OH2 9963   8.169   2.409   0.089 -0.1122 -0.3598 -0.1370
 3341TIP3    H1 9964   8.082   2.426   0.126 -0.6285 -0.9467 -1.0590
 3341TIP3    H2 9965   8.196   2.327   0.130 -0.7797 -1.1270 -1.1828
 3342TIP3   OH2 9966   6.795   1.523   1.964 -0.1050  0.1276 -0.5377
 3342TIP3    H1 9967   6.859   1.515   2.034 -0.5327 -0.6874 -0.2211
 3342TIP3    H2 9968   6.795   1.437   1.921 -0.7498  0.2177 -0.7311
 3343TIP3   OH2 9969   2.235   4.460   3.488  0.2389  0.0225 -0.5917
 3343TIP3    H1 9970   2.213   4.388   3.430  0.0172  0.7754 -1.4635
 3343TIP3    H2 9971   2.320   4.491   3.458  0.7545 -0.4261  0.3473
 3344TIP3   OH2 9972   2.160   6.564   5.599 -0.0524 -0.0273  0.7612
 3344TIP3    H1 9973   2.173   6.602   5.686  0.9806  0.4747  0.4033
 3344TIP3    H2 9974   2.121   6.478   5.616 -1.5390  0.7819  1.6247
 3345TIP3   OH2 9975   1.923   0.501   4.250 -0.0100  0.2152 -0.0342
 3345TIP3    H1 9976   1.842   0.452   4.259  1.5051 -2.3911  0.5227
 3345TIP3    H2 9977   1.896   0.592   4.240 -2.9636 -0.5883 -0.0945
 3346TIP3   OH2 9978   1.732   5.233   6.410 -0.8586  0.0251 -0.1202
 3346TIP3    H1 9979   1.741   5.138   6.407 -1.4990 -0.0641  0.3785
 3346TIP3    H2 9980   1.731   5.261   6.319  1.4940 -0.2126 -0.2630
 3347TIP3   OH2 9981   5.963   1.417   2.975  0.1521 -0.0198 -0.0061
 3347TIP3    H1 9982   6.010   1.432   2.893 -0.5667  3.5519  0.0981
 3347TIP3    H2 9983   6.032   1.409   3.041  0.6790 -0.1522 -0.5627
 3348TIP3   OH2 9984   6.850   4.623   4.281  0.3569  0.4415  0.3633
 3348TIP3    H1 9985   6.846   4.595   4.373 -0.0539 -0.6713  0.0146
 3348TIP3    H2 9986   6.801   4.706   4.280 -1.4189 -0.5590  0.7932
 3349TIP3   OH2 9987   4.759   5.662   5.524 -0.4645 -0.2165  0.5349
 3349TIP3    H1 9988   4.671   5.668   5.561 -1.3850 -2.4390 -1.0742
 3349TIP3    H2 9989   4.768   5.743   5.473 -0.6506  1.0551  2.4081
 3350TIP3   OH2 9990   4.069   0.055   2.616  0.1935 -0.1327  0.3531
 3350TIP3    H1 9991   4.053   0.071   2.709 -1.1669 -0.0942  0.1267
 3350TIP3    H2 9992   4.001  -0.007   2.590  1.6223 -1.5526 -0.2240
 3351TIP3   OH2 9993   8.323   3.041   4.576 -0.3485  0.0958  0.6713
 3351TIP3    H1 9994   8.262   3.001   4.638 -0.2006  0.4222  1.0273
 3351TIP3    H2 9995   8.274   3.044   4.493 -0.9036  0.5661  1.0087
 3352TIP3   OH2 9996   7.451   6.249   2.057 -0.1913 -0.3282 -0.4655
 3352TIP3    H1 9997   7.498   6.254   1.973  0.1667 -0.3096 -0.2663
 3352TIP3    H2 9998   7.477   6.329   2.103  0.1952 -0.6922 -0.0375
 3353TIP3   OH2 9999   6.172   5.427   5.635 -0.5701 -0.1144 -0.7506
 3353TIP3    H110000   6.190   5.422   5.541 -0.1003  1.2154 -0.7449
 3353TIP3    H210001   6.134   5.341   5.656  1.1666 -1.1885 -1.7445
 3354TIP3   OH210002   1.249   3.580   0.386 -0.0271 -0.1805 -0.1448
 3354TIP3    H110003   1.209   3.521   0.450  1.6038 -2.5230 -1.1377
 3354TIP3    H210004   1.246   3.666   0.428 -0.1905 -1.3713  2.5204
 3355TIP3   OH210005   3.620   7.564   0.005  0.1176  0.1442  0.2074
 3355TIP3    H110006   3.626   7.487   0.061 -0.2483 -0.1804 -0.1936
 3355TIP3    H210007   3.704   7.567  -0.041  0.1533  0.0128  0.2648
 3356TIP3   OH210008   6.581   4.633   2.713 -0.2348 -0.1924  0.7854
 3356TIP3    H110009   6.607   4.542   2.698 -1.4758 -0.6802  1.3634
 3356TIP3    H210010   6.531   4.657   2.635 -0.8389 -0.3928  1.1026
 3357TIP3   OH210011   6.204   1.989   3.991  0.5757 -0.3550  0.0424
 3357TIP3    H110012   6.185   1.924   4.058  2.0427  2.0731  3.0317
 3357TIP3    H210013   6.118   2.015   3.957 -0.2443 -1.2474  1.3630
 3358TIP3   OH210014   7.327   0.445   3.186  0.4661  0.4703  0.2505
 3358TIP3    H110015   7.371   0.499   3.252  0.3644  1.0259 -0.1287
 3358TIP3    H210016   7.239   0.430   3.221  1.1741 -1.3661  1.4201
 3359TIP3   OH210017   3.405   2.155   6.749 -0.0604  0.4272  0.1424
 3359TIP3    H110018   3.447   2.211   6.684  0.2175  0.3852  0.2840
 3359TIP3    H210019   3.468   2.149   6.820 -0.1986  0.1533  0.2459
 3360TIP3   OH210020   4.585   0.046   3.942 -0.3101 -0.4754  0.2896
 3360TIP3    H110021   4.579   0.138   3.918 -0.6022 -0.4169  0.5872
 3360TIP3    H210022   4.651   0.010   3.882  0.8370  0.2369  1.0850
 3361TIP3   OH210023   2.246   5.157   6.714 -0.0865 -0.3935 -0.1172
 3361TIP3    H110024   2.221   5.065   6.723 -0.6984 -0.2878 -0.7064
 3361TIP3    H210025   2.324   5.155   6.659  0.2450 -0.5994  0.3545
 3362TIP3   OH210026   3.710   0.768   4.432  0.3119  0.3102 -0.0170
 3362TIP3    H110027   3.725   0.729   4.346  0.1808  0.2409 -0.0074
 3362TIP3    H210028   3.671   0.853   4.413 -0.3640  0.0095 -0.0071
 3363TIP3   OH210029   3.422   3.420   1.449 -0.2418  0.0517 -0.5024
 3363TIP3    H110030   3.337   3.439   1.488  0.5207 -1.0960  1.9629
 3363TIP3    H210031   3.475   3.498   1.466 -0.2925  0.0576 -0.3676
 3364TIP3   OH210032   7.462   4.811   1.649 -0.2668  0.5028 -0.4375
 3364TIP3    H110033   7.525   4.775   1.711 -2.8537 -0.4698  1.8255
 3364TIP3    H210034   7.464   4.750   1.575  1.5022  0.6105 -0.5270
 3365TIP3   OH210035   1.227   0.160   5.849  0.0986  0.0586 -0.0164
 3365TIP3    H110036   1.317   0.178   5.873  0.1904 -1.4447  0.8876
 3365TIP3    H210037   1.225   0.167   5.754  1.5316 -1.4099 -0.1796
 3366TIP3   OH210038   2.153   7.793   1.575  0.2580  0.2197 -0.1251
 3366TIP3    H110039   2.220   7.757   1.632  0.0098 -0.8623 -0.4989
 3366TIP3    H210040   2.200   7.851   1.515  0.7302  0.1504  0.1774
 3367TIP3   OH210041   6.788   2.279   1.362 -0.0763  0.3829 -0.1412
 3367TIP3    H110042   6.782   2.196   1.316 -0.9220 -0.4365  1.3518
 3367TIP3    H210043   6.701   2.318   1.351  1.0958  2.5198 -3.2595
 3368TIP3   OH210044   5.678   2.183   6.404  0.6982 -0.5057 -0.3951
 3368TIP3    H110045   5.710   2.192   6.315  2.8083 -1.2951  0.2128
 3368TIP3    H210046   5.675   2.089   6.420 -0.6199 -0.4055  0.0590
 3369TIP3   OH210047   3.174   5.698   1.774  0.4776 -0.1174 -0.1028
 3369TIP3    H110048   3.107   5.660   1.717  0.8627  0.8424 -1.2402
 3369TIP3    H210049   3.249   5.711   1.717  0.5360  1.8325  0.3459
 3370TIP3   OH210050   7.691   3.880   4.782  0.3241 -0.8864 -0.1044
 3370TIP3    H110051   7.654   3.836   4.859 -1.9950 -0.1704 -0.7211
 3370TIP3    H210052   7.704   3.970   4.810  0.5664 -0.8839 -0.2265
 3371TIP3   OH210053   2.934   3.866   6.526 -0.2451 -0.4372 -0.0958
 3371TIP3    H110054   2.869   3.877   6.456 -0.0806 -0.4636 -0.2562
 3371TIP3    H210055   2.907   3.926   6.594 -1.1403 -1.3473  0.3639
 3372TIP3   OH210056   8.311   0.429   3.378  0.1818 -0.5995  0.1347
 3372TIP3    H110057   8.253   0.436   3.454 -0.4281 -0.3660 -0.3438
 3372TIP3    H210058   8.318   0.335   3.361 -0.2092 -0.6232  0.0878
 3373TIP3   OH210059   5.458   3.665   3.070  0.1828 -0.2116 -0.2673
 3373TIP3    H110060   5.546   3.637   3.047  0.3551  0.5433 -0.5222
 3373TIP3    H210061   5.401   3.614   3.013  0.5177  0.2754 -1.0433
 3374TIP3   OH210062   0.752   0.612   1.725 -0.1618 -0.1277  0.0057
 3374TIP3    H110063   0.677   0.664   1.698 -0.0293 -0.4664 -1.0568
 3374TIP3    H210064   0.744   0.606   1.820 -1.7735 -0.6085 -0.1305
 3375TIP3   OH210065   5.099   7.633   6.009  0.7496 -0.2727  0.3712
 3375TIP3    H110066   5.078   7.653   6.101 -0.6780  0.9304 -0.1720
 3375TIP3    H210067   5.049   7.697   5.959  1.2833 -1.0946 -1.2791
 3376TIP3   OH210068   3.370   4.466   3.071  0.1589  0.6613 -0.3235
 3376TIP3    H110069   3.438   4.481   3.005  0.7297  0.0046  0.1041
 3376TIP3    H210070   3.291   4.448   3.020  0.3299  1.2936 -0.8261
 3377TIP3   OH210071   2.743   2.673   6.354 -0.2555 -0.1258  0.1355
 3377TIP3    H110072   2.764   2.700   6.443 -1.7461  0.8050  0.2362
 3377TIP3    H210073   2.651   2.647   6.358  0.1671 -1.9065 -0.7396
 3378TIP3   OH210074   6.524   6.056   0.725 -0.1543 -0.2757  0.2543
 3378TIP3    H110075   6.451   6.048   0.786 -1.8045  0.3029 -1.5387
 3378TIP3    H210076   6.500   6.129   0.668  2.3803  0.6763  0.2757
 3379TIP3   OH210077   5.314   6.988   0.401  0.3279  0.2103 -0.2411
 3379TIP3    H110078   5.347   6.902   0.377  0.2199  0.1479 -0.1653
 3379TIP3    H210079   5.389   7.031   0.444 -0.2588 -0.6956  1.8391
 3380TIP3   OH210080   7.185   6.359   1.198 -0.8176  0.5378 -0.4404
 3380TIP3    H110081   7.189   6.359   1.294  0.5803 -1.0198 -0.4586
 3380TIP3    H210082   7.163   6.270   1.174 -0.5704  0.7683 -1.5935
 3381TIP3   OH210083   1.254   5.451   0.096 -0.0629 -0.1901  0.5118
 3381TIP3    H110084   1.319   5.383   0.077 -0.2895 -0.9499  2.2544
 3381TIP3    H210085   1.171   5.414   0.065 -0.3325 -1.1537  2.2535
 3382TIP3   OH210086   5.199   7.666   5.241  0.6614  0.1322 -0.0495
 3382TIP3    H110087   5.178   7.759   5.237 -1.3802 -0.3047 -1.8105
 3382TIP3    H210088   5.119   7.622   5.210  1.5233 -2.2190  0.8150
 3383TIP3   OH210089   3.864   2.184   4.131 -0.4211  0.5230 -0.1879
 3383TIP3    H110090   3.772   2.165   4.116 -0.3214  0.3623 -0.6072
 3383TIP3    H210091   3.893   2.118   4.195 -0.4132  0.1076 -0.6157
 3384TIP3   OH210092   8.386   2.628   2.459 -0.6413  0.0513 -0.1234
 3384TIP3    H110093   8.372   2.535   2.474  0.6309  0.1110  1.7932
 3384TIP3    H210094   8.378   2.668   2.546  0.7996  1.4448 -0.5764
 3385TIP3   OH210095   8.373   7.001   2.263 -0.1960  0.2386 -0.3974
 3385TIP3    H110096   8.409   6.945   2.332 -0.0072  1.1441  0.2592
 3385TIP3    H210097   8.345   7.081   2.308  1.7047  1.6714 -1.5731
 3386TIP3   OH210098   5.753   2.669   2.481  0.2245 -0.4784 -0.5980
 3386TIP3    H110099   5.801   2.713   2.550 -1.8211  2.3317 -0.7817
 3386TIP3    H210100   5.814   2.662   2.408  1.4523 -0.6217  0.4216
 3387TIP3   OH210101   7.021   3.441   4.072  0.4444  0.0797 -0.1394
 3387TIP3    H110102   6.978   3.422   4.155  1.5596  1.1516  0.7234
 3387TIP3    H210103   6.953   3.430   4.006  0.0537 -2.9035  0.6522
 3388TIP3   OH210104   4.259   5.613   1.593 -0.1856  0.0368 -0.1608
 3388TIP3    H110105   4.319   5.624   1.519  1.4731 -1.8636  0.8110
 3388TIP3    H210106   4.316   5.601   1.668 -1.8328  0.6270  1.2506
 3389TIP3   OH210107   6.322   5.616   5.029 -0.1012 -0.3730 -0.6100
 3389TIP3    H110108   6.384   5.645   5.096 -0.3972  0.4200 -0.6642
 3389TIP3    H210109   6.259   5.562   5.076  1.0843 -1.8811 -0.7005
 3390TIP3   OH210110   6.021   1.828   3.737 -0.0285 -0.1701 -0.1574
 3390TIP3    H110111   6.003   1.922   3.736  0.5800  0.1327  3.1633
 3390TIP3    H210112   6.114   1.820   3.718  0.4171  0.1988  1.6345
 3391TIP3   OH210113   1.769   5.605   4.815  0.1430 -0.3476 -0.0028
 3391TIP3    H110114   1.845   5.566   4.860 -0.0482 -1.1073 -0.3199
 3391TIP3    H210115   1.762   5.556   4.733 -0.4921 -0.0620 -0.1249
 3392TIP3   OH210116   7.511   5.233   0.089 -0.0051  0.4286  0.4013
 3392TIP3    H110117   7.529   5.314   0.040  0.4916  1.8922  2.8665
 3392TIP3    H210118   7.445   5.257   0.153 -1.4275 -1.7059 -0.1549
 3393TIP3   OH210119   1.631   0.688   0.741  0.0046 -0.5581 -0.2004
 3393TIP3    H110120   1.619   0.782   0.729 -0.2906 -0.5713 -0.0106
 3393TIP3    H210121   1.726   0.676   0.734  0.4832  0.2484  2.9594
 3394TIP3   OH210122   1.872   3.468   2.832  0.5492  0.3728  0.0736
 3394TIP3    H110123   1.779   3.464   2.853  0.2123  0.9950 -1.2161
 3394TIP3    H210124   1.876   3.456   2.737  1.8651 -0.6099  0.2156
 3395TIP3   OH210125   7.003   4.330   5.676 -0.3228  0.1943  0.1936
 3395TIP3    H110126   7.073   4.395   5.682 -1.3891  1.8696 -3.1089
 3395TIP3    H210127   7.038   4.262   5.620 -1.0197  0.6369 -0.7982
 3396TIP3   OH210128   3.270   0.416   3.831 -0.0014 -0.0966 -0.2997
 3396TIP3    H110129   3.331   0.382   3.896 -2.4464 -1.2175  1.5553
 3396TIP3    H210130   3.249   0.341   3.775 -1.4479 -0.3894  0.5822
 3397TIP3   OH210131   6.735   1.787   0.811 -0.3949 -0.8080 -0.4658
 3397TIP3    H110132   6.802   1.849   0.783 -1.0473  0.3187  0.3864
 3397TIP3    H210133   6.780   1.702   0.813  0.4111 -0.4431 -1.9951
 3398TIP3   OH210134   7.515   4.933   5.358 -0.0240 -0.3653 -0.0807
 3398TIP3    H110135   7.556   4.939   5.444  0.3967 -0.1245 -0.2946
 3398TIP3    H210136   7.579   4.885   5.304 -0.4982 -0.9591 -0.1294
 3399TIP3   OH210137   6.852   6.500   6.457  0.0075 -0.1556  0.1669
 3399TIP3    H110138   6.930   6.535   6.412  0.0020  0.7850  0.8687
 3399TIP3    H210139   6.881   6.417   6.493  0.2870 -0.4721 -0.7591
 3400TIP3   OH210140   0.821   1.063   6.659  0.2371  0.6730  0.3471
 3400TIP3    H110141   0.737   1.025   6.686  1.1544 -1.5332  0.2638
 3400TIP3    H210142   0.800   1.111   6.579 -1.1095  0.9454  0.8363
 3401TIP3   OH210143   2.615   2.762   0.656 -0.3082 -0.2642 -0.2995
 3401TIP3    H110144   2.628   2.702   0.730  0.8553 -1.5106 -1.4667
 3401TIP3    H210145   2.692   2.749   0.600 -0.6597  1.4007 -1.2377
 3402TIP3   OH210146   3.367   5.745   4.929 -0.5899 -0.1916  1.1508
 3402TIP3    H110147   3.327   5.660   4.947 -1.2359 -0.4044 -1.0070
 3402TIP3    H210148   3.383   5.744   4.834 -0.5439  2.0727  1.0870
 3403TIP3   OH210149   4.327   7.858   3.780  0.2278  0.1836 -0.1114
 3403TIP3    H110150   4.291   7.872   3.867  1.4994  0.9955  0.3102
 3403TIP3    H210151   4.410   7.813   3.795  1.1243  1.5285 -0.7690
 3404TIP3   OH210152   6.416   1.835   1.038 -0.0525  0.4477  0.0654
 3404TIP3    H110153   6.468   1.762   1.071 -1.4566 -0.9949 -0.7458
 3404TIP3    H210154   6.464   1.913   1.064  2.3835 -0.7937 -0.4919
 3405TIP3   OH210155   6.613   7.478   3.990  0.1645 -0.2718 -0.0851
 3405TIP3    H110156   6.676   7.482   3.918  0.7602 -0.0316  0.4355
 3405TIP3    H210157   6.604   7.569   4.019 -0.7007 -0.2531 -0.3836
 3406TIP3   OH210158   7.188   6.582   3.516 -0.6821  0.0734  0.6178
 3406TIP3    H110159   7.198   6.496   3.475 -0.6667  0.8678 -1.1465
 3406TIP3    H210160   7.100   6.581   3.553 -1.5306 -0.0011 -1.2648
 3407TIP3   OH210161   1.475   3.320   4.034  0.6290  0.5284 -0.0967
 3407TIP3    H110162   1.521   3.250   3.988  2.1946  1.1433  0.4710
 3407TIP3    H210163   1.388   3.284   4.051  1.1278 -0.9661 -0.5312
 3408TIP3   OH210164   6.794   6.595   3.292 -0.5184  0.0037 -0.2934
 3408TIP3    H110165   6.812   6.558   3.378  0.5630 -0.5311 -0.7268
 3408TIP3    H210166   6.767   6.685   3.309  1.0047  0.3355  0.5569
 3409TIP3   OH210167   7.344   1.977   5.981 -0.1888  0.5539  0.2048
 3409TIP3    H110168   7.262   1.957   6.027 -0.2562 -0.9699 -0.5284
 3409TIP3    H210169   7.319   2.043   5.916 -0.8117  0.2006  0.0807
 3410TIP3   OH210170   5.800   6.962   5.225 -0.3796  0.4216  0.0101
 3410TIP3    H110171   5.711   6.937   5.251 -0.2162  0.1625  0.3191
 3410TIP3    H210172   5.832   6.888   5.174 -0.1678  0.3168  0.2968
 3411TIP3   OH210173   7.419   2.326   0.063 -0.5607  0.2194 -0.0749
 3411TIP3    H110174   7.404   2.232   0.074 -0.7876  0.1862 -0.6014
 3411TIP3    H210175   7.485   2.332  -0.007 -2.1513  0.4834 -1.6247
 3412TIP3   OH210176   3.986   3.684   2.045  0.0528  0.1975  0.1239
 3412TIP3    H110177   3.972   3.634   1.965 -0.2977 -0.2235  0.4437
 3412TIP3    H210178   4.064   3.737   2.027  0.5931 -0.6613 -0.1262
 3413TIP3   OH210179   6.993   2.343   4.166 -0.0169 -0.0081  0.0933
 3413TIP3    H110180   7.049   2.277   4.205 -0.7507 -0.4678  0.3988
 3413TIP3    H210181   6.904   2.319   4.194 -0.3674  0.7034 -0.3618
 3414TIP3   OH210182   6.050   1.144   3.698  0.0545 -0.0088  0.5125
 3414TIP3    H110183   5.995   1.202   3.750  0.0164 -0.5419  1.0737
 3414TIP3    H210184   6.140   1.175   3.716  0.1566 -1.0893  2.0584
 3415TIP3   OH210185   4.720   6.800   6.353  0.8408  0.0598  0.3158
 3415TIP3    H110186   4.687   6.718   6.316  0.3478  0.5668 -0.4015
 3415TIP3    H210187   4.670   6.812   6.434  0.1780  0.1703 -0.1045
 3416TIP3   OH210188   6.936   1.378   4.255  0.3285 -0.6376 -0.3706
 3416TIP3    H110189   7.008   1.394   4.194 -0.4269  2.1267 -0.6461
 3416TIP3    H210190   6.857   1.381   4.201 -0.3306  1.5629  0.6044
 3417TIP3   OH210191   0.749   1.625   2.197  0.4146  0.2696 -0.4912
 3417TIP3    H110192   0.661   1.629   2.235 -0.8027  0.6322 -3.0879
 3417TIP3    H210193   0.770   1.532   2.196  0.4679  0.2460  0.9359
 3418TIP3   OH210194   3.599   6.185   6.549  0.3291  0.4195 -0.0764
 3418TIP3    H110195   3.681   6.233   6.562 -0.3630  1.6478 -0.1390
 3418TIP3    H210196   3.608   6.147   6.462  2.5677 -3.0400  1.4199
 3419TIP3   OH210197   5.446   2.042   3.341 -0.3261  0.6986 -0.5623
 3419TIP3    H110198   5.393   2.088   3.276  3.1981  0.9246 -3.6140
 3419TIP3    H210199   5.496   2.111   3.384  1.3644  0.1806 -1.6204
 3420TIP3   OH210200   2.063   3.256   5.312 -0.1957 -0.0995  0.2145
 3420TIP3    H110201   2.051   3.317   5.239  0.6383 -0.6104 -0.3680
 3420TIP3    H210202   2.112   3.304   5.378 -0.3939  0.1650  0.1680
 3421TIP3   OH210203   1.994   5.528   2.327  0.5904  0.2696 -0.3125
 3421TIP3    H110204   2.061   5.460   2.322  1.4336  0.9862  0.8246
 3421TIP3    H210205   2.029   5.601   2.275  1.2974  1.1133  1.2935
 3422TIP3   OH210206   1.553   6.418   0.391  0.0631  0.6136  0.6295
 3422TIP3    H110207   1.562   6.392   0.483  1.7465  1.0342  0.6163
 3422TIP3    H210208   1.541   6.335   0.344  0.8924  0.2254  1.0657
 3423TIP3   OH210209   4.891   6.740   3.193  0.1021  0.4513  0.0685
 3423TIP3    H110210   4.971   6.722   3.243 -0.8304 -0.4014  1.2971
 3423TIP3    H210211   4.832   6.668   3.216 -1.0066  1.0388 -0.8712
 3424TIP3   OH210212   3.700   1.057   1.880  0.1905  0.5165 -0.2293
 3424TIP3    H110213   3.749   1.131   1.915  2.6311 -1.2482  0.4089
 3424TIP3    H210214   3.734   1.046   1.791  0.2980 -0.1806 -0.1073
 3425TIP3   OH210215   3.830   7.116   6.276 -0.5015 -0.6537 -0.3207
 3425TIP3    H110216   3.889   7.104   6.202  0.2500 -2.8871  0.5315
 3425TIP3    H210217   3.765   7.046   6.266  1.1657 -2.8578  2.4239
 3426TIP3   OH210218   0.264   2.748   4.710 -0.1259 -0.2437 -0.1372
 3426TIP3    H110219   0.242   2.777   4.799 -0.0127 -0.8786  0.1006
 3426TIP3    H210220   0.199   2.680   4.690  0.4548 -0.8013 -0.1573
 3427TIP3   OH210221   7.727   2.241   4.551  0.3463  0.5356 -0.1032
 3427TIP3    H110222   7.646   2.289   4.569  0.6975  1.8803 -1.7832
 3427TIP3    H210223   7.706   2.190   4.472  0.5825 -0.5757  0.5399
 3428TIP3   OH210224   2.252   7.569   0.460 -0.3288  0.7973 -0.0066
 3428TIP3    H110225   2.189   7.629   0.421 -0.4885  0.4373 -0.3074
 3428TIP3    H210226   2.207   7.534   0.537 -0.7319  0.0801 -0.5617
 3429TIP3   OH210227   6.985   4.133   6.872 -0.2160  0.2044 -0.1527
 3429TIP3    H110228   7.007   4.185   6.795  1.1780  0.2817  0.2823
 3429TIP3    H210229   6.895   4.105   6.856 -0.1280  0.6384 -1.5663
 3430TIP3   OH210230   0.250   4.499   0.845 -0.0007  0.5509 -0.6346
 3430TIP3    H110231   0.308   4.487   0.920  1.1680  0.9395 -1.4555
 3430TIP3    H210232   0.172   4.541   0.882  0.5544  0.7431  0.3542
 3431TIP3   OH210233   5.478   3.512   4.480  0.2405  0.0470  0.1671
 3431TIP3    H110234   5.529   3.550   4.551 -0.0245  0.0772  0.3450
 3431TIP3    H210235   5.538   3.452   4.436  0.4500  0.1411  0.3240
 3432TIP3   OH210236   2.760   2.980   4.851  0.1870 -0.6142  0.7625
 3432TIP3    H110237   2.855   2.963   4.853  0.0954 -1.9545 -1.8658
 3432TIP3    H210238   2.733   2.954   4.763 -2.8315 -1.3554  1.7818
 3433TIP3   OH210239   5.032   6.932   1.718 -0.2704 -0.5246 -0.6834
 3433TIP3    H110240   5.096   7.000   1.741  0.3394 -1.0672 -0.7277
 3433TIP3    H210241   5.060   6.856   1.770 -0.5419 -0.9367 -1.1398
 3434TIP3   OH210242   6.145   4.438   0.938  0.3358 -0.1002 -0.2803
 3434TIP3    H110243   6.173   4.391   0.859  0.6464 -0.0880 -0.1799
 3434TIP3    H210244   6.094   4.512   0.905  1.2194  0.4193 -0.5195
 3435TIP3   OH210245   1.412   7.721   1.703  0.3937 -0.4055 -0.4077
 3435TIP3    H110246   1.363   7.684   1.629  0.8572  0.9375 -1.4342
 3435TIP3    H210247   1.407   7.815   1.690  1.4605 -0.1807  0.6551
 3436TIP3   OH210248   4.359   4.080   4.306  0.6551 -0.3692 -0.1836
 3436TIP3    H110249   4.379   4.174   4.317  0.3364 -0.0210 -2.2339
 3436TIP3    H210250   4.355   4.046   4.396  1.6928  1.3798  0.5795
 3437TIP3   OH210251   2.301   5.963   5.336  0.2530 -0.0172  0.6590
 3437TIP3    H110252   2.335   5.874   5.321  0.7538  0.0825  1.1969
 3437TIP3    H210253   2.207   5.951   5.346 -0.0142 -0.2237 -1.5157
 3438TIP3   OH210254   6.623   7.617   6.243  0.5609  0.0188 -0.3565
 3438TIP3    H110255   6.707   7.572   6.233  0.8720  0.0231  1.7574
 3438TIP3    H210256   6.566   7.552   6.285 -0.2111  0.3344 -0.8922
 3439TIP3   OH210257   4.360   1.917   3.865 -0.2975 -0.6483 -0.9472
 3439TIP3    H110258   4.442   1.965   3.871  0.1422 -1.5463  1.0635
 3439TIP3    H210259   4.386   1.826   3.850 -1.0032 -0.7064 -1.8996
 3440TIP3   OH210260   6.261   0.630   5.164 -0.3171 -0.2299  0.4646
 3440TIP3    H110261   6.353   0.655   5.155 -0.5913  0.5430 -0.3484
 3440TIP3    H210262   6.213   0.697   5.116 -1.4863  0.5358  2.5698
 3441TIP3   OH210263   5.121   2.408   4.727  0.1244  0.8252  0.0179
 3441TIP3    H110264   5.116   2.499   4.698 -0.3274  0.9307  0.4230
 3441TIP3    H210265   5.196   2.407   4.788 -0.6811  1.2190  1.0411
 3442TIP3   OH210266   4.419   3.555   5.313  0.3115 -0.3415  0.5217
 3442TIP3    H110267   4.413   3.468   5.274 -0.2668 -0.8339  1.6565
 3442TIP3    H210268   4.352   3.606   5.268 -1.6910 -1.4282  2.1076
 3443TIP3   OH210269   1.128   7.755   2.533 -0.6110  0.1437  0.4684
 3443TIP3    H110270   1.066   7.730   2.464  0.4971 -0.5034 -0.3153
 3443TIP3    H210271   1.139   7.676   2.585 -0.2835  0.2022  0.4850
 3444TIP3   OH210272   3.027   6.781   5.174  0.3127 -0.1028 -0.1754
 3444TIP3    H110273   3.094   6.740   5.119  0.8666  0.8111 -0.1983
 3444TIP3    H210274   3.022   6.871   5.142 -0.0806  0.1613  0.6132
 3445TIP3   OH210275   4.256   5.991   0.331 -0.4130 -0.2806 -0.5768
 3445TIP3    H110276   4.170   5.992   0.288 -0.7004 -0.7583 -0.0093
 3445TIP3    H210277   4.281   6.083   0.334 -1.2339 -0.0583 -0.0982
 3446TIP3   OH210278   1.636   6.150   2.763  0.2515 -0.1847  0.0844
 3446TIP3    H110279   1.637   6.243   2.785  0.9629 -0.5204  1.5470
 3446TIP3    H210280   1.549   6.120   2.788 -0.2382  0.2322 -1.0794
 3447TIP3   OH210281   5.507   3.910   3.814 -0.5489 -0.3491 -0.0039
 3447TIP3    H110282   5.484   3.824   3.779 -2.7781  0.0522  0.3207
 3447TIP3    H210283   5.502   3.900   3.909  1.2452 -0.3442  0.1277
 3448TIP3   OH210284   6.691   7.196   5.298  0.5813  0.2526 -0.8936
 3448TIP3    H110285   6.637   7.247   5.358  0.2868  0.8926 -1.6745
 3448TIP3    H210286   6.757   7.155   5.353  0.2864  0.7826 -0.1314
 3449TIP3   OH210287   7.075   3.799   1.429 -0.8005  0.3395 -0.1753
 3449TIP3    H110288   7.115   3.712   1.425 -0.2161  0.6451 -1.6438
 3449TIP3    H210289   7.110   3.838   1.510  1.8348  0.5298 -1.3082
 3450TIP3   OH210290   5.196   7.315   2.110  0.0015 -0.5511  0.2076
 3450TIP3    H110291   5.146   7.371   2.050  2.7481  1.7944 -0.1299
 3450TIP3    H210292   5.169   7.344   2.197 -0.8560 -0.9249  0.0768
 3451TIP3   OH210293   0.844   7.422   5.137  0.5730  1.3066 -0.0590
 3451TIP3    H110294   0.920   7.439   5.082  0.9520 -1.3121 -0.4886
 3451TIP3    H210295   0.880   7.375   5.213 -0.4016  1.6663  0.6440
 3452TIP3   OH210296   1.246   1.402   2.055 -0.1617  0.0054 -0.5840
 3452TIP3    H110297   1.202   1.482   2.026 -0.8933 -0.4761 -0.8388
 3452TIP3    H210298   1.312   1.385   1.988  1.6844  1.7159  0.7080
 3453TIP3   OH210299   2.228   3.912   5.408 -0.0026  0.1506 -0.5353
 3453TIP3    H110300   2.300   3.934   5.466 -1.0363  1.2532  0.4025
 3453TIP3    H210301   2.240   3.969   5.332 -0.8836  1.7699  0.4665
 3454TIP3   OH210302   4.310   6.680   0.640 -0.0867 -0.0175  0.7525
 3454TIP3    H110303   4.378   6.652   0.702  1.2385  0.1808 -0.5548
 3454TIP3    H210304   4.292   6.602   0.587 -0.0440  0.2280  0.3687
 3455TIP3   OH210305   5.964   6.236   0.254  0.4191  0.2186 -0.5522
 3455TIP3    H110306   6.054   6.217   0.282 -0.5452 -1.7645  1.5864
 3455TIP3    H210307   5.930   6.152   0.223 -1.0481  0.6397 -0.1745
 3456TIP3   OH210308   4.644   7.872   3.228 -0.2786  0.5415  0.5368
 3456TIP3    H110309   4.559   7.883   3.272  0.0560 -0.6722  1.5484
 3456TIP3    H210310   4.688   7.956   3.239 -1.0487  0.9419  0.6554
 3457TIP3   OH210311   4.007   2.024   3.007  0.1761 -0.6091 -0.1501
 3457TIP3    H110312   4.095   2.045   3.040  0.6827  0.5011 -2.0449
 3457TIP3    H210313   4.016   1.935   2.972  0.5648 -0.4724 -0.4049
 3458TIP3   OH210314   6.074   5.136   0.551  0.8481  0.2765  0.5018
 3458TIP3    H110315   6.096   5.112   0.641  3.0329  0.6360  0.1232
 3458TIP3    H210316   6.117   5.220   0.538 -0.0818  0.5961 -0.6559
 3459TIP3   OH210317   0.657   6.897   0.316  0.1858 -0.6290  0.1756
 3459TIP3    H110318   0.638   6.991   0.321 -2.8213 -1.1143 -0.1154
 3459TIP3    H210319   0.691   6.884   0.228  1.2320  0.2564  0.4344
 3460TIP3   OH210320   2.789   1.139   2.528  0.6279  0.0679  0.6661
 3460TIP3    H110321   2.755   1.140   2.438  0.6651  0.6157  0.6519
 3460TIP3    H210322   2.843   1.217   2.533  0.1591  0.3601  1.3400
 3461TIP3   OH210323   3.683   2.510   5.616 -0.1768 -0.2338 -0.4257
 3461TIP3    H110324   3.656   2.579   5.677  1.5086 -0.9456  1.2267
 3461TIP3    H210325   3.665   2.428   5.663  0.2619 -0.8437 -1.2852
 3462TIP3   OH210326   6.488   7.183   6.289  0.3028 -0.4917  0.2544
 3462TIP3    H110327   6.533   7.126   6.351 -0.1080 -1.6261 -0.4754
 3462TIP3    H210328   6.501   7.142   6.204 -3.1423 -1.6124  0.1259
 3463TIP3   OH210329   3.583   2.038   3.188  0.0988 -0.1195 -0.1118
 3463TIP3    H110330   3.508   2.029   3.248  1.5092  1.5867  2.0660
 3463TIP3    H210331   3.552   2.098   3.121 -1.0930 -0.9817 -0.3643
 3464TIP3   OH210332   1.899   0.631   5.845  0.1640  0.1605  0.3608
 3464TIP3    H110333   1.877   0.686   5.921  0.1405  0.3048  0.2505
 3464TIP3    H210334   1.993   0.645   5.832  0.0704  0.5244  0.0582
 3465TIP3   OH210335   6.159   6.852   5.068  0.1345 -0.2125  0.2431
 3465TIP3    H110336   6.086   6.801   5.103  0.7489 -1.6491 -0.4827
 3465TIP3    H210337   6.237   6.813   5.108  0.6397  0.0454 -0.4629
 3466TIP3   OH210338   4.403   1.752  -0.007 -0.3459  0.2816 -0.5645
 3466TIP3    H110339   4.425   1.661   0.015 -1.4712 -0.2450 -1.5186
 3466TIP3    H210340   4.439   1.803   0.066  0.3853 -0.9105 -0.0521
 3467TIP3   OH210341   5.943   4.953   1.034 -0.2113  0.2460 -0.3591
 3467TIP3    H110342   5.930   5.005   1.113  1.2171 -0.8906  0.6783
 3467TIP3    H210343   5.855   4.931   1.004 -0.7747  1.0920  0.6463
 3468TIP3   OH210344   3.103   3.717   1.079 -0.3532  0.2398 -0.9642
 3468TIP3    H110345   3.170   3.686   1.141 -2.0419 -1.5192  0.1458
 3468TIP3    H210346   3.105   3.653   1.008 -1.2782 -0.2367 -0.5792
 3469TIP3   OH210347   1.314   7.138   3.927 -0.6011  0.0988  0.1553
 3469TIP3    H110348   1.278   7.170   3.844  1.0173 -1.3076 -1.1646
 3469TIP3    H210349   1.240   7.096   3.970 -1.0437 -1.0263 -1.5843
 3470TIP3   OH210350   0.612   5.179   1.207 -0.1856  0.4811  0.5346
 3470TIP3    H110351   0.592   5.238   1.280 -0.3391  0.8645  0.1873
 3470TIP3    H210352   0.538   5.191   1.146  0.2820  0.6835 -0.0012
 3471TIP3   OH210353   4.749   1.359   1.185 -0.5439 -0.2152  0.4190
 3471TIP3    H110354   4.672   1.393   1.140  1.2107  1.6781 -1.3260
 3471TIP3    H210355   4.756   1.268   1.155  0.0188  0.7099 -2.5667
 3472TIP3   OH210356   6.128   1.870   4.506  0.6045  0.4940  0.8521
 3472TIP3    H110357   6.194   1.858   4.574 -0.4430  0.8804  1.9922
 3472TIP3    H210358   6.055   1.814   4.534  0.6927 -0.4776 -0.7462
 3473TIP3   OH210359   5.984   0.721   6.667  0.1022  0.0981 -0.3249
 3473TIP3    H110360   6.053   0.660   6.640 -0.4536 -0.6865  0.0143
 3473TIP3    H210361   6.030   0.804   6.683  0.6848  0.1430 -2.0526
 3474TIP3   OH210362   6.298   7.063   1.466  0.1945 -0.4003 -0.7878
 3474TIP3    H110363   6.311   7.156   1.486  2.7914 -0.9917  0.6737
 3474TIP3    H210364   6.272   7.023   1.549  2.0315 -1.4152 -0.6567
 3475TIP3   OH210365   3.948   4.941   6.188  0.2891  0.1392  0.2990
 3475TIP3    H110366   3.994   4.940   6.104 -1.6054 -2.9431 -0.8756
 3475TIP3    H210367   4.013   4.910   6.251  0.6850 -1.3847 -0.7964
 3476TIP3   OH210368   3.000   4.378   4.294 -0.4501 -0.1171  0.1341
 3476TIP3    H110369   3.043   4.318   4.232 -0.2575  0.2801 -0.1200
 3476TIP3    H210370   2.965   4.448   4.239 -1.0964 -0.2401  0.3833
 3477TIP3   OH210371   6.247   2.497   5.038 -0.8120 -0.0855  0.0142
 3477TIP3    H110372   6.175   2.496   5.101 -0.8769  0.3482 -0.0517
 3477TIP3    H210373   6.314   2.551   5.080 -0.2317 -1.0886  0.3957
 3478TIP3   OH210374   2.240   6.108   2.850  0.3773  0.6137 -0.1727
 3478TIP3    H110375   2.214   6.039   2.789 -1.3791  0.5735  0.5709
 3478TIP3    H210376   2.261   6.183   2.795 -0.0437  0.2195 -0.8754
 3479TIP3   OH210377   2.983   1.020   2.682  0.1263  0.0772 -0.7179
 3479TIP3    H110378   2.987   1.071   2.763 -1.6353 -1.4367  0.4108
 3479TIP3    H210379   2.902   1.048   2.640  0.0287 -0.5586 -0.9615
 3480TIP3   OH210380   6.910   1.993   4.003 -0.2981 -0.7248  0.4796
 3480TIP3    H110381   6.816   1.994   3.984 -0.5432  0.3181  1.6057
 3480TIP3    H210382   6.952   2.010   3.919 -1.0442 -2.2975 -0.2623
 3481TIP3   OH210383   6.056   0.344   5.538 -0.3722 -0.1433 -0.4355
 3481TIP3    H110384   5.979   0.340   5.481 -0.3169  0.8171 -0.5942
 3481TIP3    H210385   6.130   0.357   5.477  0.0541 -1.9408 -0.3691
 3482TIP3   OH210386   1.568   0.127   1.383  0.4200  0.0245  0.3031
 3482TIP3    H110387   1.647   0.163   1.423  0.5557  1.8567 -1.5154
 3482TIP3    H210388   1.497   0.159   1.439  0.7900  0.2480  0.6548
 3483TIP3   OH210389   1.626   1.503   0.937  0.3061  0.0785  0.0037
 3483TIP3    H110390   1.714   1.535   0.916 -1.0275  4.8924  0.5611
 3483TIP3    H210391   1.630   1.484   1.031  0.6247  0.7667  0.1345
 3484TIP3   OH210392   6.401   1.061   2.094  0.3294 -0.0574 -0.2102
 3484TIP3    H110393   6.305   1.062   2.095  0.3260  0.8473  1.2207
 3484TIP3    H210394   6.426   1.046   2.185  1.5689 -1.6775 -0.7676
 3485TIP3   OH210395   3.785   4.987   2.713 -0.3332  0.2684  0.4476
 3485TIP3    H110396   3.702   5.035   2.716  0.3891  1.5545  1.3681
 3485TIP3    H210397   3.824   5.003   2.799  0.7119 -0.5920  0.1502
 3486TIP3   OH210398   8.247   4.031   2.513 -0.1798  0.0382  0.2241
 3486TIP3    H110399   8.254   4.090   2.439  1.3656 -0.2595  0.0982
 3486TIP3    H210400   8.156   4.038   2.541 -0.6534  0.5397 -1.3666
 3487TIP3   OH210401   5.316   3.249   4.645 -0.2108  0.5901 -0.3967
 3487TIP3    H110402   5.283   3.201   4.721  0.0513  1.0644  0.0242
 3487TIP3    H210403   5.369   3.319   4.683 -1.0327  1.5411 -0.9757
 3488TIP3   OH210404   5.390   6.372   0.584  0.3515 -0.3678 -0.0631
 3488TIP3    H110405   5.299   6.392   0.561  0.4150 -1.7462 -1.7217
 3488TIP3    H210406   5.433   6.356   0.500  2.3411  0.9908  0.6336
 3489TIP3   OH210407   7.640   4.376   4.503 -0.1228 -0.4291  0.3009
 3489TIP3    H110408   7.717   4.433   4.502  0.0061 -0.6014  0.3467
 3489TIP3    H210409   7.606   4.380   4.414  0.5977 -1.2393 -0.0237
 3490TIP3   OH210410   2.556   4.252   1.211  0.5016  0.1147 -0.1712
 3490TIP3    H110411   2.477   4.199   1.219  0.1769  0.5880 -0.1960
 3490TIP3    H210412   2.597   4.249   1.297 -0.2809  1.0083  0.2436
 3491TIP3   OH210413   7.660   3.347   2.304 -0.3764 -0.1007 -0.2285
 3491TIP3    H110414   7.719   3.388   2.241 -0.4808 -0.8050 -0.8016
 3491TIP3    H210415   7.588   3.313   2.250 -1.2180  0.5893  0.4376
 3492TIP3   OH210416   1.544   2.071   4.652  0.0455 -0.1361 -0.3793
 3492TIP3    H110417   1.628   2.072   4.697  1.2521  2.0322 -2.4583
 3492TIP3    H210418   1.547   1.993   4.597  0.4729 -0.3407 -0.0690
 3493TIP3   OH210419   0.932   2.573   6.516 -0.4080 -0.6094  0.4094
 3493TIP3    H110420   1.014   2.526   6.528 -0.2964 -0.1475  1.5429
 3493TIP3    H210421   0.913   2.613   6.601 -1.3578  0.0137 -0.0646
 3494TIP3   OH210422   2.627   7.130   2.754 -0.5292  0.0552  0.2896
 3494TIP3    H110423   2.592   7.171   2.833 -0.2117  0.6527  0.1291
 3494TIP3    H210424   2.657   7.044   2.783  3.0479  1.5869  1.7310
 3495TIP3   OH210425   4.802   6.998   4.413 -0.1862 -0.2933  0.2531
 3495TIP3    H110426   4.709   6.981   4.429  0.0409 -2.9059 -0.7996
 3495TIP3    H210427   4.848   6.938   4.471  0.9264  1.2896  1.1011
 3496TIP3   OH210428   7.976   1.861   1.658  0.1529  0.3287  0.3718
 3496TIP3    H110429   8.061   1.897   1.631 -0.0208 -0.9285 -2.2321
 3496TIP3    H210430   7.980   1.769   1.630 -2.2673  0.3896 -0.3771
 3497TIP3   OH210431   5.119   2.952   3.010  0.1438 -0.3178 -0.5082
 3497TIP3    H110432   5.039   2.904   2.990 -0.4681 -0.0465  1.1823
 3497TIP3    H210433   5.154   2.911   3.089 -0.0043  1.4803  0.5540
 3498TIP3   OH210434   3.996   2.319   5.996  0.3723  0.0904 -0.6178
 3498TIP3    H110435   4.002   2.227   6.022  1.9260  0.7181  1.6141
 3498TIP3    H210436   4.080   2.356   6.022 -1.5538  2.9698  2.2378
 3499TIP3   OH210437   1.875   5.345   4.932  0.4018  0.7935 -0.0415
 3499TIP3    H110438   1.897   5.270   4.988  1.5402 -0.9546 -2.6706
 3499TIP3    H210439   1.786   5.370   4.960 -0.4394 -2.1925  0.2625
 3500TIP3   OH210440   1.191   1.372   5.708 -0.4449  0.2448 -0.0602
 3500TIP3    H110441   1.110   1.422   5.720  0.5052  2.3116 -1.6547
 3500TIP3    H210442   1.189   1.344   5.617 -0.0459 -1.0752  0.3057
 3501TIP3   OH210443   1.287   1.411   6.714 -0.0911 -0.1798  0.3169
 3501TIP3    H110444   1.360   1.375   6.764 -0.3461 -1.1072  0.0251
 3501TIP3    H210445   1.290   1.505   6.732 -1.1350 -0.6159  3.3844
 3502TIP3   OH210446   7.773   1.432   4.819  0.3758  0.0226 -0.2229
 3502TIP3    H110447   7.725   1.358   4.857  0.7563 -0.2574 -0.2750
 3502TIP3    H210448   7.717   1.463   4.747 -0.1652  0.3068  0.3137
 3503TIP3   OH210449   1.475   4.020   1.696  0.4307  0.4508  0.1952
 3503TIP3    H110450   1.406   3.955   1.679 -0.5292  1.4967 -0.0279
 3503TIP3    H210451   1.526   4.023   1.615 -0.7129  1.3643 -0.5212
 3504TIP3   OH210452   2.192   7.875   4.714  0.1625 -0.3983  0.6050
 3504TIP3    H110453   2.256   7.912   4.776  1.3737 -1.7497  0.2266
 3504TIP3    H210454   2.217   7.911   4.629  0.4009 -0.8904  0.4633
 3505TIP3   OH210455   1.982   2.827   5.557 -0.0295  0.4356 -0.7454
 3505TIP3    H110456   2.055   2.885   5.534  1.2949 -1.0868 -0.6023
 3505TIP3    H210457   1.904   2.871   5.524  0.6352  3.2865  1.1665
 3506TIP3   OH210458   0.615   4.772   4.251  0.3326 -0.1610  0.8195
 3506TIP3    H110459   0.546   4.821   4.295  0.6212  0.5690  0.4771
 3506TIP3    H210460   0.689   4.832   4.249  0.6675 -0.5850  0.3179
 3507TIP3   OH210461   0.150   0.846   6.196 -0.0364  0.0522  0.2030
 3507TIP3    H110462   0.196   0.921   6.160  0.7364 -0.7245 -0.4779
 3507TIP3    H210463   0.060   0.855   6.163  0.2918  0.1668 -0.7022
 3508TIP3   OH210464   2.231   0.913   0.833 -0.0724  0.1581 -0.0323
 3508TIP3    H110465   2.172   0.907   0.758 -0.2292  0.0616  0.1004
 3508TIP3    H210466   2.286   0.834   0.826 -1.6934 -1.1492  1.3331
 3509TIP3   OH210467   4.117   1.728   6.587 -0.1887 -0.0842  0.1478
 3509TIP3    H110468   4.128   1.820   6.609  0.0424 -0.2469  0.7220
 3509TIP3    H210469   4.190   1.708   6.528 -1.1989  0.5323 -1.4044
 3510TIP3   OH210470   5.173   0.595   5.395  0.6276  0.6799 -0.1684
 3510TIP3    H110471   5.164   0.596   5.300 -2.1696 -1.5543 -0.0565
 3510TIP3    H210472   5.264   0.572   5.410  1.0122  0.5976 -2.3126
 3511TIP3   OH210473   2.435   2.678   0.424 -0.6648  0.4112 -0.4984
 3511TIP3    H110474   2.440   2.714   0.512 -1.6026  0.7260 -0.5641
 3511TIP3    H210475   2.482   2.741   0.369  0.8897 -0.3276 -0.0939
 3512TIP3   OH210476   5.043   3.240   3.115 -0.2865  0.3497 -0.2192
 3512TIP3    H110477   4.973   3.175   3.119 -1.3136  1.4154 -0.1929
 3512TIP3    H210478   5.075   3.235   3.025 -0.7703  0.2134 -0.3869
 3513TIP3   OH210479   0.330   4.647   0.609 -0.3390 -0.0428  0.3530
 3513TIP3    H110480   0.373   4.727   0.641  4.2939 -1.6254 -1.1318
 3513TIP3    H210481   0.299   4.603   0.688 -1.1050  2.1549  1.3649
 3514TIP3   OH210482   7.361   2.974   5.973 -0.1596  0.1469 -0.2615
 3514TIP3    H110483   7.315   2.993   6.055  0.1905  0.5404 -0.1518
 3514TIP3    H210484   7.443   2.932   6.001 -1.4906 -2.9578 -0.5233
 3515TIP3   OH210485   7.839   0.140   3.919  0.4868 -0.0067  0.1662
 3515TIP3    H110486   7.807   0.088   3.846 -2.2573 -0.8588  1.8167
 3515TIP3    H210487   7.795   0.225   3.910  0.3156 -0.0357  0.6859
 3516TIP3   OH210488   7.588   1.304   6.609 -0.8048  0.1050 -0.6059
 3516TIP3    H110489   7.604   1.266   6.695 -1.4661  0.1347 -0.4653
 3516TIP3    H210490   7.493   1.310   6.603 -0.7462  0.5071 -1.1649
 3517TIP3   OH210491   0.169   1.918   2.710 -0.5099 -0.1710  0.5883
 3517TIP3    H110492   0.087   1.871   2.695 -0.4945 -1.0603  2.9863
 3517TIP3    H210493   0.230   1.851   2.741  0.4214  0.8894  1.1151
 3518TIP3   OH210494   2.733   7.210   5.521  0.1332  0.2492 -0.1918
 3518TIP3    H110495   2.811   7.202   5.575 -0.3167  1.4022  0.6839
 3518TIP3    H210496   2.735   7.301   5.490  1.4718 -0.8827 -3.8983
 3519TIP3   OH210497   5.766   2.494   6.754 -0.2884  0.2858  0.1736
 3519TIP3    H110498   5.748   2.478   6.662  0.0818  1.7317 -0.1771
 3519TIP3    H210499   5.705   2.563   6.779 -2.2329 -1.8165  1.7706
 3520TIP3   OH210500   0.885   2.356   6.348 -0.0232  0.2323 -0.4981
 3520TIP3    H110501   0.843   2.441   6.365 -0.6046 -0.1060 -0.2081
 3520TIP3    H210502   0.975   2.368   6.376 -0.4521  0.3330  0.9006
 3521TIP3   OH210503   7.818   7.355   5.957  0.2267  0.0317  0.1241
 3521TIP3    H110504   7.863   7.419   6.012 -0.3938 -0.6591  1.4788
 3521TIP3    H210505   7.828   7.272   6.004 -1.8439 -0.2687  0.0979
 3522TIP3   OH210506   3.409   1.619   5.119  0.0011 -0.4083 -0.2468
 3522TIP3    H110507   3.461   1.689   5.156  2.9608 -2.1705 -0.7483
 3522TIP3    H210508   3.346   1.597   5.187  0.4379  1.2437  0.7433
 3523TIP3   OH210509   2.578   6.519   3.805  0.0598 -0.0031 -0.2106
 3523TIP3    H110510   2.492   6.538   3.767  0.0925  0.4761 -0.0544
 3523TIP3    H210511   2.588   6.424   3.796 -0.7864 -0.1595  0.4163
 3524TIP3   OH210512   2.898   1.026   1.572  0.1112  0.4579  0.0972
 3524TIP3    H110513   2.906   0.952   1.512 -0.2935 -0.2403  0.8722
 3524TIP3    H210514   2.817   1.008   1.621  0.6977  0.7350  1.2068
 3525TIP3   OH210515   4.409   5.972   1.029  0.1278 -0.2735 -0.1151
 3525TIP3    H110516   4.332   5.957   1.084 -0.1618  0.2118 -0.3799
 3525TIP3    H210517   4.373   5.978   0.940  0.5912 -1.0697 -0.3670
 3526TIP3   OH210518   3.068   6.430   5.769  0.4752 -0.0892  0.4094
 3526TIP3    H110519   3.098   6.354   5.719 -1.6187 -1.5577  1.2297
 3526TIP3    H210520   3.107   6.418   5.856 -0.9055 -1.0076  0.9343
 3527TIP3   OH210521   1.308   3.587   5.077 -0.5415 -0.1238 -0.0050
 3527TIP3    H110522   1.348   3.502   5.098 -0.3207 -0.0255 -0.0254
 3527TIP3    H210523   1.214   3.570   5.078 -0.4709 -0.8134 -1.8401
 3528TIP3   OH210524   2.675   7.918   4.163  0.3565  0.4284 -0.1205
 3528TIP3    H110525   2.731   7.845   4.137  0.9545  1.2567 -1.2579
 3528TIP3    H210526   2.693   7.986   4.098 -0.8713  1.2560  0.3730
 3529TIP3   OH210527   6.496   2.151   0.404  0.1175  0.3082 -0.3397
 3529TIP3    H110528   6.495   2.086   0.334  0.2034 -1.8405  1.5399
 3529TIP3    H210529   6.559   2.116   0.468 -0.6285  1.7011  1.2317
 3530TIP3   OH210530   2.047   0.858   4.196  0.0759  0.0349  0.0909
 3530TIP3    H110531   2.066   0.837   4.288 -0.5387  1.2836  0.5308
 3530TIP3    H210532   2.106   0.802   4.146  1.6888  0.5875  1.2893
 3531TIP3   OH210533   6.277   1.761   3.611  0.1900 -0.3930 -0.4232
 3531TIP3    H110534   6.213   1.750   3.540 -1.2720 -1.7560  1.0113
 3531TIP3    H210535   6.304   1.672   3.632 -0.8552 -0.2245  1.9533
 3532TIP3   OH210536   6.665   6.638   6.634  0.4263  0.1255  0.5064
 3532TIP3    H110537   6.696   6.611   6.720 -0.9308  0.0945  1.0097
 3532TIP3    H210538   6.731   6.604   6.573  0.1844 -1.9758  1.3377
 3533TIP3   OH210539   2.401   3.968   6.667 -0.2661 -0.0106  0.6321
 3533TIP3    H110540   2.496   3.966   6.677 -0.2087 -1.4997  0.0988
 3533TIP3    H210541   2.368   3.997   6.752  0.6786  1.8434  0.4291
 3534TIP3   OH210542   3.440   1.080   1.869 -0.5106  0.6556 -0.6043
 3534TIP3    H110543   3.532   1.054   1.875 -0.5427  0.4750 -0.8541
 3534TIP3    H210544   3.440   1.174   1.887 -0.5413  0.2959  1.5525
 3535TIP3   OH210545   4.146   3.064   2.148 -0.5407  0.3698 -0.1780
 3535TIP3    H110546   4.074   3.117   2.179 -0.1150  1.3289 -0.7766
 3535TIP3    H210547   4.105   3.000   2.089 -1.1366 -0.4292  1.0786
 3536TIP3   OH210548   3.581   6.025   5.205  0.1306 -0.4030  0.2316
 3536TIP3    H110549   3.583   5.939   5.164 -0.0466 -0.0809 -0.4708
 3536TIP3    H210550   3.598   6.086   5.133  1.1260  0.1005  0.8838
 3537TIP3   OH210551   5.122   1.518   3.833  0.5636  0.0283 -0.2713
 3537TIP3    H110552   5.144   1.563   3.751  0.4222 -0.4299 -0.5640
 3537TIP3    H210553   5.084   1.435   3.805  1.1156 -0.4137  0.2696
 3538TIP3   OH210554   4.145   6.639   1.764 -0.0921 -0.4641  0.0800
 3538TIP3    H110555   4.236   6.654   1.789 -0.1819  0.5479 -0.1490
 3538TIP3    H210556   4.098   6.628   1.846 -0.5116  3.5354  0.5478
 3539TIP3   OH210557   4.786   6.094   3.486  0.0040 -0.0164  0.0274
 3539TIP3    H110558   4.853   6.158   3.514 -0.5673  0.3457  0.6055
 3539TIP3    H210559   4.707   6.147   3.473 -0.4747 -0.6027  0.5153
 3540TIP3   OH210560   7.177   0.179   1.688 -0.0785  0.1508  0.6426
 3540TIP3    H110561   7.108   0.183   1.622  0.8737  0.3856 -0.3705
 3540TIP3    H210562   7.133   0.202   1.770 -1.1116  0.7265 -0.0470
 3541TIP3   OH210563   3.241   4.572   0.321  0.6018  0.0341  0.2016
 3541TIP3    H110564   3.165   4.630   0.322  1.8283  1.7391  0.9358
 3541TIP3    H210565   3.210   4.489   0.357 -0.9419  0.6362  0.3032
 3542TIP3   OH210566   1.721   0.711   5.576  0.0085 -0.1565  0.1599
 3542TIP3    H110567   1.774   0.727   5.498  0.3273 -1.2534  0.1379
 3542TIP3    H210568   1.767   0.641   5.623 -0.3753  0.2366  1.1504
 3543TIP3   OH210569   1.035   3.574   6.216  0.2820  0.1642  0.4327
 3543TIP3    H110570   0.942   3.576   6.192  0.1041 -1.6568  0.8201
 3543TIP3    H210571   1.075   3.517   6.150  0.6419 -1.0542  1.6562
 3544TIP3   OH210572   6.074   6.592   2.857 -0.0519  0.5770  0.2921
 3544TIP3    H110573   6.002   6.580   2.919 -0.0992 -0.8115 -0.0089
 3544TIP3    H210574   6.153   6.585   2.909 -0.1057  1.5865  0.5361
 3545TIP3   OH210575   4.164   0.008   5.017  0.2000 -0.3994 -0.1981
 3545TIP3    H110576   4.118   0.092   5.026  1.6186  0.2221  2.1467
 3545TIP3    H210577   4.187  -0.016   5.106 -0.5253 -3.5714 -0.7641
 3546TIP3   OH210578   1.672   5.127   1.435 -0.0631  0.1846  0.2125
 3546TIP3    H110579   1.687   5.221   1.424  2.7120 -0.3202 -1.4660
 3546TIP3    H210580   1.735   5.100   1.502  0.9407 -0.7995 -1.0717
 3547TIP3   OH210581   5.134   5.365   5.832  0.3303 -0.5091  0.1425
 3547TIP3    H110582   5.125   5.359   5.927  0.9571 -2.0276  0.1333
 3547TIP3    H210583   5.224   5.396   5.818 -0.0874  0.7136  0.0360
 3548TIP3   OH210584   6.938   6.329   4.594  0.6282  0.1700  0.2366
 3548TIP3    H110585   6.892   6.382   4.528 -0.6369 -0.3425  0.6834
 3548TIP3    H210586   6.910   6.366   4.678 -0.8149 -1.5773  0.5823
 3549TIP3   OH210587   6.845   6.784   1.394  0.4751  0.2505  0.3287
 3549TIP3    H110588   6.850   6.752   1.304 -0.4242 -2.3974  1.1321
 3549TIP3    H210589   6.762   6.832   1.397 -0.4928 -1.3425  0.1792
 3550TIP3   OH210590   5.401   2.819   3.872  0.2683  0.1330 -0.0930
 3550TIP3    H110591   5.481   2.793   3.916 -0.4267 -0.3572  0.9195
 3550TIP3    H210592   5.425   2.897   3.822  1.7525 -0.9227 -1.1168
 3551TIP3   OH210593   4.891   3.425   5.580  0.5444 -0.3672 -0.2399
 3551TIP3    H110594   4.858   3.384   5.500  0.2816 -0.9598  0.1686
 3551TIP3    H210595   4.899   3.518   5.557  1.0489 -0.6146 -1.1406
 3552TIP3   OH210596   3.718   3.923   4.756  0.1222 -0.4002 -0.3838
 3552TIP3    H110597   3.779   3.987   4.719 -0.8979 -0.2953 -1.9693
 3552TIP3    H210598   3.642   3.926   4.698 -2.4952  1.1879  2.8180
 3553TIP3   OH210599   4.301   7.519   6.494  0.3950  0.0209 -0.2236
 3553TIP3    H110600   4.282   7.514   6.587 -0.4448  2.0066 -0.2395
 3553TIP3    H210601   4.396   7.532   6.489  0.1760  2.2774  0.5205
 3554TIP3   OH210602   4.314   2.315   5.071  0.0622 -0.2756 -0.0252
 3554TIP3    H110603   4.374   2.250   5.035  0.6663 -0.0958  0.6351
 3554TIP3    H210604   4.257   2.266   5.130  0.2831 -0.2716  0.1940
 3555TIP3   OH210605   5.358   1.277   4.960  0.1519 -0.3009  0.1911
 3555TIP3    H110606   5.311   1.350   4.999  2.5816  1.6860 -0.3513
 3555TIP3    H210607   5.346   1.287   4.866 -0.9864 -1.7436  0.1369
 3556TIP3   OH210608   0.896   7.824   5.988 -0.4955 -0.3895 -0.1432
 3556TIP3    H110609   0.889   7.904   5.937  0.1825 -0.3597 -0.1939
 3556TIP3    H210610   0.818   7.824   6.044  0.0032  0.8273  0.5936
 3557TIP3   OH210611   2.645   1.508   2.283 -0.3824  0.1748  0.4046
 3557TIP3    H110612   2.662   1.598   2.253 -0.7164 -0.0888 -0.5857
 3557TIP3    H210613   2.659   1.512   2.378 -0.2811  1.2477  0.3563
 3558TIP3   OH210614   6.334   5.468   2.494  0.3730  0.0512  1.0483
 3558TIP3    H110615   6.296   5.521   2.563  1.9398  1.4645  0.8759
 3558TIP3    H210616   6.422   5.502   2.483  0.2587 -0.2827 -1.4797
 3559TIP3   OH210617   5.618   5.040   0.203  0.4741 -0.0137 -0.2793
 3559TIP3    H110618   5.609   4.946   0.215  1.4846  0.0253  0.9085
 3559TIP3    H210619   5.680   5.068   0.270  0.3668  1.4695 -0.7505
 3560TIP3   OH210620   4.402   4.554   0.836 -0.2594  0.0351 -0.0443
 3560TIP3    H110621   4.363   4.584   0.753 -1.1981 -0.9746  0.0141
 3560TIP3    H210622   4.330   4.555   0.898 -0.1098 -1.3867  0.1910
 3561TIP3   OH210623   4.678   6.431   5.853  0.4542  0.1696 -0.2372
 3561TIP3    H110624   4.616   6.457   5.922  0.0282 -1.6480  0.1137
 3561TIP3    H210625   4.680   6.336   5.857  1.8300  0.1048 -1.5462
 3562TIP3   OH210626   7.257   1.358   1.674 -0.2251 -0.0038 -0.3957
 3562TIP3    H110627   7.259   1.444   1.633  1.9145 -0.4456 -1.3375
 3562TIP3    H210628   7.346   1.344   1.705 -0.2582 -2.2540 -1.1396
 3563TIP3   OH210629   6.657   6.182   0.153 -0.1435 -0.7218  0.2945
 3563TIP3    H110630   6.693   6.118   0.215  0.4758 -1.6242 -0.9563
 3563TIP3    H210631   6.709   6.260   0.167 -0.2634 -0.7846  1.1709
 3564TIP3   OH210632   7.385   5.360   4.803  0.5642  0.3558  0.2780
 3564TIP3    H110633   7.400   5.450   4.773 -0.1180  0.3920  0.0445
 3564TIP3    H210634   7.453   5.346   4.869  1.6223  0.5448 -0.7149
 3565TIP3   OH210635   5.294   7.149   5.163  0.6457  0.1916  0.3536
 3565TIP3    H110636   5.386   7.136   5.185  0.8423  1.9310  0.6986
 3565TIP3    H210637   5.296   7.201   5.082 -0.0427 -0.4416 -0.0758
 3566TIP3   OH210638   7.312   0.791   3.769  0.6260  0.1439  0.0134
 3566TIP3    H110639   7.317   0.863   3.832  1.0228  1.0770 -1.0463
 3566TIP3    H210640   7.377   0.812   3.702 -0.0369 -0.6122 -0.9119
 3567TIP3   OH210641   5.916   0.906   1.894 -0.3864  0.4510 -0.0596
 3567TIP3    H110642   5.842   0.948   1.850 -1.3890 -0.6063  0.5673
 3567TIP3    H210643   5.985   0.905   1.828 -1.0185  1.1733 -0.7663
 3568TIP3   OH210644   3.770   7.522   1.767 -0.0115 -0.2978  0.2197
 3568TIP3    H110645   3.818   7.592   1.722  0.6507 -0.7166  0.2797
 3568TIP3    H210646   3.747   7.461   1.697 -1.1659  0.2855  0.0563
 3569TIP3   OH210647   8.103   5.750   5.462  0.3491  0.4375  0.6072
 3569TIP3    H110648   8.103   5.841   5.433 -0.0549  0.0630 -0.6329
 3569TIP3    H210649   8.108   5.755   5.558  0.6540  1.7447  0.5396
 3570TIP3   OH210650   7.417   3.741   5.543  0.2707  0.0943  0.3485
 3570TIP3    H110651   7.372   3.722   5.625 -0.4958 -0.5717 -0.2064
 3570TIP3    H210652   7.497   3.787   5.569 -0.0669  0.0831  1.4433
 3571TIP3   OH210653   4.215   2.550   3.275 -0.4656 -0.2871  0.3441
 3571TIP3    H110654   4.131   2.593   3.291  0.3699  1.3263  0.6171
 3571TIP3    H210655   4.246   2.525   3.363 -0.1207  0.2092  0.3684
 3572TIP3   OH210656   3.116   3.263   4.974  0.0383  0.2201  0.1974
 3572TIP3    H110657   3.092   3.344   4.930 -0.0449 -0.5216 -1.2009
 3572TIP3    H210658   3.208   3.250   4.953 -0.7872 -1.9303 -2.9522
 3573TIP3   OH210659   4.426   3.241   3.455  0.2589  0.1474  0.3450
 3573TIP3    H110660   4.460   3.290   3.530 -0.7964 -1.2453  1.8086
 3573TIP3    H210661   4.502   3.227   3.399  1.4033 -0.0478  1.8971
 3574TIP3   OH210662   2.791   2.470   3.177  0.4454  0.1509  0.3047
 3574TIP3    H110663   2.776   2.527   3.102 -0.5652  0.9798  1.0947
 3574TIP3    H210664   2.803   2.383   3.140  0.6804  0.6596 -0.8490
 3575TIP3   OH210665   4.997   1.599   2.833  0.0355 -0.0369  0.3834
 3575TIP3    H110666   4.954   1.522   2.870  0.0912 -0.4783 -0.4518
 3575TIP3    H210667   5.089   1.574   2.823  0.0600  0.1432  0.1347
 3576TIP3   OH210668   5.868   7.520   2.682  0.1917  0.2747  0.7253
 3576TIP3    H110669   5.882   7.442   2.735 -1.3343  0.6670  1.7853
 3576TIP3    H210670   5.834   7.487   2.599  2.4294 -0.3348 -0.0272
 3577TIP3   OH210671   8.198   7.803   2.003  0.0082  0.0345 -0.1800
 3577TIP3    H110672   8.203   7.817   2.097 -1.8682 -0.3980  0.0325
 3577TIP3    H210673   8.156   7.883   1.969  0.5196  0.1180 -0.6314
 3578TIP3   OH210674   3.203   1.153   4.371  0.5517  0.2835  0.1663
 3578TIP3    H110675   3.128   1.190   4.325 -0.7658 -2.0021  0.3626
 3578TIP3    H210676   3.189   1.059   4.369  2.1351 -0.0824  2.4231
 3579TIP3   OH210677   2.047   0.375   6.766  0.5299 -0.5175  0.0940
 3579TIP3    H110678   2.100   0.301   6.795 -1.4163 -2.2608 -0.5671
 3579TIP3    H210679   2.093   0.408   6.688  0.6926 -1.9350 -0.4316
 3580TIP3   OH210680   7.228   1.050   5.334  0.7430  0.3724 -0.4386
 3580TIP3    H110681   7.254   0.974   5.387  0.4197  1.5691  1.5325
 3580TIP3    H210682   7.153   1.018   5.283 -0.2825 -0.2875  1.3921
 3581TIP3   OH210683   7.614   4.769   2.464  0.4267  0.5187  0.3890
 3581TIP3    H110684   7.604   4.863   2.448 -1.4990  0.0648 -1.4497
 3581TIP3    H210685   7.693   4.745   2.417  0.9495  1.2009  0.8936
 3582TIP3   OH210686   8.304   4.425   6.507 -0.1735  0.5507 -0.6405
 3582TIP3    H110687   8.304   4.455   6.598  0.0280  0.6671 -0.6792
 3582TIP3    H210688   8.233   4.361   6.504  2.9660 -3.5098  0.9159
 3583TIP3   OH210689   1.621   3.845   0.453  0.1297 -0.2728  0.2792
 3583TIP3    H110690   1.557   3.915   0.445 -0.9146 -0.9774  1.9444
 3583TIP3    H210691   1.598   3.783   0.383  1.1146  1.0256 -1.2510
 3584TIP3   OH210692   3.288   2.082   3.050  0.1934 -0.0359 -0.1460
 3584TIP3    H110693   3.324   1.994   3.059 -0.4314 -0.1025  2.3927
 3584TIP3    H210694   3.364   2.138   3.034  0.8240 -0.7757  0.2130
 3585TIP3   OH210695   6.720   5.608   4.863  0.3695  0.1870  0.1027
 3585TIP3    H110696   6.803   5.564   4.877 -0.1276 -0.9653 -0.4337
 3585TIP3    H210697   6.744   5.696   4.834  1.3799  0.9917  3.0926
 3586TIP3   OH210698   2.144   6.213   1.259 -0.2559  0.0647 -0.5510
 3586TIP3    H110699   2.230   6.239   1.225  0.2476  1.4645  1.5920
 3586TIP3    H210700   2.146   6.117   1.259  1.4675  0.0649 -0.2060
 3587TIP3   OH210701   2.389   1.692   1.100  0.3608 -0.0047 -0.7649
 3587TIP3    H110702   2.470   1.743   1.100  0.1363  0.5004  1.9351
 3587TIP3    H210703   2.411   1.610   1.057  2.4440 -0.0221  0.2312
 3588TIP3   OH210704   0.862   0.419   0.300  0.2486 -0.1183  0.4186
 3588TIP3    H110705   0.824   0.502   0.271  0.6407 -0.0145  0.1782
 3588TIP3    H210706   0.933   0.403   0.237  0.9691 -0.0089  1.1928
 3589TIP3   OH210707   2.645   3.193   4.127  0.0411  0.5036 -0.1246
 3589TIP3    H110708   2.728   3.148   4.110  0.3412  1.4262 -1.1950
 3589TIP3    H210709   2.612   3.217   4.040 -1.6026 -0.2630  0.2513
 3590TIP3   OH210710   0.740   2.386   3.607  0.9044  0.1045  0.3335
 3590TIP3    H110711   0.657   2.361   3.647 -0.1625 -0.5295 -2.1065
 3590TIP3    H210712   0.771   2.307   3.564  0.9929  1.1658 -1.6737
 3591TIP3   OH210713   5.552   4.217   0.361 -0.0435  0.1744  0.0987
 3591TIP3    H110714   5.541   4.266   0.279  0.6353 -1.2199 -0.8685
 3591TIP3    H210715   5.501   4.267   0.425 -0.2291  1.5567 -1.0573
 3592TIP3   OH210716   2.773   5.621   3.554  0.5124  0.7859 -0.3774
 3592TIP3    H110717   2.810   5.604   3.468  0.2265  1.2624 -0.5963
 3592TIP3    H210718   2.681   5.637   3.538 -0.3206 -2.4758  0.3719
 3593TIP3   OH210719   5.774   2.209   5.671 -0.6089  0.5403  0.3974
 3593TIP3    H110720   5.815   2.231   5.754 -0.7910 -0.0603  0.6521
 3593TIP3    H210721   5.729   2.289   5.645  0.4569  1.1138  0.2636
 3594TIP3   OH210722   2.526   1.395   0.697  0.4782  0.1389 -0.0539
 3594TIP3    H110723   2.511   1.470   0.639  0.1521 -0.0624 -0.2327
 3594TIP3    H210724   2.452   1.336   0.679  1.5332 -0.9319 -1.0363
 3595TIP3   OH210725   1.185   3.891   1.794  0.3478 -0.1903 -1.0466
 3595TIP3    H110726   1.251   3.831   1.828 -0.1398 -0.5748 -0.7548
 3595TIP3    H210727   1.109   3.835   1.777 -0.4922  0.4860  0.2519
 3596TIP3   OH210728   2.137   7.540   6.817 -0.1044 -0.4081 -0.3664
 3596TIP3    H110729   2.117   7.613   6.875  1.6759  0.8555 -1.2615
 3596TIP3    H210730   2.063   7.537   6.756 -0.6277  0.0534  0.2294
 3597TIP3   OH210731   3.345   5.987   0.157  0.0373 -0.0344  0.0234
 3597TIP3    H110732   3.273   5.986   0.094 -0.6942 -0.2546  0.8376
 3597TIP3    H210733   3.322   5.918   0.220  1.2101 -0.4414  0.0291
 3598TIP3   OH210734   3.995   4.747   5.075  0.0983  0.8647  0.0381
 3598TIP3    H110735   3.987   4.662   5.030 -0.6789  0.5083  0.8159
 3598TIP3    H210736   4.003   4.724   5.167 -4.5960  1.6689  0.8662
 3599TIP3   OH210737   0.109   4.810   6.823 -0.5885 -0.0200  0.4734
 3599TIP3    H110738   0.131   4.881   6.884 -1.4325 -0.0821  0.8561
 3599TIP3    H210739   0.187   4.754   6.823 -0.1233  0.6130  0.5811
 3600TIP3   OH210740   2.402   4.092   0.821 -0.1532 -0.2620 -0.1242
 3600TIP3    H110741   2.466   4.130   0.761 -0.2726 -0.7271 -0.5523
 3600TIP3    H210742   2.377   4.165   0.878  0.3887  0.0425 -0.2640
 3601TIP3   OH210743   1.274   4.180   5.185  0.1579  0.5321 -0.1288
 3601TIP3    H110744   1.224   4.127   5.123  1.0888  1.1515 -1.4589
 3601TIP3    H210745   1.275   4.268   5.146 -0.4758  1.3176  1.5171
 3602TIP3   OH210746   4.657   5.870   3.368  0.3075  0.1386  0.1211
 3602TIP3    H110747   4.728   5.917   3.412  1.1032 -0.6706 -0.2722
 3602TIP3    H210748   4.616   5.819   3.437  1.1233 -0.6066  0.0650
 3603TIP3   OH210749   3.388   5.621   4.034 -0.1169  0.1653 -0.4353
 3603TIP3    H110750   3.431   5.589   3.955  1.3462 -2.1008  1.1524
 3603TIP3    H210751   3.374   5.714   4.018 -1.6808 -0.5199 -4.0920
 3604TIP3   OH210752   0.869   1.955   6.667  0.3660 -0.4422 -0.4364
 3604TIP3    H110753   0.855   2.042   6.631  0.1746 -0.6177 -0.7805
 3604TIP3    H210754   0.783   1.913   6.664  0.1525 -0.1641  1.0109
 3605TIP3   OH210755   1.277   4.558   6.107  0.3321  0.1134 -0.4172
 3605TIP3    H110756   1.206   4.591   6.162  0.8075  0.9197 -0.2612
 3605TIP3    H210757   1.304   4.476   6.149 -0.5327 -0.2250 -0.5082
 3606TIP3   OH210758   4.966   0.569   0.854  0.0970 -0.5574 -0.2880
 3606TIP3    H110759   5.045   0.621   0.839 -0.3812 -0.1884 -1.7656
 3606TIP3    H210760   4.989   0.481   0.825  0.1412 -0.5749 -0.1975
 3607TIP3   OH210761   2.211   0.458   6.062  0.5218  0.3582 -0.0217
 3607TIP3    H110762   2.172   0.515   6.128 -0.1404  2.7097 -2.2873
 3607TIP3    H210763   2.298   0.494   6.047  0.0242  0.9849 -1.6202
 3608TIP3   OH210764   5.303   6.869   6.177 -0.6175 -0.4047  0.0326
 3608TIP3    H110765   5.392   6.890   6.207 -1.0754  0.9018  0.5618
 3608TIP3    H210766   5.316   6.809   6.104  0.6812 -0.5422  0.3409
 3609TIP3   OH210767   7.517   2.948   4.292 -0.1453 -0.3497  0.1669
 3609TIP3    H110768   7.596   2.907   4.327  0.2520  1.1396  1.0658
 3609TIP3    H210769   7.523   2.934   4.197  1.1369 -0.3467  0.2271
 3610TIP3   OH210770   7.358   1.543   5.546 -0.1563  0.1538 -0.3381
 3610TIP3    H110771   7.332   1.493   5.469 -1.8811  2.0453 -1.0782
 3610TIP3    H210772   7.353   1.480   5.618 -1.1050 -1.0312 -1.3877
 3611TIP3   OH210773   7.246   0.260   4.344  0.4024  0.1776 -0.0248
 3611TIP3    H110774   7.162   0.300   4.366 -0.2354 -0.4416 -1.2019
 3611TIP3    H210775   7.312   0.320   4.378 -0.5256  1.1181  0.1439
 3612TIP3   OH210776   1.605   2.432   3.595 -0.2540 -0.0013 -0.1768
 3612TIP3    H110777   1.641   2.498   3.654  3.0262 -1.8242  0.1020
 3612TIP3    H210778   1.602   2.475   3.510 -0.7235  1.2714  0.4554
 3613TIP3   OH210779   7.784   5.006   5.439  0.4787 -0.7405 -0.0271
 3613TIP3    H110780   7.824   4.989   5.524 -0.5568 -2.0253  0.2186
 3613TIP3    H210781   7.849   4.976   5.375  0.5294 -1.4225  0.3407
 3614TIP3   OH210782   8.396   4.792   1.868  0.7122  0.9875  0.2390
 3614TIP3    H110783   8.406   4.737   1.791  2.3965  0.4587  0.8101
 3614TIP3    H210784   8.319   4.756   1.913 -0.3252  1.3424 -1.1820
 3615TIP3   OH210785   0.533   6.728   0.697 -0.7249  0.0587 -0.0684
 3615TIP3    H110786   0.597   6.794   0.725 -0.9597  0.0497  0.5139
 3615TIP3    H210787   0.530   6.736   0.602  2.4427 -2.0559 -0.4941
 3616TIP3   OH210788   4.399   0.913   0.194  0.0939 -0.3709 -0.6715
 3616TIP3    H110789   4.306   0.891   0.199  0.0922 -0.4289 -0.9501
 3616TIP3    H210790   4.401   1.003   0.160  0.0909  0.1793  0.7260
 3617TIP3   OH210791   1.667   0.253   3.820 -0.1086  0.2509 -0.2497
 3617TIP3    H110792   1.626   0.248   3.906  1.3142  1.9938  0.6071
 3617TIP3    H210793   1.619   0.324   3.775  1.5228  1.9637  0.5794
 3618TIP3   OH210794   0.233   5.592   1.847  0.0952 -0.0649  0.1127
 3618TIP3    H110795   0.306   5.593   1.909 -0.0195  1.5197  0.2625
 3618TIP3    H210796   0.269   5.553   1.767  0.5227 -1.1763  0.8277
 3619TIP3   OH210797   5.301   2.847   2.804  0.1019 -0.0932  1.0306
 3619TIP3    H110798   5.313   2.941   2.794  0.2546 -0.0894  1.2626
 3619TIP3    H210799   5.206   2.835   2.805 -0.0092 -0.2368 -1.9192
 3620TIP3   OH210800   2.912   3.591   4.695  0.3601 -0.2292 -0.0804
 3620TIP3    H110801   2.822   3.574   4.666  0.8937 -2.1473 -0.7418
 3620TIP3    H210802   2.963   3.593   4.614  0.8955  1.2048  0.2598
 3621TIP3   OH210803   5.515   2.010   1.256  0.0675 -0.0674  0.1655
 3621TIP3    H110804   5.594   1.986   1.208 -0.8529 -0.5524 -1.1909
 3621TIP3    H210805   5.465   1.929   1.264 -0.7359  0.4036  0.1189
 3622TIP3   OH210806   6.260   5.276   1.665  0.1828  0.9344  0.1297
 3622TIP3    H110807   6.190   5.320   1.714 -0.0460  2.2049 -1.2365
 3622TIP3    H210808   6.244   5.183   1.679 -0.9911  1.2255  0.9324
 3623TIP3   OH210809   6.950   4.056   4.926  0.0283 -0.0556  0.3432
 3623TIP3    H110810   6.877   4.033   4.868  0.8701 -1.2695 -0.2549
 3623TIP3    H210811   6.909   4.064   5.013 -0.6476 -1.9189  0.2405
 3624TIP3   OH210812   3.639   7.211   6.465  0.1948 -0.0219  0.1921
 3624TIP3    H110813   3.653   7.293   6.513  0.1301  0.4801 -0.6136
 3624TIP3    H210814   3.721   7.196   6.419  0.7051 -1.1769  1.4152
 3625TIP3   OH210815   2.082   1.377   4.214  0.0496  0.3108 -0.1460
 3625TIP3    H110816   2.029   1.334   4.147 -2.2049  0.1951  1.5687
 3625TIP3    H210817   2.090   1.312   4.284  1.5665  0.7314  0.1184
 3626TIP3   OH210818   3.124   7.672   5.424 -0.4460 -0.5715 -0.1483
 3626TIP3    H110819   3.119   7.646   5.517  0.6340 -0.6175 -0.0904
 3626TIP3    H210820   3.098   7.593   5.376  1.2795 -1.3450  0.0754
 3627TIP3   OH210821   0.960   0.089   2.004 -0.4780  0.4167  0.4397
 3627TIP3    H110822   0.991   0.147   1.935 -1.0966  0.5329  0.2471
 3627TIP3    H210823   0.882   0.132   2.038 -1.3767 -0.6367 -0.2100
 3628TIP3   OH210824   2.782   3.304   4.868  0.1673 -0.0001  0.2309
 3628TIP3    H110825   2.738   3.267   4.792  0.8360 -1.5683  0.5693
 3628TIP3    H210826   2.776   3.236   4.935  0.2781  1.0408  1.3300
 3629TIP3   OH210827   1.279   0.659   4.638  0.1118  0.0102  0.0222
 3629TIP3    H110828   1.236   0.606   4.705 -0.2879  1.0310  0.5959
 3629TIP3    H210829   1.369   0.627   4.636 -0.0510 -0.4944  0.5527
 3630TIP3   OH210830   2.113   4.146   3.604 -0.0352 -0.0199 -0.1353
 3630TIP3    H110831   2.100   4.142   3.509 -0.1505  0.3895 -0.1384
 3630TIP3    H210832   2.112   4.055   3.632 -2.6047 -0.0661 -0.1789
 3631TIP3   OH210833   3.660   0.253   0.341  0.3163  0.2349  0.8398
 3631TIP3    H110834   3.632   0.285   0.427  1.0337 -1.3055  1.6956
 3631TIP3    H210835   3.739   0.304   0.321  0.2111  0.5235  1.1526
 3632TIP3   OH210836   0.722   3.996   1.271 -0.7773 -0.7512  0.3061
 3632TIP3    H110837   0.720   3.941   1.350 -0.6014 -1.6655 -0.3101
 3632TIP3    H210838   0.805   3.973   1.229 -0.1383  0.8468  0.6119
 3633TIP3   OH210839   0.764   1.623   4.775  0.3447 -0.0501 -0.2241
 3633TIP3    H110840   0.825   1.693   4.801  0.8781 -1.1997  1.8897
 3633TIP3    H210841   0.791   1.599   4.687  3.8966 -1.3390  1.0175
 3634TIP3   OH210842   8.348   1.250   6.321 -0.1608  0.2165  0.1140
 3634TIP3    H110843   8.272   1.308   6.325 -1.0076 -0.8081 -0.5632
 3634TIP3    H210844   8.351   1.209   6.407 -0.3129  0.3291  0.1743
 3635TIP3   OH210845   2.541   5.528   1.656  0.1422  0.2580 -0.1997
 3635TIP3    H110846   2.512   5.617   1.678 -0.7850 -0.1805  0.4403
 3635TIP3    H210847   2.593   5.500   1.731 -1.9633 -0.7726  0.9535
 3636TIP3   OH210848   1.049   6.345   5.781  0.2275 -0.1024 -0.0381
 3636TIP3    H110849   0.989   6.404   5.827  1.0735  1.5905 -0.9956
 3636TIP3    H210850   0.996   6.268   5.760 -0.5204 -0.3763  2.5727
 3637TIP3   OH210851   6.518   0.366   2.774 -0.5836  0.3508  0.5866
 3637TIP3    H110852   6.540   0.459   2.783 -3.0800  1.1605 -0.8094
 3637TIP3    H210853   6.440   0.355   2.829  0.7323 -1.4494  2.2580
 3638TIP3   OH210854   6.996   1.052   0.612 -0.3684  0.3831  0.6676
 3638TIP3    H110855   7.028   1.068   0.701 -2.1695 -0.5212  1.5154
 3638TIP3    H210856   6.930   1.120   0.598 -0.5681  0.1055  0.2675
 3639TIP3   OH210857   2.040   7.197   3.450  0.0046 -0.2554  0.0566
 3639TIP3    H110858   2.082   7.118   3.416 -3.2056 -1.3735 -1.7053
 3639TIP3    H210859   1.976   7.165   3.513 -0.7170  0.9993 -0.0070
 3640TIP3   OH210860   7.721   2.774   0.494  0.2347  0.0094 -0.3832
 3640TIP3    H110861   7.793   2.736   0.442 -0.7459 -0.0824 -1.7184
 3640TIP3    H210862   7.654   2.707   0.494 -1.2585  1.3853 -2.1942
 3641TIP3   OH210863   7.890   0.323   3.667 -0.0880  0.0233 -0.0605
 3641TIP3    H110864   7.798   0.303   3.655 -0.4157  1.4073 -0.0746
 3641TIP3    H210865   7.909   0.388   3.599  1.0368 -0.6304 -0.3927
 3642TIP3   OH210866   7.763   2.826   2.193 -0.1796  0.5643 -0.0612
 3642TIP3    H110867   7.698   2.883   2.234  2.5662  3.0488  1.2221
 3642TIP3    H210868   7.805   2.781   2.266  0.4783  0.0517 -0.7395
 3643TIP3   OH210869   4.473   5.386   6.293  0.2161  0.4193 -0.1329
 3643TIP3    H110870   4.563   5.397   6.262  1.2526 -2.2744  1.5553
 3643TIP3    H210871   4.480   5.385   6.388 -1.6351  0.2558  0.0384
 3644TIP3   OH210872   6.373   0.084   1.681 -0.1828 -0.0804  0.5959
 3644TIP3    H110873   6.447   0.068   1.740  0.4045 -0.3732 -0.1965
 3644TIP3    H210874   6.401   0.157   1.626 -0.2725 -0.4995 -0.0284
 3645TIP3   OH210875   6.210   1.264   4.150  0.1409  0.4098 -0.1371
 3645TIP3    H110876   6.215   1.360   4.154 -0.1741  0.4760 -1.1929
 3645TIP3    H210877   6.119   1.243   4.172 -0.1428  0.4477 -1.2109
 3646TIP3   OH210878   2.045   4.393   0.580  0.0044  0.1043 -0.1339
 3646TIP3    H110879   1.972   4.330   0.585 -3.4107  3.6111 -0.9878
 3646TIP3    H210880   2.064   4.416   0.671  2.5840 -3.1839  0.3538
 3647TIP3   OH210881   4.808   2.462   6.537  0.0928  0.6690  0.0219
 3647TIP3    H110882   4.820   2.418   6.621 -1.5599  0.9013  0.4214
 3647TIP3    H210883   4.812   2.392   6.472  0.0528  0.2957  0.4170
 3648TIP3   OH210884   3.581   6.268   1.260  0.1790  0.2409 -0.0582
 3648TIP3    H110885   3.609   6.281   1.350 -0.2654 -0.6997  0.2251
 3648TIP3    H210886   3.512   6.333   1.247  0.7862  0.9134  0.0135
 3649TIP3   OH210887   5.050   3.356   6.338 -0.1595 -0.1177 -0.6722
 3649TIP3    H110888   5.076   3.438   6.296 -1.1754  0.2948 -0.5368
 3649TIP3    H210889   4.956   3.350   6.322 -0.6401  0.1561  1.6539
 3650TIP3   OH210890   0.189   4.436   1.637  0.0193 -0.2966 -0.1088
 3650TIP3    H110891   0.207   4.342   1.634 -0.0789 -0.3239  0.1866
 3650TIP3    H210892   0.275   4.477   1.627 -0.0569 -0.4053 -1.3919
 3651TIP3   OH210893   4.049   3.792   1.573 -0.5821  0.0181  0.0862
 3651TIP3    H110894   4.092   3.840   1.502 -0.3453  0.0974  0.2827
 3651TIP3    H210895   4.121   3.759   1.627 -0.7687  0.1213  0.3973
 3652TIP3   OH210896   5.799   4.090   6.083 -0.3004  0.7425  0.0238
 3652TIP3    H110897   5.829   4.003   6.112 -0.1693  1.4250  2.1481
 3652TIP3    H210898   5.848   4.107   6.003  0.8196 -0.5056  0.3950
 3653TIP3   OH210899   5.047   5.726   5.401  0.0577  0.3631  0.1653
 3653TIP3    H110900   5.141   5.744   5.406  0.0836  0.0369  0.9396
 3653TIP3    H210901   5.024   5.742   5.309  1.1612 -1.0501 -0.3886
 3654TIP3   OH210902   0.275   7.463   2.395 -0.1857 -0.3309  0.0490
 3654TIP3    H110903   0.294   7.516   2.473  0.3092 -0.6608  0.1579
 3654TIP3    H210904   0.233   7.523   2.334  0.4702  0.2124  0.1258
 3655TIP3   OH210905   3.972   5.168   2.622 -0.4284 -0.2157  0.3036
 3655TIP3    H110906   3.880   5.141   2.625 -0.9743  1.5144  0.7259
 3655TIP3    H210907   3.993   5.170   2.529 -0.9307 -0.2791  0.1851
 3656TIP3   OH210908   2.836   5.124   3.476  0.1667 -0.4150 -0.1508
 3656TIP3    H110909   2.762   5.128   3.538  2.3044 -1.2014  2.6588
 3656TIP3    H210910   2.895   5.194   3.505  2.2968 -2.2841  0.2731
 3657TIP3   OH210911   3.810   5.170   1.431  0.7431  0.4190  0.6074
 3657TIP3    H110912   3.731   5.216   1.458  0.0269 -0.8300  0.7072
 3657TIP3    H210913   3.854   5.147   1.513  0.0853 -0.7658  0.6557
 3658TIP3   OH210914   6.249   0.944   6.010  0.2510  0.0578  0.1853
 3658TIP3    H110915   6.244   0.995   6.091  1.8162 -0.6316  0.7654
 3658TIP3    H210916   6.159   0.941   5.978 -0.1468  1.7118  1.0310
 3659TIP3   OH210917   6.581   7.249   2.468  0.3954  0.1998 -0.8524
 3659TIP3    H110918   6.588   7.216   2.379 -0.8152 -0.0548 -0.8690
 3659TIP3    H210919   6.487   7.258   2.483  0.6083  0.9199  0.1519
 3660TIP3   OH210920   5.590   5.554   3.578  0.0577 -0.1048  0.8286
 3660TIP3    H110921   5.561   5.467   3.550 -1.3148  0.0670  1.6773
 3660TIP3    H210922   5.539   5.573   3.656 -0.9410  2.2071 -0.3149
 3661TIP3   OH210923   8.053   2.931   2.924 -0.0779  0.4846  0.2322
 3661TIP3    H110924   8.064   2.988   3.000  1.8314 -0.1505  0.4654
 3661TIP3    H210925   8.092   2.980   2.852  0.9531 -0.2300  0.2982
 3662TIP3   OH210926   7.381   3.689   5.134 -0.4639  0.4506  0.2816
 3662TIP3    H110927   7.466   3.667   5.097 -0.5393  0.3617  0.1619
 3662TIP3    H210928   7.318   3.640   5.081 -0.5801  0.4200  0.4473
 3663TIP3   OH210929   7.999   6.224   4.169  0.6750  0.3487  0.2808
 3663TIP3    H110930   7.910   6.231   4.133  1.1478 -0.2052 -1.0646
 3663TIP3    H210931   8.003   6.135   4.205  1.2655 -0.3449 -1.4014
 3664TIP3   OH210932   4.639   4.873   3.089 -1.1183 -0.5027  0.2681
 3664TIP3    H110933   4.677   4.831   3.011 -0.5964  0.6899 -0.1359
 3664TIP3    H210934   4.546   4.883   3.067 -0.5880  1.8847 -1.1920
 3665TIP3   OH210935   5.450   1.512   1.728  0.5094 -0.0205 -0.1072
 3665TIP3    H110936   5.503   1.525   1.806  0.5706  0.7377 -0.2666
 3665TIP3    H210937   5.404   1.430   1.743 -0.0089  0.4562  1.0336
 3666TIP3   OH210938   0.088   2.089   5.167  0.2883  0.1713  0.0985
 3666TIP3    H110939   0.153   2.049   5.110  1.0305  1.0144  0.3278
 3666TIP3    H210940   0.060   2.167   5.119  1.3475  1.2099  1.1103
 3667TIP3   OH210941   5.775   1.326   0.390 -0.1391  0.5030  0.1945
 3667TIP3    H110942   5.818   1.397   0.342  0.9032 -1.7916 -2.5478
 3667TIP3    H210943   5.846   1.265   0.410 -0.9837  0.2025  2.6126
 3668TIP3   OH210944   2.916   2.977   0.692 -0.4741 -0.1266 -0.2380
 3668TIP3    H110945   2.972   2.990   0.768  0.6450 -1.6076 -0.7602
 3668TIP3    H210946   2.939   2.890   0.660 -3.6909 -1.1995  0.0132
 3669TIP3   OH210947   1.348   2.492   0.475 -0.3528  0.4057 -0.3137
 3669TIP3    H110948   1.265   2.444   0.471  1.0318 -2.0831 -1.6914
 3669TIP3    H210949   1.379   2.492   0.384  1.3099  0.9479  0.2217
 3670TIP3   OH210950   1.663   0.407   0.411 -0.1983 -0.4460  0.4034
 3670TIP3    H110951   1.675   0.380   0.320  0.5173 -0.1134  0.3987
 3670TIP3    H210952   1.660   0.325   0.460 -2.2268 -0.7431 -0.0802
 3671TIP3   OH210953   5.470   0.479   2.496  0.1917  0.8773  0.1649
 3671TIP3    H110954   5.401   0.429   2.454  1.1789  0.3470 -0.8625
 3671TIP3    H210955   5.452   0.471   2.590 -1.8129  1.7503 -0.0997
 3672TIP3   OH210956   7.596   1.280   4.041 -0.2264  0.4838  0.3842
 3672TIP3    H110957   7.540   1.276   3.964  2.1945  0.1188 -1.4969
 3672TIP3    H210958   7.618   1.372   4.051 -1.4635  0.6904  1.4068
 3673TIP3   OH210959   1.763   2.422   6.879 -0.4949 -0.0691  0.2107
 3673TIP3    H110960   1.752   2.403   6.786  0.5698 -0.3652  0.1256
 3673TIP3    H210961   1.848   2.467   6.883  0.0918 -1.2007  1.1736
 3674TIP3   OH210962   1.132   5.587   1.261  0.0273 -0.3165 -0.5717
 3674TIP3    H110963   1.094   5.523   1.201 -1.4674  0.4313 -0.4944
 3674TIP3    H210964   1.078   5.581   1.340  1.7759 -1.0755  0.6115
 3675TIP3   OH210965   2.844   7.253   6.649 -0.1828  0.2354 -0.4842
 3675TIP3    H110966   2.905   7.323   6.625  0.8922 -0.8386 -0.9963
 3675TIP3    H210967   2.833   7.263   6.744  1.3394  0.0454 -0.2597
 3676TIP3   OH210968   0.615   6.366   1.332  0.1089  0.4141 -0.0506
 3676TIP3    H110969   0.537   6.335   1.287 -0.5031  1.4771  0.2440
 3676TIP3    H210970   0.683   6.367   1.265 -0.0703 -0.6937 -0.2651
 3677TIP3   OH210971   5.308   4.200   5.137  0.7306  1.1357 -0.4543
 3677TIP3    H110972   5.248   4.252   5.190  1.2082  0.0835  1.1613
 3677TIP3    H210973   5.347   4.137   5.197  0.8718 -0.5061 -2.1610
 3678TIP3   OH210974   1.449   7.253   2.268  0.2108  0.0194 -0.2318
 3678TIP3    H110975   1.420   7.199   2.194  0.1698 -0.3053  0.0160
 3678TIP3    H210976   1.544   7.249   2.264  0.2715  1.4669 -1.3248
 3679TIP3   OH210977   2.670   1.320   4.241 -0.3737 -0.0119  0.0952
 3679TIP3    H110978   2.597   1.305   4.300  0.2498 -0.1842  0.8330
 3679TIP3    H210979   2.659   1.410   4.211 -0.9911 -0.1013  0.0459
 3680TIP3   OH210980   1.445   4.721   6.673 -0.0974  0.2072 -0.2578
 3680TIP3    H110981   1.401   4.637   6.688  1.2773 -0.5190 -0.1520
 3680TIP3    H210982   1.378   4.787   6.693 -0.4308 -0.8021  2.3240
 3681TIP3   OH210983   4.763   1.385   6.656  0.4768  0.2344  0.1023
 3681TIP3    H110984   4.780   1.468   6.700  0.1849 -0.7782  2.2726
 3681TIP3    H210985   4.829   1.380   6.588 -0.2532  2.7611 -0.9047
 3682TIP3   OH210986   0.113   1.984   5.426 -0.4023  0.4020 -0.2680
 3682TIP3    H110987   0.179   1.934   5.377  0.0295 -0.2517  0.9397
 3682TIP3    H210988   0.064   2.031   5.358  0.1206 -0.5306 -1.3333
 3683TIP3   OH210989   1.697   0.179   0.523  0.1054  0.4370  0.4122
 3683TIP3    H110990   1.674   0.137   0.440 -0.4730  0.3536  0.6116
 3683TIP3    H210991   1.730   0.108   0.577  1.5429  0.6672 -0.1100
 3684TIP3   OH210992   4.503   4.952   3.477 -0.1560  0.0899 -0.5318
 3684TIP3    H110993   4.477   5.022   3.536 -0.8271 -0.2883 -0.3622
 3684TIP3    H210994   4.435   4.951   3.409 -0.4167 -0.6894 -0.2764
 3685TIP3   OH210995   5.411   6.382   5.046  0.1133  0.0795  0.1231
 3685TIP3    H110996   5.433   6.459   5.098  1.7181 -0.8364  0.8661
 3685TIP3    H210997   5.335   6.344   5.091  0.4466  0.2228  0.8224
 3686TIP3   OH210998   2.409   2.916   3.965  0.3491  0.3713  0.2724
 3686TIP3    H110999   2.487   2.944   3.917 -1.1694  0.9460 -2.0250
 3686TIP3    H211000   2.443   2.875   4.044  3.0025  0.0393 -0.9274
 3687TIP3   OH211001   0.284   5.853   1.679 -0.6222  0.2985  0.5155
 3687TIP3    H111002   0.285   5.882   1.770 -0.0600  2.6557 -0.1736
 3687TIP3    H211003   0.353   5.787   1.674 -1.1311 -0.3852  1.9178
 3688TIP3   OH211004   4.129   7.773   6.516 -0.0423  0.3128  0.6052
 3688TIP3    H111005   4.147   7.835   6.445  0.9921  0.6964  1.1646
 3688TIP3    H211006   4.195   7.704   6.504 -1.4049 -0.8905 -0.2161
 3689TIP3   OH211007   6.472   1.477   1.384  0.2109  0.4941 -0.0199
 3689TIP3    H111008   6.460   1.407   1.319  0.4557  0.1334  0.3199
 3689TIP3    H211009   6.396   1.469   1.441  0.1448  0.6242 -0.0894
 3690TIP3   OH211010   1.424   2.991   0.348  0.5333 -0.1440 -0.3768
 3690TIP3    H111011   1.392   3.081   0.355  1.0637 -0.0393  1.1727
 3690TIP3    H211012   1.475   2.990   0.268  1.2810  1.2045  0.0460
 3691TIP3   OH211013   5.663   2.468   5.661 -0.2972 -0.8080 -0.0764
 3691TIP3    H111014   5.604   2.503   5.727 -1.9334  0.9154 -2.3221
 3691TIP3    H211015   5.751   2.491   5.693 -1.1239  1.9431  0.4852
 3692TIP3   OH211016   1.761   6.335   4.631 -0.4482 -0.2479  0.2442
 3692TIP3    H111017   1.718   6.379   4.558 -1.7259 -0.6110  0.7466
 3692TIP3    H211018   1.733   6.384   4.708  0.7788  0.0502  0.5142
 3693TIP3   OH211019   7.227   4.094   2.360  0.1488 -0.3474  0.5197
 3693TIP3    H111020   7.302   4.075   2.416 -0.3768 -1.3994  0.9072
 3693TIP3    H211021   7.196   4.008   2.331 -0.1903  0.1243 -0.6004
 3694TIP3   OH211022   6.887   3.502   1.339 -0.2192  0.4645  0.5155
 3694TIP3    H111023   6.805   3.507   1.388  0.4599  0.6206  1.6726
 3694TIP3    H211024   6.892   3.585   1.292 -1.5556 -0.2439 -0.9859
 3695TIP3   OH211025   7.564   6.382   0.471 -0.6173 -0.2127 -0.8361
 3695TIP3    H111026   7.587   6.291   0.490  0.5184  0.1356 -0.4703
 3695TIP3    H211027   7.551   6.423   0.556 -1.0820 -0.0151 -0.9973
 3696TIP3   OH211028   8.401   0.677   3.465  0.5318  0.4354  0.7224
 3696TIP3    H111029   8.391   0.584   3.446 -1.4678  0.7109  0.2479
 3696TIP3    H211030   8.405   0.682   3.560  2.1042 -0.2279  0.7226
 3697TIP3   OH211031   0.915   0.879   3.948  0.3309  0.2761 -0.1378
 3697TIP3    H111032   0.863   0.959   3.943 -1.3219 -0.7492 -0.2894
 3697TIP3    H211033   0.949   0.878   4.038 -0.4700  0.6580  0.1784
 3698TIP3   OH211034   4.232   3.720   5.203 -0.0620  0.4899  0.5841
 3698TIP3    H111035   4.152   3.766   5.228  0.6730  2.5485 -0.5782
 3698TIP3    H211036   4.202   3.650   5.145 -1.2112 -0.4666  2.2637
 3699TIP3   OH211037   1.138   1.668   1.944  0.0547  0.4675  0.4434
 3699TIP3    H111038   1.128   1.755   1.905 -0.4468  0.0501 -0.4105
 3699TIP3    H211039   1.096   1.675   2.030 -1.2920  0.6923 -0.2019
 3700TIP3   OH211040   7.076   3.463   5.754 -0.5377  0.7610 -0.0122
 3700TIP3    H111041   7.164   3.429   5.768 -0.0818  2.1457  0.5969
 3700TIP3    H211042   7.057   3.444   5.662  0.6937  1.1397 -0.3577
 3701TIP3   OH211043   2.284   4.502   3.108  0.4214  0.5840  0.4488
 3701TIP3    H111044   2.248   4.438   3.046 -3.6144  2.1488  0.9327
 3701TIP3    H211045   2.317   4.448   3.180  2.0533 -1.0904 -1.4048
 3702TIP3   OH211046   3.434   0.889   1.375 -0.3819  0.1278  0.2563
 3702TIP3    H111047   3.420   0.884   1.469 -2.2345  0.5037  0.0296
 3702TIP3    H211048   3.527   0.870   1.364 -0.7315 -3.2589  1.8901
 3703TIP3   OH211049   3.456   4.804   4.834  0.2314  0.3083  0.4389
 3703TIP3    H111050   3.451   4.899   4.839 -0.3807  0.3294 -0.4322
 3703TIP3    H211051   3.438   4.783   4.743 -0.9983 -0.7220  0.8845
 3704TIP3   OH211052   6.823   6.006   4.763 -0.0254 -0.0499 -0.0404
 3704TIP3    H111053   6.772   5.970   4.691 -0.5125  0.1922  0.1765
 3704TIP3    H211054   6.772   6.080   4.794  0.0529 -0.3011  0.7145
 3705TIP3   OH211055   2.447   2.855   3.091 -0.5894  0.4513 -0.1456
 3705TIP3    H111056   2.408   2.878   3.175  1.8574 -0.8241  1.4648
 3705TIP3    H211057   2.425   2.762   3.078 -0.1534  0.3840 -0.4340
 3706TIP3   OH211058   7.189   7.821   1.791  0.4235  0.5430  0.1434
 3706TIP3    H111059   7.258   7.887   1.782  2.0790 -1.3142 -1.9575
 3706TIP3    H211060   7.166   7.823   1.884  1.8860  2.6179  0.5285
 3707TIP3   OH211061   5.932   6.271   0.628 -0.1712  0.2313 -0.3041
 3707TIP3    H111062   5.988   6.197   0.652  0.6728  0.5116 -1.3519
 3707TIP3    H211063   5.990   6.347   0.626 -0.4860  0.4697 -1.7640
 3708TIP3   OH211064   2.476   3.862   6.225  0.1963 -0.6843 -0.2169
 3708TIP3    H111065   2.435   3.788   6.270  0.9130 -0.8140  0.2321
 3708TIP3    H211066   2.497   3.827   6.138 -0.7316 -0.5835 -0.4917
 3709TIP3   OH211067   1.914   2.962   1.985 -0.2149  0.6929  0.3363
 3709TIP3    H111068   1.936   3.053   1.965 -0.2504  0.7855  0.7122
 3709TIP3    H211069   1.819   2.958   1.976 -0.2354  0.7451  0.5252
 3710TIP3   OH211070   5.832   5.150   5.298  0.4310 -0.4430  0.1526
 3710TIP3    H111071   5.786   5.220   5.253 -0.1904 -0.4596  0.7545
 3710TIP3    H211072   5.771   5.119   5.365  0.7990 -1.3667  0.0887
 3711TIP3   OH211073   4.955   7.781   5.834  0.7143  0.0386 -0.0831
 3711TIP3    H111074   4.886   7.743   5.780 -0.6549 -0.9795  2.2251
 3711TIP3    H211075   4.928   7.872   5.847  0.5377  0.0241 -0.3548
 3712TIP3   OH211076   2.788   3.035   2.004  0.1603 -0.1255  0.0468
 3712TIP3    H111077   2.741   3.009   2.083 -1.2614 -2.3636 -1.4067
 3712TIP3    H211078   2.810   2.952   1.961  2.8435  0.9611 -0.8520
 3713TIP3   OH211079   5.642   0.118   0.328 -0.5699 -0.3300  0.3604
 3713TIP3    H111080   5.574   0.185   0.320 -1.6787 -1.5783 -1.4065
 3713TIP3    H211081   5.600   0.037   0.299  2.0684 -0.8869 -2.4658
 3714TIP3   OH211082   2.849   1.844   0.850  1.0318  0.3507  0.2282
 3714TIP3    H111083   2.842   1.937   0.829 -0.0084  0.3394  0.4631
 3714TIP3    H211084   2.863   1.841   0.944  1.5600  0.2810  0.1491
 3715TIP3   OH211085   5.702   3.392   2.018 -0.5939 -0.8515  0.4204
 3715TIP3    H111086   5.684   3.485   2.001 -0.6226 -0.6763  1.3144
 3715TIP3    H211087   5.707   3.352   1.932  0.5204  0.1932 -0.0327
 3716TIP3   OH211088   3.377   5.493   0.324 -0.5968  0.2352 -0.0339
 3716TIP3    H111089   3.449   5.436   0.299 -0.1046  0.7048  0.2907
 3716TIP3    H211090   3.314   5.436   0.367 -0.4467 -0.1848 -0.3666
 3717TIP3   OH211091   6.615   0.764   3.144  0.3793  0.2162  0.1552
 3717TIP3    H111092   6.568   0.840   3.107  1.2561  1.1001  0.7999
 3717TIP3    H211093   6.546   0.706   3.176 -0.3180  0.6305 -0.5572
 3718TIP3   OH211094   7.039   3.595   2.331  0.3439 -0.0378  0.5290
 3718TIP3    H111095   6.965   3.622   2.276  1.2701  0.2142 -0.6408
 3718TIP3    H211096   7.048   3.501   2.314  0.3789 -0.0423  0.5720
 3719TIP3   OH211097   5.909   1.602   4.788  0.2613  0.1944 -0.0762
 3719TIP3    H111098   5.987   1.639   4.828 -0.2515  2.7526 -1.2222
 3719TIP3    H211099   5.836   1.636   4.840 -0.2407  0.8443 -1.1598
 3720TIP3   OH211100   5.485   2.910   0.905 -0.0277  0.0466  0.5744
 3720TIP3    H111101   5.527   2.885   0.823  1.5916 -0.0583  1.3947
 3720TIP3    H211102   5.400   2.866   0.904  0.5475 -1.0780 -0.4188
 3721TIP3   OH211103   5.753   1.535   5.799  0.2120  0.5038 -0.1107
 3721TIP3    H111104   5.665   1.525   5.761 -1.2461  1.2387  2.7883
 3721TIP3    H211105   5.774   1.628   5.785  2.0221 -0.2530 -3.5055
 3722TIP3   OH211106   1.365   1.051   0.874  0.2308  0.0278  0.2107
 3722TIP3    H111107   1.454   1.085   0.884 -0.5569  2.4617 -0.1795
 3722TIP3    H211108   1.309   1.120   0.910 -1.5648 -0.5463 -1.2998
 3723TIP3   OH211109   7.669   4.850   2.733 -0.0594 -0.8180  0.2481
 3723TIP3    H111110   7.744   4.902   2.707 -0.6797  0.6148  1.2250
 3723TIP3    H211111   7.616   4.843   2.654 -0.2585  0.5746  0.2385
 3724TIP3   OH211112   7.277   5.276   2.226  0.3238 -0.6261  0.3104
 3724TIP3    H111113   7.326   5.201   2.260 -0.7146 -1.2728  0.4172
 3724TIP3    H211114   7.244   5.246   2.141 -0.7774 -0.5948  0.7119
 3725TIP3   OH211115   5.595   1.400   6.208  0.0542  0.0664  0.3438
 3725TIP3    H111116   5.559   1.446   6.131 -0.0325 -0.2965  0.1642
 3725TIP3    H211117   5.586   1.462   6.279 -1.7038 -0.2894  0.4908
 3726TIP3   OH211118   6.748   3.464   6.491  0.6191  0.3326 -0.3942
 3726TIP3    H111119   6.739   3.412   6.571 -0.6913  2.3535  0.8731
 3726TIP3    H211120   6.687   3.425   6.430  0.0558  0.0188  0.3485
 3727TIP3   OH211121   5.505   6.799   3.578 -0.1052  0.6840  0.2494
 3727TIP3    H111122   5.495   6.889   3.548  1.7854  1.0166  0.5244
 3727TIP3    H211123   5.574   6.762   3.523  0.5809  0.0602  1.4714
 3728TIP3   OH211124   5.499   5.356   5.960 -0.7641  0.4038 -0.7512
 3728TIP3    H111125   5.451   5.431   5.995  0.0332  1.2649 -1.4464
 3728TIP3    H211126   5.547   5.321   6.035 -0.4372  1.1498 -0.6083
 3729TIP3   OH211127   2.244   5.963   3.085  0.1547 -0.1214 -0.0347
 3729TIP3    H111128   2.305   5.890   3.076  3.7450  2.6901 -0.8612
 3729TIP3    H211129   2.252   6.012   3.003 -0.4308  2.3494  1.2657
 3730TIP3   OH211130   1.067   7.502   0.510 -0.0994 -0.0960 -0.0657
 3730TIP3    H111131   0.981   7.546   0.515 -0.5520 -0.9680 -0.0771
 3730TIP3    H211132   1.123   7.566   0.466 -1.0264  0.0394 -1.0994
 3731TIP3   OH211133   7.246   4.795   0.952  0.1120  0.0989  0.3756
 3731TIP3    H111134   7.201   4.716   0.981 -0.5783  0.7497  1.1255
 3731TIP3    H211135   7.266   4.778   0.860 -0.2610 -0.8403  0.4512
 3732TIP3   OH211136   0.478   7.442   1.585 -0.4794 -0.1625  0.2862
 3732TIP3    H111137   0.491   7.359   1.539 -1.8971 -0.4719  0.3900
 3732TIP3    H211138   0.410   7.423   1.650 -1.5866  1.3078 -0.3755
 3733TIP3   OH211139   5.176   7.442   6.394 -0.0289  0.0667 -0.4582
 3733TIP3    H111140   5.159   7.391   6.473  0.0689  0.7048 -0.0144
 3733TIP3    H211141   5.262   7.481   6.409  0.3849 -0.5198 -1.2680
 3734TIP3   OH211142   4.380   6.745   2.412 -0.4087 -0.0387  0.4519
 3734TIP3    H111143   4.349   6.656   2.393 -0.4261 -0.1677  1.0802
 3734TIP3    H211144   4.466   6.750   2.369  2.4096 -2.3818  5.0779
 3735TIP3   OH211145   6.227   3.534   0.383  0.1819 -0.0983  0.0670
 3735TIP3    H111146   6.200   3.589   0.456  0.0503 -0.8213  0.5692
 3735TIP3    H211147   6.188   3.576   0.306 -0.3889  0.1911  0.5047
 3736TIP3   OH211148   8.157   1.191   3.420 -0.5926 -0.1149 -0.0522
 3736TIP3    H111149   8.245   1.162   3.394  0.7653  2.5793  1.1607
 3736TIP3    H211150   8.127   1.125   3.482  0.0035 -1.7337 -1.4164
 3737TIP3   OH211151   8.178   1.722   2.083 -0.4620  0.2929 -0.2402
 3737TIP3    H111152   8.106   1.760   2.032 -0.2408  0.1336 -0.6723
 3737TIP3    H211153   8.192   1.784   2.154 -2.5068 -0.7334  1.1575
 3738TIP3   OH211154   2.541   1.621   3.863  0.1440  0.8460  0.5030
 3738TIP3    H111155   2.531   1.673   3.784  0.8181 -0.0214 -0.1762
 3738TIP3    H211156   2.458   1.633   3.910 -0.5460  0.8224 -0.6697
 3739TIP3   OH211157   5.042   6.079   4.067 -0.6195  0.0737  0.3850
 3739TIP3    H111158   5.104   6.151   4.078  0.5246 -1.0961  2.3643
 3739TIP3    H211159   4.964   6.108   4.115  0.3460 -0.4821  2.4269
 3740TIP3   OH211160   2.969   6.818   4.639 -0.3205 -0.1045  0.0895
 3740TIP3    H111161   3.060   6.800   4.618 -0.3945  0.6737 -0.9728
 3740TIP3    H211162   2.955   6.775   4.724  1.1478  0.1753  0.4999
 3741TIP3   OH211163   4.800   0.778   0.772  0.3552  0.2072 -0.3996
 3741TIP3    H111164   4.803   0.684   0.789  0.1292  0.1400 -0.7254
 3741TIP3    H211165   4.803   0.786   0.677 -2.8058  0.3719 -0.5850
 3742TIP3   OH211166   7.226   3.684   5.344 -0.2205  0.1455  0.0279
 3742TIP3    H111167   7.280   3.689   5.266  0.2643  0.5033  0.3846
 3742TIP3    H211168   7.286   3.701   5.417 -0.9420  1.3145  0.3831
 3743TIP3   OH211169   0.190   3.205   3.880 -0.3256  0.3532  0.0481
 3743TIP3    H111170   0.232   3.213   3.966 -0.3614  1.3156 -0.0114
 3743TIP3    H211171   0.242   3.262   3.823 -0.4138 -0.1382 -0.5362
 3744TIP3   OH211172   8.321   7.158   2.633  0.2660 -0.5972 -0.4324
 3744TIP3    H111173   8.255   7.202   2.686  3.0775  1.0377  2.0783
 3744TIP3    H211174   8.316   7.199   2.547  0.1918  1.9345  0.7083
 3745TIP3   OH211175   8.098   4.725   5.494 -0.4004  0.5189  0.2300
 3745TIP3    H111176   8.121   4.801   5.548 -0.2574  0.7989 -0.2127
 3745TIP3    H211177   8.020   4.688   5.536  0.0766  0.3510  0.9868
 3746TIP3   OH211178   2.338   5.315   5.505 -0.0568  0.1496 -0.2467
 3746TIP3    H111179   2.303   5.393   5.461 -1.1879 -1.1053 -1.6656
 3746TIP3    H211180   2.348   5.342   5.596 -2.3327  1.3805 -0.2893
 3747TIP3   OH211181   2.186   1.882   4.229 -0.2203  0.2285 -0.4825
 3747TIP3    H111182   2.141   1.966   4.216  0.9028  0.8982 -0.1002
 3747TIP3    H211183   2.115   1.818   4.228 -1.2401  1.2955  0.4789
 3748TIP3   OH211184   6.581   5.770   3.225 -0.3986 -0.1341 -0.7205
 3748TIP3    H111185   6.595   5.768   3.131 -0.7248  1.7131 -0.8456
 3748TIP3    H211186   6.659   5.813   3.260 -1.1952  1.0926 -0.3899
 3749TIP3   OH211187   6.818   4.385   2.403  0.0757  0.2186 -0.2475
 3749TIP3    H111188   6.855   4.328   2.336 -2.8766 -0.4713 -1.4360
 3749TIP3    H211189   6.795   4.465   2.355  0.0339  0.6332  0.4575
 3750TIP3   OH211190   3.836   7.790   1.674  0.2225  0.3878 -0.0730
 3750TIP3    H111191   3.818   7.849   1.601  1.3103  0.3225 -0.4134
 3750TIP3    H211192   3.897   7.838   1.730  2.2698 -0.8513 -1.0773
 3751TIP3   OH211193   4.809   0.215   5.192 -0.2427 -0.8380  0.0114
 3751TIP3    H111194   4.793   0.277   5.120  0.7248  0.1342  0.5980
 3751TIP3    H211195   4.749   0.243   5.261 -0.6340 -1.3008 -0.1352
 3752TIP3   OH211196   2.512   7.244   6.328 -0.0716 -0.6689 -0.2697
 3752TIP3    H111197   2.418   7.236   6.341 -0.4224  2.7468  0.2576
 3752TIP3    H211198   2.540   7.158   6.297 -3.1465 -2.1113  0.5964
 3753TIP3   OH211199   4.412   7.313   5.164  0.1528 -0.0444 -0.5394
 3753TIP3    H111200   4.414   7.304   5.259  1.2925  2.5479 -0.2341
 3753TIP3    H211201   4.462   7.238   5.131  0.4101 -0.5428  0.9401
 3754TIP3   OH211202   4.021   3.563   0.603 -0.0632  0.0872 -0.2342
 3754TIP3    H111203   4.113   3.550   0.627  0.0397  0.1577 -0.5732
 3754TIP3    H211204   4.022   3.563   0.507 -0.3612  0.4611 -0.2409
 3755TIP3   OH211205   2.790   5.370   6.649 -0.3107 -0.0363  0.3003
 3755TIP3    H111206   2.752   5.380   6.736  0.2028 -2.9189  0.9529
 3755TIP3    H211207   2.867   5.315   6.662  0.9794  1.1266 -1.7372
 3756TIP3   OH211208   4.758   3.405   1.399 -0.0104  0.3202  0.2728
 3756TIP3    H111209   4.733   3.426   1.309 -0.3704 -0.6751  0.1297
 3756TIP3    H211210   4.746   3.310   1.406  0.9509  0.2397  1.0795
 3757TIP3   OH211211   4.534   0.565   1.163  0.0088  1.0961  0.3873
 3757TIP3    H111212   4.601   0.537   1.225 -0.1211  0.6423  0.3321
 3757TIP3    H211213   4.573   0.550   1.077 -0.9616 -1.3724  0.2907
 3758TIP3   OH211214   6.963   1.949   0.802 -0.0028  0.3511 -0.2314
 3758TIP3    H111215   7.021   1.969   0.875 -1.2406  1.3015  0.5313
 3758TIP3    H211216   6.949   2.033   0.759 -1.2993  0.2609 -0.0132
 3759TIP3   OH211217   4.560   6.250   1.695  0.2197  0.3877 -0.1141
 3759TIP3    H111218   4.558   6.345   1.701  0.1834  0.5056 -1.6692
 3759TIP3    H211219   4.513   6.220   1.773  0.3493  1.6312  0.4627
 3760TIP3   OH211220   7.820   1.425   0.922 -0.7280  0.8342 -0.2626
 3760TIP3    H111221   7.863   1.508   0.944  0.8920  0.3937 -1.5677
 3760TIP3    H211222   7.733   1.431   0.963  0.4293  1.8842  2.2770
 3761TIP3   OH211223   4.639   2.214   1.356  0.4058  0.1771 -0.5948
 3761TIP3    H111224   4.678   2.182   1.275  1.4315  2.2941 -1.0001
 3761TIP3    H211225   4.714   2.236   1.412 -0.2836 -0.2227  0.5332
 3762TIP3   OH211226   4.408   4.962   6.375  0.3807  0.1694  0.0230
 3762TIP3    H111227   4.448   4.936   6.458 -0.1236  1.2027  0.6219
 3762TIP3    H211228   4.317   4.934   6.382  0.1100  1.0647  0.2145
 3763TIP3   OH211229   3.366   5.024   5.399 -0.5757 -0.1113  0.3429
 3763TIP3    H111230   3.291   5.010   5.342 -0.4042 -1.1602  0.3657
 3763TIP3    H211231   3.336   4.998   5.486 -0.2901 -0.2112  0.4141
 3764TIP3   OH211232   6.358   5.646   3.562 -0.2461 -0.7337 -0.8245
 3764TIP3    H111233   6.329   5.732   3.530 -0.3554  0.7525  2.8228
 3764TIP3    H211234   6.279   5.592   3.556 -0.6769 -0.0645 -1.4895
 3765TIP3   OH211235   6.929   7.699   0.013 -0.3821 -0.0762 -0.1806
 3765TIP3    H111236   6.863   7.691  -0.056 -1.0074  1.3940  0.2040
 3765TIP3    H211237   6.921   7.619   0.064 -1.0833 -0.4221 -0.8200
 3766TIP3   OH211238   7.567   1.343   1.470 -0.2848  0.1837  0.2510
 3766TIP3    H111239   7.555   1.400   1.394 -0.5538  0.3955  0.4485
 3766TIP3    H211240   7.516   1.385   1.540 -0.8987 -0.5531  0.2693
 3767TIP3   OH211241   4.719   5.455   2.685  0.3638  0.7548  0.2183
 3767TIP3    H111242   4.813   5.471   2.688  0.9419 -2.0832  0.6941
 3767TIP3    H211243   4.695   5.436   2.776 -0.0363 -1.2717 -0.2543
 3768TIP3   OH211244   7.313   0.770   1.925 -0.0368 -0.3837 -0.6640
 3768TIP3    H111245   7.285   0.844   1.870 -1.0500 -0.8383 -0.7773
 3768TIP3    H211246   7.234   0.743   1.971  0.7353 -0.1823  0.8505
 3769TIP3   OH211247   6.336   6.660   0.986 -1.0900 -0.0590 -0.1631
 3769TIP3    H111248   6.347   6.566   0.998 -0.5138  0.0553  0.2307
 3769TIP3    H211249   6.250   6.669   0.945 -1.5197 -0.7032  0.5696
 3770TIP3   OH211250   4.967   7.209   4.616 -0.1233 -0.0162 -0.4253
 3770TIP3    H111251   5.061   7.192   4.622 -0.3052 -0.9117 -0.0229
 3770TIP3    H211252   4.955   7.294   4.659  0.7870  1.1671 -2.3589
 3771TIP3   OH211253   3.945   5.809   0.145 -0.1497 -0.8995 -0.2176
 3771TIP3    H111254   3.918   5.717   0.146 -1.9874 -0.4522 -1.7837
 3771TIP3    H211255   3.896   5.848   0.218 -2.1963 -0.5467 -1.6745
 3772TIP3   OH211256   2.140   7.469   2.882 -0.4596  0.2780  0.1696
 3772TIP3    H111257   2.209   7.531   2.858  0.9162 -0.9336  0.8480
 3772TIP3    H211258   2.114   7.495   2.971  1.0283 -0.8130  0.9813
 3773TIP3   OH211259   7.422   6.744   4.882  0.7152  0.0608  0.6654
 3773TIP3    H111260   7.432   6.703   4.796 -1.7984  1.9608 -0.6690
 3773TIP3    H211261   7.333   6.721   4.910  0.7597  1.1355  1.8104
 3774TIP3   OH211262   6.969   5.938   1.409 -0.5275 -0.2962  0.5592
 3774TIP3    H111263   7.035   5.931   1.478 -0.9095  0.3714  0.9961
 3774TIP3    H211264   6.913   5.861   1.421  2.0228 -2.8102 -1.8437
 3775TIP3   OH211265   4.123   5.503   4.663 -0.8005  0.3173 -0.2753
 3775TIP3    H111266   4.037   5.529   4.697  0.4614  1.6726  2.2123
 3775TIP3    H211267   4.167   5.586   4.644  0.1351 -0.3345 -1.0679
 3776TIP3   OH211268   0.429   0.114   5.236 -0.4281 -0.0133  0.2195
 3776TIP3    H111269   0.524   0.129   5.240  0.0046 -1.3995 -2.7986
 3776TIP3    H211270   0.393   0.201   5.217  0.2033  0.4855  1.1577
 3777TIP3   OH211271   8.357   2.269   0.720  0.3566 -0.5444  0.0311
 3777TIP3    H111272   8.406   2.240   0.643  0.6793  1.2005 -0.4669
 3777TIP3    H211273   8.417   2.329   0.766 -1.0087  1.1194 -0.2430
 3778TIP3   OH211274   3.709   5.892   6.319  0.5343  0.2175 -0.6621
 3778TIP3    H111275   3.664   5.970   6.286  0.4573  1.9112  2.9255
 3778TIP3    H211276   3.801   5.908   6.299  0.4862  1.1288 -0.2269
 3779TIP3   OH211277   8.107   4.319   4.848 -0.5804 -0.6817 -0.0500
 3779TIP3    H111278   8.197   4.329   4.818 -1.1955 -1.0797 -2.2253
 3779TIP3    H211279   8.074   4.408   4.855 -0.4768 -0.5659 -0.8709
 3780TIP3   OH211280   4.115   6.347   4.633 -0.6457 -0.0167  0.4490
 3780TIP3    H111281   4.185   6.353   4.698  0.9250 -1.2513 -1.0713
 3780TIP3    H211282   4.073   6.263   4.651  0.2167 -0.6680 -0.5161
 3781TIP3   OH211283   6.057   1.265   5.136 -0.3426 -0.1655 -0.1740
 3781TIP3    H111284   5.983   1.325   5.130 -0.5878 -0.5733 -3.1258
 3781TIP3    H211285   6.130   1.318   5.167 -0.9816  1.2500 -1.0015
 3782TIP3   OH211286   0.029   5.742   1.695  0.1931 -0.7194  0.1173
 3782TIP3    H111287   0.093   5.806   1.663 -0.4705  0.8184  1.6595
 3782TIP3    H211288   0.078   5.689   1.759  0.6852 -1.6361 -0.9912
 3783TIP3   OH211289   3.303   2.971   4.398 -0.0209 -0.6104  0.2074
 3783TIP3    H111290   3.384   2.936   4.435  0.6393 -0.0600 -0.6771
 3783TIP3    H211291   3.291   3.055   4.441 -0.8829 -1.2822  1.3419
 3784TIP3   OH211292   1.585   4.353   5.017 -0.0369 -0.3130  0.0389
 3784TIP3    H111293   1.643   4.381   4.946  0.3611 -1.7374 -0.2326
 3784TIP3    H211294   1.581   4.258   5.008 -2.3908 -0.2635  0.0748
 3785TIP3   OH211295   5.899   6.752   5.074 -0.1086 -0.0156 -0.1912
 3785TIP3    H111296   5.834   6.682   5.084  1.4679 -1.4974  0.1704
 3785TIP3    H211297   5.899   6.772   4.980  0.8823 -2.0403 -0.6778
 3786TIP3   OH211298   2.170   5.646   3.708 -0.2684  0.3148  0.4335
 3786TIP3    H111299   2.123   5.585   3.765 -1.5322  0.7101 -0.1491
 3786TIP3    H211300   2.137   5.733   3.732 -1.1418  0.4597 -1.1566
 3787TIP3   OH211301   2.464   1.751   6.234  0.2170  0.0391  0.3418
 3787TIP3    H111302   2.427   1.666   6.211 -1.4927  0.9276 -0.3248
 3787TIP3    H211303   2.558   1.739   6.224 -0.0066 -1.6472 -0.1418
 3788TIP3   OH211304   0.642   1.263   0.228 -0.4711  0.3442  0.3825
 3788TIP3    H111305   0.633   1.196   0.296 -1.0791 -0.3022 -0.3247
 3788TIP3    H211306   0.674   1.341   0.275 -0.2846 -0.2727  1.2985
 3789TIP3   OH211307   5.310   3.335   3.215  0.1183  0.0710  0.2203
 3789TIP3    H111308   5.260   3.254   3.222 -1.9759  1.3118  0.3936
 3789TIP3    H211309   5.311   3.370   3.304  2.5576 -0.5784  0.5193
 3790TIP3   OH211310   3.987   6.858   1.712  0.3001 -0.0112 -0.4580
 3790TIP3    H111311   3.909   6.831   1.761  1.3217  0.2586  1.3928
 3790TIP3    H211312   4.051   6.789   1.729  0.7173  0.1275 -1.3823
 3791TIP3   OH211313   1.414   5.043   4.071 -0.1673 -0.0910 -0.1457
 3791TIP3    H111314   1.429   5.035   4.165  0.1116 -0.6853 -0.2342
 3791TIP3    H211315   1.320   5.062   4.064 -0.4898 -1.3999  0.2136
 3792TIP3   OH211316   4.887   6.778   5.246  0.2550 -0.3108  0.3584
 3792TIP3    H111317   4.792   6.785   5.236  0.3978  0.0961 -0.8723
 3792TIP3    H211318   4.906   6.821   5.330 -0.7577 -1.5170  1.2525
 3793TIP3   OH211319   6.957   5.945   1.853 -0.5168  0.5816  0.0576
 3793TIP3    H111320   6.929   5.871   1.906  0.0533 -0.1872 -0.6854
 3793TIP3    H211321   6.977   6.014   1.917  2.2186 -1.0012  1.0651
 3794TIP3   OH211322   5.730   3.787   0.070  0.3687  0.2308 -0.0732
 3794TIP3    H111323   5.806   3.815   0.019  0.3900 -0.0268 -0.1858
 3794TIP3    H211324   5.678   3.867   0.083 -0.1083  0.1386 -1.2872
 3795TIP3   OH211325   1.439   5.067   3.133  0.2706 -0.0198 -0.1206
 3795TIP3    H111326   1.428   4.972   3.134  0.2108 -0.0123 -0.0521
 3795TIP3    H211327   1.516   5.081   3.077  0.1561 -0.0951 -0.3001
 3796TIP3   OH211328   3.013   6.230   1.025 -0.5811  0.5097  0.6579
 3796TIP3    H111329   3.002   6.257   1.116 -1.2705  1.6207  0.2619
 3796TIP3    H211330   2.964   6.295   0.974 -0.5080 -0.2957 -0.4838
 3797TIP3   OH211331   4.627   4.754   6.009 -0.1754 -0.0867 -0.5472
 3797TIP3    H111332   4.567   4.693   5.966 -2.0588  1.7739 -0.7221
 3797TIP3    H211333   4.691   4.697   6.052 -1.8141 -2.1973 -0.6795
 3798TIP3   OH211334   1.466   7.035   1.765 -0.2866 -0.5210  0.2230
 3798TIP3    H111335   1.528   7.108   1.758 -1.7643  0.9067  1.1469
 3798TIP3    H211336   1.432   7.025   1.676 -2.2409  2.0374  0.5434
 3799TIP3   OH211337   7.989   2.512   6.610 -0.1999 -0.1720 -0.0503
 3799TIP3    H111338   8.084   2.520   6.605 -0.2516  0.4770  0.0180
 3799TIP3    H211339   7.975   2.437   6.668  0.2761  1.6829  2.6604
 3800TIP3   OH211340   0.354   7.448   1.275 -0.2891  0.1095  0.5976
 3800TIP3    H111341   0.333   7.541   1.271 -0.4287  0.0498 -1.0565
 3800TIP3    H211342   0.377   7.425   1.184  0.9768 -1.1803  1.2030
 3801TIP3   OH211343   5.603   2.127   2.770  0.3954  0.1200  0.3786
 3801TIP3    H111344   5.540   2.196   2.789  0.0912 -0.0334 -0.0608
 3801TIP3    H211345   5.549   2.051   2.747  0.7387  0.2636 -0.9595
 3802TIP3   OH211346   2.839   1.037   0.504 -0.6929  0.1462  0.1825
 3802TIP3    H111347   2.794   0.960   0.540 -2.1638  0.0675 -1.6979
 3802TIP3    H211348   2.833   1.102   0.574 -3.2613 -0.0588  0.2494
 3803TIP3   OH211349   1.273   6.038   0.205 -1.1002 -0.2613 -0.3245
 3803TIP3    H111350   1.309   6.082   0.127 -0.2321 -0.9195 -0.3174
 3803TIP3    H211351   1.283   6.101   0.275  0.6161 -0.6139 -0.2064
 3804TIP3   OH211352   7.296   4.448   0.699 -0.6973 -0.4898  0.8306
 3804TIP3    H111353   7.380   4.445   0.653 -0.1829  0.7842  1.6540
 3804TIP3    H211354   7.231   4.450   0.629 -0.0091 -0.4079  0.1792
 3805TIP3   OH211355   6.127   0.454   6.348 -0.2372  0.2096  0.1039
 3805TIP3    H111356   6.218   0.459   6.378 -0.2297  1.2481 -0.0350
 3805TIP3    H211357   6.085   0.392   6.408  1.4004 -3.4550 -2.1698
 3806TIP3   OH211358   6.111   1.868   3.135 -0.0420 -0.5672 -0.1728
 3806TIP3    H111359   6.152   1.927   3.071  0.7088 -1.3046 -0.4006
 3806TIP3    H211360   6.048   1.818   3.084  0.9008 -1.4950 -0.4669
 3807TIP3   OH211361   0.016   2.135   6.406 -0.3483  0.4071  0.9231
 3807TIP3    H111362  -0.061   2.191   6.397 -1.5976 -1.4952 -2.0125
 3807TIP3    H211363   0.075   2.162   6.336 -0.5821 -1.2423  0.0248
 3808TIP3   OH211364   7.769   6.742   1.034  0.3694  0.0525  0.6547
 3808TIP3    H111365   7.843   6.688   1.061 -0.3144  0.3887  3.5546
 3808TIP3    H211366   7.803   6.831   1.033  0.6385 -0.0359 -0.7735
 3809TIP3   OH211367   8.093   4.631   3.529 -0.4594  0.4937  0.0208
 3809TIP3    H111368   8.092   4.700   3.463  0.3749 -0.5218 -1.1066
 3809TIP3    H211369   8.035   4.564   3.495  1.9984 -1.2191 -1.1015
 3810TIP3   OH211370   2.595   3.245   2.109  0.1789  0.5391  0.0916
 3810TIP3    H111371   2.609   3.273   2.200  1.5939 -0.0694  0.0813
 3810TIP3    H211372   2.678   3.263   2.065 -0.2371  0.1054 -0.8964
 3811TIP3   OH211373   7.519   0.122   0.434  0.2702  0.3360 -0.1959
 3811TIP3    H111374   7.435   0.134   0.479  0.0963 -0.2039 -0.3710
 3811TIP3    H211375   7.570   0.200   0.457 -0.0803  0.4089  0.3564
 3812TIP3   OH211376   1.339   6.294   3.342  0.3170 -0.3027  0.4435
 3812TIP3    H111377   1.304   6.294   3.253  1.9070  0.9996 -0.2325
 3812TIP3    H211378   1.363   6.203   3.359 -0.2590 -0.6110 -0.3356
 3813TIP3   OH211379   6.076   5.562   5.244 -0.4251 -0.1881 -0.2365
 3813TIP3    H111380   6.023   5.557   5.324 -1.9429 -1.4343 -1.2779
 3813TIP3    H211381   6.041   5.494   5.187  0.3568  0.9417 -2.1492
 3814TIP3   OH211382   2.368   7.458   0.111  0.0337  0.1587  0.1212
 3814TIP3    H111383   2.320   7.522   0.059 -0.4459 -0.2462  0.0644
 3814TIP3    H211384   2.343   7.373   0.074  0.3543 -0.0830  0.4555
 3815TIP3   OH211385   8.304   7.504   3.925 -0.1617 -0.0645 -0.8352
 3815TIP3    H111386   8.382   7.462   3.961 -1.9362 -0.8537  2.4650
 3815TIP3    H211387   8.309   7.594   3.955 -0.7301 -0.2551 -0.1266
 3816TIP3   OH211388   0.802   4.978   2.307  0.0105 -0.1075 -0.8111
 3816TIP3    H111389   0.724   5.032   2.301  2.1059  3.5383  1.3439
 3816TIP3    H211390   0.836   4.974   2.218 -1.3513  0.2028 -1.3676
 3817TIP3   OH211391   3.480   6.502   1.596 -0.3627  0.1435  0.0688
 3817TIP3    H111392   3.393   6.498   1.556  0.4736 -0.1977 -1.8419
 3817TIP3    H211393   3.522   6.576   1.552  0.5518 -0.1181  0.4932
 3818TIP3   OH211394   4.469   0.102   3.635 -0.5036  0.5097 -0.5174
 3818TIP3    H111395   4.500   0.015   3.661  1.6132  0.2598 -3.4185
 3818TIP3    H211396   4.375   0.100   3.652 -0.1254 -1.4106  1.8139
 3819TIP3   OH211397   0.570   6.460   2.141 -0.0535  0.9787 -0.3131
 3819TIP3    H111398   0.612   6.375   2.141 -0.8791  0.5556 -0.0090
 3819TIP3    H211399   0.626   6.515   2.195 -1.0750 -0.2112  2.1131
 3820TIP3   OH211400   0.900   6.619   0.868  0.1062  0.2391  0.0522
 3820TIP3    H111401   0.992   6.621   0.841  0.3751 -0.1324  0.9002
 3820TIP3    H211402   0.855   6.574   0.797  0.8784 -1.1702  0.4166
 3821TIP3   OH211403   4.528   4.364   6.250  0.8736 -0.1026 -0.0075
 3821TIP3    H111404   4.574   4.288   6.285 -0.3323 -0.9012 -0.0873
 3821TIP3    H211405   4.478   4.398   6.324  0.9964  0.3009 -0.1075
 3822TIP3   OH211406   5.106   6.012   0.900 -0.1887 -0.5625  0.0823
 3822TIP3    H111407   5.148   6.091   0.934  1.4687 -1.5958  0.6029
 3822TIP3    H211408   5.027   6.003   0.953 -1.4038  1.6952 -1.2265
 3823TIP3   OH211409   2.119   6.883   1.457  0.0847 -0.0155 -0.6152
 3823TIP3    H111410   2.037   6.842   1.429  0.0098 -0.4213  0.1858
 3823TIP3    H211411   2.096   6.975   1.471 -0.4967 -0.3418  0.6644
 3824TIP3   OH211412   7.753   3.599   5.793 -0.1299 -0.0600  0.1495
 3824TIP3    H111413   7.793   3.664   5.736 -2.7991  0.2183 -1.5895
 3824TIP3    H211414   7.754   3.639   5.880 -1.5963  2.3282 -0.8569
 3825TIP3   OH211415   2.154   0.666   2.909  0.1726 -0.0624  0.0988
 3825TIP3    H111416   2.219   0.599   2.929  0.1469  0.0612  0.6261
 3825TIP3    H211417   2.165   0.684   2.816  0.5574 -0.3967  0.0783
 3826TIP3   OH211418   5.562   3.852   5.904  0.1121  0.3200  0.1004
 3826TIP3    H111419   5.519   3.789   5.962  1.5912 -0.3149  0.5708
 3826TIP3    H211420   5.650   3.817   5.893  0.5002  1.5373 -0.8683
 3827TIP3   OH211421   4.748   0.242   4.478 -0.0752  0.2786 -0.0223
 3827TIP3    H111422   4.773   0.204   4.394  1.1605 -1.3925  1.0319
 3827TIP3    H211423   4.659   0.274   4.464 -0.8169 -2.0498 -1.3542
 3828TIP3   OH211424   3.463   0.950   5.424 -0.6715  0.3558  0.0305
 3828TIP3    H111425   3.553   0.927   5.400 -1.1810 -1.9363  0.0684
 3828TIP3    H211426   3.426   0.988   5.345 -0.4616 -1.2914 -0.9118
 3829TIP3   OH211427   2.565   2.852   3.570  0.0485 -0.7065  0.0136
 3829TIP3    H111428   2.561   2.887   3.659  0.7281 -1.9599  0.5620
 3829TIP3    H211429   2.658   2.839   3.553  0.1431  1.5689 -1.7581
 3830TIP3   OH211430   1.606   4.762   3.034 -0.3139 -0.5176 -0.2984
 3830TIP3    H111431   1.545   4.785   3.104 -0.6602 -1.0602 -0.4093
 3830TIP3    H211432   1.550   4.751   2.957  0.1694  1.0459 -0.9148
 3831TIP3   OH211433   1.138   0.456   3.212 -0.2124  0.3508 -0.2317
 3831TIP3    H111434   1.073   0.388   3.226 -0.1984  0.8707  3.3096
 3831TIP3    H211435   1.213   0.429   3.265  0.7935  1.8736 -0.7968
 3832TIP3   OH211436   1.217   4.493   4.406  0.0843  0.0730 -0.5269
 3832TIP3    H111437   1.182   4.462   4.490  1.8940  1.1092  0.6841
 3832TIP3    H211438   1.228   4.587   4.419 -0.0236  0.3260 -2.1186
 3833TIP3   OH211439   6.908   0.629   5.195  0.2467 -0.5105 -0.0384
 3833TIP3    H111440   6.979   0.648   5.257 -0.9454 -0.1716  1.2864
 3833TIP3    H211441   6.849   0.704   5.203 -0.5734 -1.0762 -0.6550
 3834TIP3   OH211442   5.280   1.267   3.508  0.1442 -0.5693  0.0329
 3834TIP3    H111443   5.272   1.350   3.554 -0.0894 -1.7070  2.1960
 3834TIP3    H211444   5.198   1.259   3.458  0.3093  0.6046 -0.4513
 3835TIP3   OH211445   8.121   0.787   3.443 -0.0037  0.3628  0.3610
 3835TIP3    H111446   8.187   0.718   3.435 -0.9489 -0.5820  0.5129
 3835TIP3    H211447   8.142   0.849   3.373  0.6450 -0.2566 -0.0019
 3836TIP3   OH211448   1.032   2.677   5.341  0.2399 -0.3206 -0.2988
 3836TIP3    H111449   0.960   2.614   5.346 -0.2741  0.1402 -1.4610
 3836TIP3    H211450   1.110   2.623   5.331 -0.1522 -0.7975 -0.8927
 3837TIP3   OH211451   3.106   4.779   5.051 -0.4099 -0.2107 -0.1877
 3837TIP3    H111452   3.104   4.832   4.972 -0.5810  1.6378  1.0081
 3837TIP3    H211453   3.118   4.841   5.122  3.5272 -2.0430  1.0616
 3838TIP3   OH211454   2.734   5.473   2.631 -0.0525 -0.3254  0.2439
 3838TIP3    H111455   2.673   5.543   2.654 -0.8205 -0.7042 -0.5562
 3838TIP3    H211456   2.730   5.412   2.705  0.6113  0.4565  0.9383
 3839TIP3   OH211457   4.436   4.515   3.433 -0.0953  0.0506  0.5923
 3839TIP3    H111458   4.433   4.453   3.506 -0.4041 -0.5183  0.1031
 3839TIP3    H211459   4.527   4.544   3.430  0.3846 -1.4596 -0.0646
 3840TIP3   OH211460   7.676   5.715   5.518  0.2217  0.6675 -0.2975
 3840TIP3    H111461   7.754   5.669   5.548 -0.8282  0.2492  2.0102
 3840TIP3    H211462   7.643   5.663   5.446 -0.3154 -1.6886  1.5305
 3841TIP3   OH211463   7.520   0.971   1.582 -0.1985  0.0528 -0.0899
 3841TIP3    H111464   7.480   1.053   1.551  0.3519  0.5694  0.5425
 3841TIP3    H211465   7.610   0.975   1.551  0.2795  0.4423  1.3111
 3842TIP3   OH211466   6.277   0.158   3.171  0.0772  0.3315  0.4950
 3842TIP3    H111467   6.275   0.074   3.216 -0.4811 -0.0278 -0.1959
 3842TIP3    H211468   6.349   0.206   3.213  0.0444 -0.2750  1.2598
 3843TIP3   OH211469   6.407   5.130   0.251  0.1517  0.1130 -0.0666
 3843TIP3    H111470   6.333   5.183   0.223 -0.5496 -1.1745 -0.6884
 3843TIP3    H211471   6.471   5.137   0.180  0.1930  0.3587 -0.0071
 3844TIP3   OH211472   4.604   5.969   0.070  0.6055 -0.6775 -0.2116
 3844TIP3    H111473   4.650   6.047   0.102  0.6398 -0.7573 -0.0688
 3844TIP3    H211474   4.547   6.003   0.001 -0.7050 -0.2147  1.0408
 3845TIP3   OH211475   1.950   4.829   6.762  0.1825  0.0014 -0.3099
 3845TIP3    H111476   1.920   4.838   6.852  1.0749  0.7781 -0.0780
 3845TIP3    H211477   1.903   4.753   6.728  0.1808 -0.5654  0.9395
 3846TIP3   OH211478   0.398   0.398   3.835 -0.1155 -0.0673 -0.3292
 3846TIP3    H111479   0.447   0.447   3.901  0.2931 -0.6976 -0.1620
 3846TIP3    H211480   0.461   0.381   3.765 -0.5349  0.5594 -0.8732
 3847TIP3   OH211481   3.237   2.341   0.660  0.4726  0.0167 -0.6858
 3847TIP3    H111482   3.210   2.428   0.690  2.2547  0.4791 -0.3169
 3847TIP3    H211483   3.232   2.347   0.565 -0.5247  0.1301 -0.6394
 3848TIP3   OH211484   8.136   7.551   0.731  0.0820  0.1337  0.3228
 3848TIP3    H111485   8.108   7.624   0.676  1.2949  0.2414 -0.1840
 3848TIP3    H211486   8.068   7.485   0.722 -1.6510  1.6260  1.7000
 3849TIP3   OH211487   4.265   0.185   3.103  0.3054  0.3201 -0.5054
 3849TIP3    H111488   4.235   0.186   3.194  0.1536 -0.2650 -0.5427
 3849TIP3    H211489   4.191   0.149   3.054  0.2538  0.9574 -0.9159
 3850TIP3   OH211490   4.829   5.323   5.827 -0.0798  0.5395  0.1152
 3850TIP3    H111491   4.923   5.310   5.812 -0.3805  0.1458 -1.5514
 3850TIP3    H211492   4.813   5.280   5.911  0.6821 -2.1659 -1.0093
 3851TIP3   OH211493   0.245   6.519   4.148  0.0401 -0.3352 -0.4360
 3851TIP3    H111494   0.320   6.537   4.092 -0.2844  0.6602 -0.5642
 3851TIP3    H211495   0.265   6.566   4.230 -0.1769 -0.5515 -0.2582
 3852TIP3   OH211496   2.364   2.950   3.351  0.3303 -0.4856  0.3617
 3852TIP3    H111497   2.337   3.041   3.363  1.0865 -0.3114  0.7712
 3852TIP3    H211498   2.430   2.935   3.418  0.6713 -1.1477 -0.1088
 3853TIP3   OH211499   1.957   3.015   3.868  0.2739  0.1872  0.3734
 3853TIP3    H111500   2.043   3.003   3.908  0.9534 -0.7187 -1.2582
 3853TIP3    H211501   1.898   2.962   3.921  0.9773 -0.2632  0.7214
 3854TIP3   OH211502   0.525   0.832   4.571 -0.5961  0.2074  0.2101
 3854TIP3    H111503   0.573   0.884   4.506 -0.0548  0.8163  1.0821
 3854TIP3    H211504   0.458   0.787   4.519 -1.6744  2.4212 -0.5019
 3855TIP3   OH211505   4.764   4.359   4.090  0.1591  0.0170 -0.2415
 3855TIP3    H111506   4.781   4.295   4.159 -0.3275  0.3238  0.1678
 3855TIP3    H211507   4.672   4.382   4.100  0.2319  0.5020 -0.6253
 3856TIP3   OH211508   7.890   5.813   4.849  0.0364  0.1751 -0.1617
 3856TIP3    H111509   7.968   5.853   4.812  0.1796 -0.8745 -1.0413
 3856TIP3    H211510   7.826   5.814   4.777 -0.3244 -0.1472  0.1510
 3857TIP3   OH211511   8.192   6.027   2.088 -0.0435  0.0282 -0.1724
 3857TIP3    H111512   8.203   5.980   2.005  1.1002 -0.0337 -0.0074
 3857TIP3    H211513   8.099   6.046   2.093 -0.0070  0.8942 -1.9482
 3858TIP3   OH211514   3.160   6.184   4.877  0.6682  0.1047  0.2173
 3858TIP3    H111515   3.124   6.258   4.926  0.0587 -0.5148  0.7257
 3858TIP3    H211516   3.084   6.131   4.854  1.0911 -0.3444 -0.1720
 3859TIP3   OH211517   1.635   5.597   4.459  0.4714  0.2785  0.7205
 3859TIP3    H111518   1.602   5.642   4.381 -1.9987  0.8853  2.0087
 3859TIP3    H211519   1.693   5.660   4.501  0.4075  0.6207  0.2978
 3860TIP3   OH211520   6.014   2.173   2.229 -0.2659  0.1262 -0.4889
 3860TIP3    H111521   6.089   2.140   2.180  0.2254 -0.9481  0.8977
 3860TIP3    H211522   6.048   2.247   2.279 -0.0065 -0.5892  0.4219
 3861TIP3   OH211523   0.192   4.088   2.824  0.1627  0.3469  0.3735
 3861TIP3    H111524   0.250   4.159   2.794 -0.0309  0.4397  0.2204
 3861TIP3    H211525   0.188   4.027   2.750 -0.7189  0.8245  0.0104
 3862TIP3   OH211526   8.417   4.500   0.944 -0.0921  0.5821 -0.3839
 3862TIP3    H111527   8.352   4.445   0.901 -0.6859  0.5535  0.5342
 3862TIP3    H211528   8.410   4.478   1.037  1.3563  0.4486 -0.2833
 3863TIP3   OH211529   5.604   4.280   1.214 -0.1594  0.7234 -0.1427
 3863TIP3    H111530   5.510   4.274   1.232 -0.5617  1.4191 -1.8909
 3863TIP3    H211531   5.644   4.231   1.286 -2.0409 -3.1744 -1.4934
 3864TIP3   OH211532   2.425   6.453   5.133  0.0149  0.3419  0.0032
 3864TIP3    H111533   2.434   6.500   5.216 -1.0522  1.8064 -0.6492
 3864TIP3    H211534   2.373   6.376   5.154  0.0821  0.4957  0.7543
 3865TIP3   OH211535   5.023   1.480   0.484 -0.5788  0.2896 -0.1713
 3865TIP3    H111536   4.968   1.406   0.459 -0.7032  0.0622  0.7477
 3865TIP3    H211537   5.106   1.441   0.509 -0.9895  0.3339  1.3556
 3866TIP3   OH211538   4.479   3.684   0.732  0.6265 -0.2404  0.0076
 3866TIP3    H111539   4.554   3.684   0.672 -0.2653 -0.0077 -1.1391
 3866TIP3    H211540   4.431   3.604   0.709  0.4927 -0.3689  0.7159
 3867TIP3   OH211541   3.823   4.183   6.009  0.2884 -0.4586 -0.1350
 3867TIP3    H111542   3.909   4.167   5.971  1.0809  2.3125  0.2527
 3867TIP3    H211543   3.767   4.205   5.935  0.9136  1.3751 -0.1131
 3868TIP3   OH211544   8.052   7.548   1.432  0.2627 -0.5792 -0.5005
 3868TIP3    H111545   8.046   7.584   1.344  1.2229 -0.9906 -0.7520
 3868TIP3    H211546   7.970   7.573   1.474 -0.4799 -0.8829 -1.6997
 3869TIP3   OH211547   7.607   1.816   2.990 -0.0401 -0.3368  0.0561
 3869TIP3    H111548   7.660   1.790   2.915  0.2847 -2.3975  0.9344
 3869TIP3    H211549   7.521   1.777   2.974  0.3501 -1.7686  1.2347
 3870TIP3   OH211550   7.018   1.720   2.219 -0.4643  0.7572  0.4939
 3870TIP3    H111551   7.011   1.683   2.307 -0.5279 -0.3201  0.0504
 3870TIP3    H211552   6.928   1.719   2.186 -0.5697  1.9334  0.7073
 3871TIP3   OH211553   3.670   2.455   3.080 -0.0297  0.1223  0.2246
 3871TIP3    H111554   3.756   2.443   3.041  1.3733  0.5070  2.9372
 3871TIP3    H211555   3.683   2.524   3.146 -1.9565 -1.0495  1.9420
 3872TIP3   OH211556   1.747   0.308   2.274 -0.0111  0.0329  0.2493
 3872TIP3    H111557   1.787   0.235   2.226 -0.2156 -0.6076  1.0179
 3872TIP3    H211558   1.678   0.267   2.326  0.8848  0.4872  1.8996
 3873TIP3   OH211559   7.470   5.003   6.511  0.2808  0.3804  0.0521
 3873TIP3    H111560   7.521   5.055   6.573  1.3942 -0.9362  0.2918
 3873TIP3    H211561   7.404   4.960   6.565  1.6857 -1.3147  0.5104
 3874TIP3   OH211562   2.745   4.079   2.537  0.0343  0.8327 -0.0461
 3874TIP3    H111563   2.705   3.992   2.526  2.5753 -0.1810 -2.2505
 3874TIP3    H211564   2.785   4.076   2.624  3.0805 -1.6986 -1.3262
 3875TIP3   OH211565   5.268   5.469   5.288 -0.2442  0.4737  0.4001
 3875TIP3    H111566   5.277   5.525   5.365  1.1816  0.6202  0.1518
 3875TIP3    H211567   5.197   5.509   5.237 -0.0882  1.3290  0.8414
 3876TIP3   OH211568   6.392   3.953   4.911  0.2508  0.1417 -0.1408
 3876TIP3    H111569   6.364   4.044   4.904 -0.0718 -0.0890 -2.6871
 3876TIP3    H211570   6.337   3.906   4.849  0.6859 -1.7606  0.8359
 3877TIP3   OH211571   5.456   7.669   5.252 -0.3130  0.0964  0.3251
 3877TIP3    H111572   5.464   7.577   5.277 -1.7674  0.4981  2.5633
 3877TIP3    H211573   5.370   7.676   5.212 -1.7711  1.0134  3.3483
 3878TIP3   OH211574   0.285   5.419   5.150  0.4965 -0.2664 -0.1715
 3878TIP3    H111575   0.273   5.379   5.236  2.3290 -0.2581  0.1209
 3878TIP3    H211576   0.377   5.405   5.130 -0.0299 -0.9003 -2.4611
 3879TIP3   OH211577   0.465   6.765   1.012  0.6601 -0.5824 -0.1910
 3879TIP3    H111578   0.429   6.816   0.939 -2.9984 -1.0318  1.0958
 3879TIP3    H211579   0.445   6.674   0.989  1.4659 -0.9117  0.3787
 3880TIP3   OH211580   1.718   6.626   5.233  0.5344  0.3548 -0.9002
 3880TIP3    H111581   1.644   6.625   5.294  0.2758 -0.0640 -1.2088
 3880TIP3    H211582   1.781   6.686   5.272  0.3997  0.0404 -0.1923
 3881TIP3   OH211583   3.175   4.726   4.632 -0.2384 -0.0521  0.6505
 3881TIP3    H111584   3.147   4.645   4.590  0.0820  1.2658 -2.3576
 3881TIP3    H211585   3.097   4.758   4.677 -0.8285 -1.1996  0.4707
 3882TIP3   OH211586   6.339   2.311   2.538 -0.2594 -0.3995  0.2618
 3882TIP3    H111587   6.267   2.372   2.521 -0.2066  0.4244  2.6130
 3882TIP3    H211588   6.304   2.250   2.603  0.4153 -1.5296 -0.4015
 3883TIP3   OH211589   3.095   4.711   4.311 -0.0146 -0.0499  0.1176
 3883TIP3    H111590   3.075   4.787   4.366  0.3861 -0.0324  0.2452
 3883TIP3    H211591   3.014   4.694   4.262  0.3110  1.3076 -0.9381
 3884TIP3   OH211592   7.988   1.047   3.925  0.1085 -0.5962  0.2626
 3884TIP3    H111593   8.067   1.096   3.901 -1.0745  1.2923  0.0369
 3884TIP3    H211594   7.987   1.046   4.020  0.8078 -1.3718  0.2775
 3885TIP3   OH211595   6.568   2.269   5.186  0.3328  0.0568 -0.3449
 3885TIP3    H111596   6.485   2.234   5.219  0.9911 -0.2641  1.0610
 3885TIP3    H211597   6.626   2.193   5.182  0.8740  0.4598 -0.2658
 3886TIP3   OH211598   7.050   0.459   2.866  0.4379 -0.4093 -0.1786
 3886TIP3    H111599   7.066   0.521   2.937 -0.3076 -0.9182  0.4588
 3886TIP3    H211600   7.052   0.373   2.909 -2.5044 -0.6061 -0.2460
 3887TIP3   OH211601   6.710   3.875   0.356  0.3497 -0.1660  0.2938
 3887TIP3    H111602   6.662   3.860   0.437  0.0657  1.0349  0.3548
 3887TIP3    H211603   6.670   3.953   0.318  1.8280  0.4817  0.0119
 3888TIP3   OH211604   1.214   2.252   6.672 -0.0776 -0.3534 -0.1310
 3888TIP3    H111605   1.300   2.258   6.713  0.3125 -1.6427 -0.7184
 3888TIP3    H211606   1.164   2.194   6.729 -0.2558 -0.3699 -0.3050
 3889TIP3   OH211607   2.925   2.585   5.870  0.1246 -0.1208  0.7382
 3889TIP3    H111608   2.879   2.522   5.816 -0.6698 -0.5192  1.8373
 3889TIP3    H211609   2.964   2.647   5.808 -1.6218  0.0499 -0.2490
 3890TIP3   OH211610   4.137   5.019   2.770 -0.1206  0.2729  0.1204
 3890TIP3    H111611   4.086   5.070   2.706 -1.8522 -0.6813  0.6582
 3890TIP3    H211612   4.112   4.928   2.753  1.0112 -0.1832  0.7958
 3891TIP3   OH211613   5.687   5.587   5.331 -0.1760 -0.4507 -0.2686
 3891TIP3    H111614   5.758   5.649   5.344  1.1870 -1.9853 -0.1209
 3891TIP3    H211615   5.654   5.568   5.419 -0.0537 -0.5368 -0.2413
 3892TIP3   OH211616   5.643   4.161   1.488  0.0304 -0.1599  0.3171
 3892TIP3    H111617   5.572   4.100   1.468 -0.5469  0.7400 -0.4108
 3892TIP3    H211618   5.602   4.232   1.537  0.0812  1.1742 -1.4928
 3893TIP3   OH211619   1.795   2.952   3.643  0.4119  0.5993  0.1988
 3893TIP3    H111620   1.867   2.985   3.696  0.2790 -1.4156  1.7655
 3893TIP3    H211621   1.823   2.865   3.616 -1.4453 -0.3135  0.9989
 3894TIP3   OH211622   0.163   7.848   1.601  0.0607  0.1794  0.2609
 3894TIP3    H111623   0.149   7.799   1.682 -0.8846  0.2092  0.1289
 3894TIP3    H211624   0.221   7.793   1.549 -1.2912 -1.0023 -0.0490
 3895TIP3   OH211625   2.308   1.779   2.735 -0.4902  0.0152  0.6400
 3895TIP3    H111626   2.378   1.780   2.670 -0.8910  4.3871 -0.0300
 3895TIP3    H211627   2.353   1.772   2.819  0.3968 -0.9064  0.1146
 3896TIP3   OH211628   4.922   7.728   3.637 -0.0082 -0.3473 -0.1098
 3896TIP3    H111629   4.839   7.775   3.630  0.8550  1.1277 -1.1625
 3896TIP3    H211630   4.976   7.766   3.567  1.3090 -1.7651  0.0940
 3897TIP3   OH211631   6.626   3.301   2.373  0.0443  0.0744  0.1549
 3897TIP3    H111632   6.720   3.300   2.351 -0.0246 -1.5900 -0.1898
 3897TIP3    H211633   6.594   3.383   2.336  1.4482  0.8942  0.6834
 3898TIP3   OH211634   7.531   1.413   4.371  0.6129  0.5045  0.7429
 3898TIP3    H111635   7.493   1.480   4.314  1.1762  0.5442  0.4023
 3898TIP3    H211636   7.479   1.335   4.354 -1.7986  1.4447  3.0737
 3899TIP3   OH211637   6.453   3.139   1.825  0.0416 -0.1579  0.8603
 3899TIP3    H111638   6.506   3.196   1.770  2.4895 -1.4264  1.7632
 3899TIP3    H211639   6.411   3.198   1.887  0.1585  0.9100 -0.0471
 3900TIP3   OH211640   3.267   1.367   3.415 -0.0229 -0.4469  0.6122
 3900TIP3    H111641   3.298   1.446   3.458  0.9285 -0.2394 -0.3951
 3900TIP3    H211642   3.184   1.392   3.375  1.1889  0.6651 -1.3495
 3901TIP3   OH211643   3.880   4.967   1.019 -0.1009 -0.0418 -0.1794
 3901TIP3    H111644   3.930   5.038   0.979  1.5296 -0.8152  0.3847
 3901TIP3    H211645   3.885   4.984   1.113  0.8452 -1.2250  0.0012
 3902TIP3   OH211646   0.136   1.831   4.293  0.3624 -0.0342 -0.3476
 3902TIP3    H111647   0.086   1.803   4.369 -0.8804  0.3978 -0.9668
 3902TIP3    H211648   0.071   1.836   4.222  1.1887  0.9767 -1.0754
 3903TIP3   OH211649   5.090   0.048   4.455  0.1032  0.3247 -0.2435
 3903TIP3    H111650   5.058   0.064   4.367  1.7426 -1.2720 -1.1988
 3903TIP3    H211651   5.185   0.045   4.447  0.3727  1.2184  1.8000
 3904TIP3   OH211652   0.594   2.329   6.719 -0.4599  0.3278  0.0308
 3904TIP3    H111653   0.597   2.338   6.814 -2.4310 -1.1047  0.3097
 3904TIP3    H211654   0.505   2.355   6.696 -1.0912 -2.3951 -0.9647
 3905TIP3   OH211655   5.499   1.311   2.365  0.0469 -0.0204 -0.4385
 3905TIP3    H111656   5.536   1.366   2.434  1.0351 -0.5191 -0.5584
 3905TIP3    H211657   5.555   1.234   2.362 -0.5106 -0.4152 -1.1967
 3906TIP3   OH211658   5.615   1.850   3.240 -0.7128 -0.2925  0.5102
 3906TIP3    H111659   5.657   1.791   3.304  0.4603  1.6096  1.6174
 3906TIP3    H211660   5.570   1.915   3.294  0.2357  1.3307 -0.5683
 3907TIP3   OH211661   4.663   2.783   6.053 -0.4114  0.0554  0.5640
 3907TIP3    H111662   4.594   2.849   6.063  0.2041  0.6938  0.7076
 3907TIP3    H211663   4.709   2.785   6.137 -0.0150 -0.1259  0.3486
 3908TIP3   OH211664   1.806   2.508   0.109  0.0306  0.0169  0.2152
 3908TIP3    H111665   1.793   2.577   0.175  0.9183 -0.2779  0.7279
 3908TIP3    H211666   1.842   2.554   0.033 -0.7537  0.3238  0.0261
 3909TIP3   OH211667   5.953   7.910  -0.029 -0.7414 -0.3176 -0.5671
 3909TIP3    H111668   5.960   7.990   0.025 -0.1931 -0.8314  0.1518
 3909TIP3    H211669   5.947   7.839   0.035 -0.5953 -0.9036 -1.1990
 3910TIP3   OH211670   4.897   2.804   0.372 -0.3197 -0.2997  0.0977
 3910TIP3    H111671   4.985   2.819   0.337  0.1245 -0.6333  1.0373
 3910TIP3    H211672   4.855   2.747   0.308  0.3455 -0.6131 -0.0657
 3911TIP3   OH211673   1.082   1.331   4.992 -0.0634 -0.1632  0.3871
 3911TIP3    H111674   1.003   1.314   4.940 -0.1796  0.3326  0.4031
 3911TIP3    H211675   1.063   1.413   5.038  1.7398  1.8702 -2.2044
 3912TIP3   OH211676   2.717   4.664   6.352  0.4156 -0.8147 -0.0253
 3912TIP3    H111677   2.682   4.601   6.290  1.4756 -2.8066  1.2699
 3912TIP3    H211678   2.644   4.722   6.372 -0.7893 -2.0224 -0.7972
 3913TIP3   OH211679   7.816   0.563   4.395 -0.2210 -0.3711  0.4921
 3913TIP3    H111680   7.818   0.471   4.419  0.1718 -0.6170 -0.4351
 3913TIP3    H211681   7.900   0.598   4.423 -0.0682 -0.4807  0.1831
 3914TIP3   OH211682   8.321   7.902   5.412 -0.4829 -0.1284  0.5129
 3914TIP3    H111683   8.263   7.895   5.487 -0.8183 -0.3104  0.2375
 3914TIP3    H211684   8.266   7.938   5.342  0.0874  1.0585  0.6476
 3915TIP3   OH211685   6.947   3.652   2.042 -0.5380  0.5210 -0.1628
 3915TIP3    H111686   7.039   3.645   2.017  0.4773  0.7473  3.0394
 3915TIP3    H211687   6.920   3.563   2.064 -0.0000  0.8336  2.0105
 3916TIP3   OH211688   2.260   2.369   0.452 -0.1935  0.1194 -0.2586
 3916TIP3    H111689   2.336   2.355   0.396  0.5979  2.4087  0.1454
 3916TIP3    H211690   2.281   2.323   0.533 -0.1927 -0.9719 -0.8460
 3917TIP3   OH211691   2.475   0.903   3.893  0.2662 -0.0717  0.0397
 3917TIP3    H111692   2.458   0.810   3.908  1.4783 -0.3741 -0.3539
 3917TIP3    H211693   2.534   0.929   3.964 -3.1377  1.4523  2.5596
 3918TIP3   OH211694   6.954   5.057   3.022  0.1085  0.6371  0.2127
 3918TIP3    H111695   6.876   5.092   2.978 -1.2218 -0.2690  1.7151
 3918TIP3    H211696   6.949   5.092   3.111  0.1218 -1.2161  1.0075
 3919TIP3   OH211697   4.680   6.007   2.936  0.6838  0.2500  0.1627
 3919TIP3    H111698   4.642   6.001   3.023 -1.5242 -0.8587 -0.8000
 3919TIP3    H211699   4.750   6.072   2.945 -0.2506  1.0559  2.4801
 3920TIP3   OH211700   3.430   6.940   4.960 -0.6323 -0.6469  0.1207
 3920TIP3    H111701   3.483   6.860   4.961 -0.3955 -0.5289  2.5539
 3920TIP3    H211702   3.380   6.937   5.041 -1.4176  1.1793 -0.2449
 3921TIP3   OH211703   1.699   2.785   2.381  0.2957  0.1947 -0.0580
 3921TIP3    H111704   1.748   2.867   2.382  1.6269 -0.5659 -0.6350
 3921TIP3    H211705   1.609   2.811   2.401  0.5754  1.8618 -0.7888
 3922TIP3   OH211706   3.720   0.225   3.497  0.1012  0.6722 -0.5595
 3922TIP3    H111707   3.793   0.212   3.436  0.0821  0.2415 -0.4943
 3922TIP3    H211708   3.642   0.204   3.446  0.0701  0.5062 -0.4416
 3923TIP3   OH211709   1.631   0.433   6.125  0.1051  0.1707 -0.0489
 3923TIP3    H111710   1.723   0.449   6.108 -0.2634  0.6129 -1.7923
 3923TIP3    H211711   1.584   0.482   6.057 -1.4360  0.2625  1.0169
 3924TIP3   OH211712   6.910   3.836   3.301  0.0241 -0.1494 -0.4671
 3924TIP3    H111713   6.929   3.875   3.215 -0.4259 -0.4714 -0.7202
 3924TIP3    H211714   6.890   3.744   3.281 -0.8186 -0.0529 -0.1031
 3925TIP3   OH211715   4.578   3.533   3.105  0.1560  0.1793 -0.3602
 3925TIP3    H111716   4.511   3.583   3.057 -0.6395 -0.8760 -0.4042
 3925TIP3    H211717   4.561   3.442   3.080  1.1372 -0.1741  0.2316
 3926TIP3   OH211718   6.710   7.076   1.628  0.0791 -0.0072 -0.6771
 3926TIP3    H111719   6.680   7.097   1.540  1.0748  1.3087 -0.7494
 3926TIP3    H211720   6.805   7.065   1.619  0.5265  2.2511  0.5169
 3927TIP3   OH211721   3.268   3.066   0.292 -0.2566 -0.2037 -0.5356
 3927TIP3    H111722   3.348   3.097   0.335  0.2912 -1.4572 -0.6048
 3927TIP3    H211723   3.294   3.051   0.201 -0.9669  0.7834 -0.9183
 3928TIP3   OH211724   6.795   0.740   2.191 -0.4730  0.4068  0.5255
 3928TIP3    H111725   6.785   0.819   2.245  2.4190 -0.0457  1.9008
 3928TIP3    H211726   6.816   0.774   2.104 -1.1312  1.1251  0.6297
 3929TIP3   OH211727   4.994   0.285   0.174 -0.0500 -0.1035 -0.1700
 3929TIP3    H111728   4.976   0.201   0.131 -1.9443  0.4941 -0.6630
 3929TIP3    H211729   4.982   0.350   0.105  1.8470  0.5939  0.0895
 3930TIP3   OH211730   6.204   0.737   1.443  0.0678 -0.2884  0.5536
 3930TIP3    H111731   6.266   0.779   1.503 -0.9152 -0.4649  1.7342
 3930TIP3    H211732   6.125   0.725   1.495 -0.5901 -1.0913 -0.5861
 3931TIP3   OH211733   4.625   6.915   5.272 -0.2124 -0.2111 -0.5338
 3931TIP3    H111734   4.585   6.966   5.343  1.0203 -1.3728  1.0594
 3931TIP3    H211735   4.559   6.848   5.251 -0.5890  0.1505 -0.5303
 3932TIP3   OH211736   7.747   3.399   5.057 -0.1742  0.6103  0.5433
 3932TIP3    H111737   7.774   3.488   5.038 -0.5114  0.6296  0.1344
 3932TIP3    H211738   7.698   3.371   4.979  1.3294 -0.5157 -0.0386
 3933TIP3   OH211739   3.701   0.921   1.338 -0.3813  0.2329 -0.2085
 3933TIP3    H111740   3.777   0.872   1.370  0.6599  2.0681  0.3259
 3933TIP3    H211741   3.717   0.931   1.244 -0.0398  0.4427 -0.1316
 3934TIP3   OH211742   4.220   3.799   5.479 -0.1694  0.3820 -0.0533
 3934TIP3    H111743   4.275   3.817   5.555  0.2847  1.2402 -0.5784
 3934TIP3    H211744   4.262   3.846   5.407 -1.4066  0.7797 -0.5332
 3935TIP3   OH211745   0.976   2.906   1.762  0.1518 -0.4328  0.7724
 3935TIP3    H111746   0.974   2.954   1.846 -0.9454 -1.7775  1.5600
 3935TIP3    H211747   0.884   2.902   1.736  0.4822 -0.1244 -0.4729
 3936TIP3   OH211748   1.751   5.572   2.851 -0.0592  0.1382 -0.5043
 3936TIP3    H111749   1.807   5.495   2.844 -1.1498 -0.7140 -0.2128
 3936TIP3    H211750   1.782   5.631   2.783  2.0258  0.2694  0.4926
 3937TIP3   OH211751   5.889   6.463   2.507 -0.2970 -0.9234 -0.5047
 3937TIP3    H111752   5.800   6.493   2.485 -0.1116 -0.1317 -0.2227
 3937TIP3    H211753   5.894   6.375   2.471 -1.7972 -1.6764  0.9788
 3938TIP3   OH211754   8.049   3.476   3.950  0.0503 -0.3984 -0.2193
 3938TIP3    H111755   8.034   3.528   4.029  1.4204 -0.6901  0.2653
 3938TIP3    H211756   8.003   3.393   3.968 -1.3850  0.2825 -0.6241
 3939TIP3   OH211757   1.392   4.021   0.646  0.0713 -0.0472  0.1751
 3939TIP3    H111758   1.384   4.096   0.705 -0.5975 -0.0323  0.0684
 3939TIP3    H211759   1.386   4.059   0.558  2.4640  0.1180  0.0150
 3940TIP3   OH211760   7.632   2.313   6.369 -0.0523  0.0988  0.2266
 3940TIP3    H111761   7.626   2.231   6.417  0.5633  0.6072  1.2082
 3940TIP3    H211762   7.581   2.375   6.421  2.4787  1.2174  1.5455
 3941TIP3   OH211763   0.648   2.472   1.136 -0.2477  0.1079  0.5214
 3941TIP3    H111764   0.669   2.506   1.223  1.7288 -2.6839  1.2882
 3941TIP3    H211765   0.626   2.550   1.085 -0.7919  1.9258  3.2991
 3942TIP3   OH211766   5.223   1.138   5.203 -0.2603 -0.2889  0.0279
 3942TIP3    H111767   5.281   1.157   5.129  0.7895  1.2799  1.2026
 3942TIP3    H211768   5.208   1.043   5.197  2.2460 -0.7372 -0.4679
 3943TIP3   OH211769   7.174   3.358   5.136  0.4125 -0.0474 -0.2664
 3943TIP3    H111770   7.204   3.390   5.221  1.8156 -0.2081 -0.6830
 3943TIP3    H211771   7.108   3.422   5.108  0.7495  0.6145  0.4271
 3944TIP3   OH211772   1.630   4.583   0.590 -0.0487 -0.8681 -0.0351
 3944TIP3    H111773   1.706   4.602   0.536  0.2766 -0.9417  0.3968
 3944TIP3    H211774   1.616   4.488   0.580 -0.6757 -0.6995 -0.8810
 3945TIP3   OH211775   7.375   1.957   2.528  0.2867  0.2838  0.1228
 3945TIP3    H111776   7.335   2.027   2.581 -0.0691 -0.6614  1.1309
 3945TIP3    H211777   7.469   1.968   2.540  0.2175  0.3137  0.6466
 3946TIP3   OH211778   0.927   4.848   6.773 -0.1560 -0.1682  0.4420
 3946TIP3    H111779   0.916   4.874   6.682  0.2171  0.0901  0.4658
 3946TIP3    H211780   1.022   4.851   6.787 -0.2741  0.7961  1.1258
 3947TIP3   OH211781   0.759   0.705   5.193 -0.0716 -0.5553  0.4213
 3947TIP3    H111782   0.769   0.787   5.146  0.1498 -0.9151 -0.1739
 3947TIP3    H211783   0.798   0.639   5.135 -0.7678 -1.1627  0.6220
 3948TIP3   OH211784   8.183   6.177   6.590  0.1766  0.8245 -0.2971
 3948TIP3    H111785   8.177   6.102   6.532 -1.9055 -0.1548  1.0692
 3948TIP3    H211786   8.144   6.249   6.542 -0.5922  0.2795 -0.4943
 3949TIP3   OH211787   0.966   1.482   4.588  0.4131 -0.8717  0.0023
 3949TIP3    H111788   0.941   1.563   4.545  3.0551 -0.8699 -1.7881
 3949TIP3    H211789   0.974   1.418   4.517  1.2824 -1.8988  0.9637
 3950TIP3   OH211790   5.869   2.291   1.260 -0.1077 -0.2943  0.4928
 3950TIP3    H111791   5.838   2.329   1.177  2.3118  0.1667 -0.2991
 3950TIP3    H211792   5.961   2.270   1.243  0.4690 -0.1712  3.0750
 3951TIP3   OH211793   5.235   1.329   0.875 -0.2184  0.0682 -0.3193
 3951TIP3    H111794   5.289   1.283   0.939 -0.6628 -0.1574 -0.0984
 3951TIP3    H211795   5.259   1.421   0.886 -1.9613  0.3624  1.8953
 3952TIP3   OH211796   1.547   6.812   3.151  0.1733 -0.4224  0.4988
 3952TIP3    H111797   1.469   6.839   3.103 -1.3307  0.1529  3.1019
 3952TIP3    H211798   1.589   6.894   3.177  0.4481 -0.7059  0.9573
 3953TIP3   OH211799   7.131   3.550   1.749 -0.1795  0.8074  0.3121
 3953TIP3    H111800   7.041   3.578   1.731 -0.8364 -0.9135  0.7848
 3953TIP3    H211801   7.143   3.472   1.696  1.7427  2.0499 -1.2462
 3954TIP3   OH211802   5.678   0.303   3.110  0.0318 -0.2698 -0.0340
 3954TIP3    H111803   5.612   0.372   3.103 -0.1819 -0.5417 -0.8905
 3954TIP3    H211804   5.639   0.237   3.167 -0.5792 -0.5720 -0.7857
 3955TIP3   OH211805   7.709   4.644   4.133 -0.0648 -0.1601  0.0995
 3955TIP3    H111806   7.670   4.667   4.218  2.2626  0.9455  0.9406
 3955TIP3    H211807   7.748   4.558   4.148 -0.2146 -0.2580 -0.0681
 3956TIP3   OH211808   0.532   1.515   5.141  0.0492 -0.3375  0.4630
 3956TIP3    H111809   0.539   1.573   5.066 -1.3776  0.4640  0.9148
 3956TIP3    H211810   0.457   1.459   5.122 -0.2720 -0.1877  1.2290
 3957TIP3   OH211811   6.521   1.418   4.222 -0.5575 -0.0442 -0.3189
 3957TIP3    H111812   6.465   1.452   4.292  0.5688  0.6014  0.2967
 3957TIP3    H211813   6.553   1.335   4.255 -0.6906 -0.1382 -0.4254
 3958TIP3   OH211814   5.588   2.254   6.057 -0.4209 -0.3168 -0.2837
 3958TIP3    H111815   5.610   2.162   6.070  0.7162 -0.1194 -0.6985
 3958TIP3    H211816   5.492   2.256   6.057 -0.4599 -1.3741  0.5390
 3959TIP3   OH211817   4.526   4.942   3.918 -0.4445 -0.1270  0.5168
 3959TIP3    H111818   4.444   4.910   3.881 -0.7486  0.4850  0.6387
 3959TIP3    H211819   4.515   4.932   4.013 -0.8285  0.9619  0.6034
 3960TIP3   OH211820   8.199   0.354   2.166  0.1949 -0.2853 -0.1315
 3960TIP3    H111821   8.193   0.262   2.141 -0.7659 -0.4030  0.5059
 3960TIP3    H211822   8.188   0.354   2.261  0.8898  0.4295 -0.0411
 3961TIP3   OH211823   5.757   1.826   0.450  0.3804  0.3399 -0.1130
 3961TIP3    H111824   5.817   1.760   0.484 -0.6307 -0.8874 -0.5941
 3961TIP3    H211825   5.808   1.874   0.384 -0.0695 -3.2240 -3.4747
 3962TIP3   OH211826   1.148   4.032   1.567 -0.6666 -0.1188  0.7259
 3962TIP3    H111827   1.150   4.011   1.661 -0.7299  1.1356  1.0275
 3962TIP3    H211828   1.126   3.949   1.525  1.1191 -1.1285  1.6718
 3963TIP3   OH211829   3.037   5.490   6.346  0.2847  0.3655 -0.2305
 3963TIP3    H111830   3.065   5.471   6.257  1.3535  0.5482  0.0490
 3963TIP3    H211831   3.117   5.487   6.398 -0.3072  0.3492  0.7120
 3964TIP3   OH211832   2.204   0.951   0.249  0.6005 -0.1462 -0.3497
 3964TIP3    H111833   2.255   0.882   0.291  0.2964 -0.1486  0.0271
 3964TIP3    H211834   2.185   1.013   0.320  3.8278  2.1734 -1.2948
 3965TIP3   OH211835   7.701   5.661   0.365 -0.0047 -0.2277  0.1513
 3965TIP3    H111836   7.796   5.670   0.377  0.2364 -0.8747 -1.1407
 3965TIP3    H211837   7.687   5.675   0.271 -1.2633  0.3663  0.4102
 3966TIP3   OH211838   3.960   6.242   2.563 -0.0255  0.4695 -0.2757
 3966TIP3    H111839   3.948   6.281   2.477  0.7741 -0.2200 -0.7195
 3966TIP3    H211840   3.873   6.210   2.587 -0.5096  1.7520 -0.2679
 3967TIP3   OH211841   2.264   0.116   0.790  0.1977 -0.3145 -0.2048
 3967TIP3    H111842   2.231   0.075   0.710 -0.8351  0.5812 -0.2636
 3967TIP3    H211843   2.307   0.045   0.838  0.8764 -0.8573 -1.5602
 3968TIP3   OH211844   6.476   1.584   0.143 -0.2262  0.1087  0.4211
 3968TIP3    H111845   6.498   1.598   0.051 -2.0241 -2.1074 -0.4522
 3968TIP3    H211846   6.385   1.614   0.151  0.2507  1.3255  1.8026
 3969TIP3   OH211847   2.082   5.393   2.885  0.0274  0.1921  0.0715
 3969TIP3    H111848   2.125   5.444   2.953  1.4631  0.9373 -1.3341
 3969TIP3    H211849   1.993   5.381   2.916  0.9000 -0.3728  2.5483
 3970TIP3   OH211850   6.440   2.875   4.115  0.0937  0.0496 -0.6565
 3970TIP3    H111851   6.502   2.806   4.137 -0.1109  0.1417  0.2494
 3970TIP3    H211852   6.413   2.856   4.025  1.0018 -0.3072 -0.8660
 3971TIP3   OH211853   6.616   6.657   1.165  0.2142  0.0197 -0.2730
 3971TIP3    H111854   6.569   6.605   1.099 -0.9739 -0.1590  0.6698
 3971TIP3    H211855   6.559   6.732   1.182  0.1732 -0.2669  0.9919
 3972TIP3   OH211856   0.088   1.038   0.776 -0.5433 -0.3048  0.1384
 3972TIP3    H111857   0.113   1.100   0.844 -0.9622  0.4330 -0.3598
 3972TIP3    H211858  -0.007   1.047   0.768 -1.0413 -2.8819  1.8233
 3973TIP3   OH211859   1.266   2.161   0.650 -0.0314  0.4477 -0.2165
 3973TIP3    H111860   1.189   2.188   0.601 -0.0481  2.8120  0.9607
 3973TIP3    H211861   1.295   2.240   0.696  3.3884 -0.1806 -0.9680
 3974TIP3   OH211862   5.537   4.000   0.860  0.0272  0.3732 -0.5796
 3974TIP3    H111863   5.482   4.002   0.782 -0.4191  1.4064 -0.2607
 3974TIP3    H211864   5.538   4.091   0.891  1.6585  0.3220 -0.3907
 3975TIP3   OH211865   5.487   3.929   1.480 -0.7732 -0.0155  0.2278
 3975TIP3    H111866   5.416   3.888   1.430 -1.7673  1.5624  0.2589
 3975TIP3    H211867   5.479   3.892   1.568 -0.7023 -0.8280 -0.0962
 3976TIP3   OH211868   1.306   2.772   4.429 -0.1979 -0.1076  0.7091
 3976TIP3    H111869   1.345   2.708   4.370  2.0373  0.4364  1.4763
 3976TIP3    H211870   1.319   2.735   4.517 -2.8804 -0.6072  0.9743
 3977TIP3   OH211871   6.984   2.550   3.238  0.6363  0.3830  0.0888
 3977TIP3    H111872   6.898   2.535   3.201  0.5251  1.7973 -0.2767
 3977TIP3    H211873   7.031   2.467   3.226 -1.1285 -0.9113  1.6332
 3978TIP3   OH211874   4.333   3.221   4.242  0.0713  0.1688 -0.4372
 3978TIP3    H111875   4.404   3.191   4.185  1.3066  1.5437  0.3115
 3978TIP3    H211876   4.345   3.171   4.323  1.0300  1.3226  0.1620
 3979TIP3   OH211877   1.168   4.987   3.337  0.1652  0.4700  0.2416
 3979TIP3    H111878   1.094   4.977   3.277  0.0473  0.4854  0.3843
 3979TIP3    H211879   1.217   5.062   3.303  1.7381 -1.2741 -1.5680
 3980TIP3   OH211880   8.220   3.967   2.805  0.1350  0.4725  0.1529
 3980TIP3    H111881   8.211   3.874   2.823  0.8036  0.6095  1.2895
 3980TIP3    H211882   8.266   3.971   2.722 -1.1604 -0.1947 -0.6347
 3981TIP3   OH211883   7.815   2.485   5.293 -0.0445 -0.2152 -0.4092
 3981TIP3    H111884   7.908   2.491   5.269  0.7799 -0.3247  2.4362
 3981TIP3    H211885   7.814   2.494   5.388 -2.9966 -0.1348 -0.3646
 3982TIP3   OH211886   4.994   1.458   5.923  0.6298  0.1511  0.4081
 3982TIP3    H111887   5.010   1.391   5.857  1.1035 -0.8547  1.4919
 3982TIP3    H211888   5.033   1.538   5.887  1.8189 -0.6218 -0.0758
 3983TIP3   OH211889   6.435   5.007   3.253  0.1652 -0.3319  0.9800
 3983TIP3    H111890   6.404   5.015   3.343 -1.1800  1.4428  0.4054
 3983TIP3    H211891   6.416   4.916   3.229  2.1928 -1.4009  3.0020
 3984TIP3   OH211892   0.297   2.833   6.067  0.1161 -0.0873  0.7678
 3984TIP3    H111893   0.241   2.768   6.109  1.4185 -1.1459  0.9231
 3984TIP3    H211894   0.361   2.857   6.135 -0.4645  1.5458  0.7885
 3985TIP3   OH211895   1.015   2.313   4.339 -0.6590  0.7294  0.4954
 3985TIP3    H111896   0.997   2.240   4.398 -1.5904  0.9305  0.4736
 3985TIP3    H211897   0.955   2.299   4.265 -1.4328  1.9402  0.8656
 3986TIP3   OH211898   0.593   3.603   0.523 -0.1369  0.1243 -0.2694
 3986TIP3    H111899   0.621   3.537   0.459  1.7764  0.3227  0.3066
 3986TIP3    H211900   0.612   3.563   0.608 -0.3135  0.8473  0.1109
 3987TIP3   OH211901   6.726   6.321   2.528  0.1995 -0.2739 -0.2733
 3987TIP3    H111902   6.741   6.342   2.620  2.2331 -0.9866 -0.3975
 3987TIP3    H211903   6.672   6.394   2.496 -0.7218 -0.1118  1.4938
 3988TIP3   OH211904   8.253   2.294   1.533 -0.0426  0.4661  0.2011
 3988TIP3    H111905   8.276   2.379   1.571  0.8921  0.8714 -1.1874
 3988TIP3    H211906   8.312   2.232   1.575  0.9578  0.9006 -0.5301
 3989TIP3   OH211907   4.902   0.215   6.008  0.3265 -0.1058 -0.0615
 3989TIP3    H111908   4.889   0.151   6.077 -1.2550  0.7749  0.5049
 3989TIP3    H211909   4.960   0.281   6.046  0.4608 -0.2500 -0.0157
 3990TIP3   OH211910   5.913   3.188   5.488  0.6855  0.3894 -0.0227
 3990TIP3    H111911   5.972   3.256   5.522  0.4718  1.4881 -1.7133
 3990TIP3    H211912   5.826   3.214   5.519  0.8924 -0.4549  1.3072
 3991TIP3   OH211913   0.555   1.484   3.551  0.8750 -0.5423 -0.3547
 3991TIP3    H111914   0.496   1.434   3.495  2.1528 -2.3055 -0.2241
 3991TIP3    H211915   0.512   1.484   3.637 -0.8543  1.7576 -1.1265
 3992TIP3   OH211916   1.022   5.192   0.818 -0.0128  0.6568 -0.4227
 3992TIP3    H111917   1.009   5.261   0.884 -1.1549 -0.5293  0.6487
 3992TIP3    H211918   1.026   5.111   0.868 -1.1926 -0.3125 -1.8064
 3993TIP3   OH211919   5.826   3.597   4.334 -0.1657 -0.2200 -0.5779
 3993TIP3    H111920   5.919   3.613   4.347 -0.1284 -0.4670 -0.5360
 3993TIP3    H211921   5.806   3.523   4.391 -0.0388 -1.2122 -1.7855
 3994TIP3   OH211922   7.697   4.203   2.850 -0.1059 -0.7842 -0.1097
 3994TIP3    H111923   7.781   4.231   2.886 -0.5015  1.1113 -0.5679
 3994TIP3    H211924   7.690   4.111   2.874  2.8087 -1.4343 -1.4061
 3995TIP3   OH211925   4.010   5.973   6.205 -0.1017 -0.4430  0.0472
 3995TIP3    H111926   4.098   5.943   6.228 -0.2016  0.3060  1.5596
 3995TIP3    H211927   4.002   5.957   6.111  1.7605 -0.2688 -0.1743
 3996TIP3   OH211928   1.213   7.261   3.697 -0.1800 -0.3839 -0.5254
 3996TIP3    H111929   1.168   7.344   3.712  0.9864  0.1631  0.1089
 3996TIP3    H211930   1.158   7.214   3.634 -1.1139  0.6529 -0.5029
 3997TIP3   OH211931   0.985   5.072   1.458  0.0468  0.0809 -0.3340
 3997TIP3    H111932   0.903   5.099   1.498  0.3239 -0.8894  0.9571
 3997TIP3    H211933   0.960   5.035   1.373 -0.6461  1.4020 -0.7234
 3998TIP3   OH211934   6.377   0.721   3.982 -0.4046  0.3707 -0.2492
 3998TIP3    H111935   6.366   0.635   4.022 -0.5446 -0.6401 -2.3652
 3998TIP3    H211936   6.288   0.755   3.974 -0.3905  0.4948  0.0959
 3999TIP3   OH211937   1.017   1.963   5.660 -0.6581 -0.7758  0.1269
 3999TIP3    H111938   1.102   1.927   5.637  0.3365  0.9882  0.8301
 3999TIP3    H211939   1.021   1.975   5.755 -1.6049 -0.4607  0.1390
 4000TIP3   OH211940   7.578   7.712   4.175  0.1825 -0.4973 -0.1082
 4000TIP3    H111941   7.645   7.644   4.187  1.1269  0.1026 -1.7249
 4000TIP3    H211942   7.563   7.715   4.081  1.1146  2.3806 -0.2734
 4001TIP3   OH211943   6.255   4.268   5.209 -0.7262  0.1814  0.2524
 4001TIP3    H111944   6.209   4.186   5.226  0.6649 -1.4825 -3.1540
 4001TIP3    H211945   6.325   4.245   5.147  2.2170  3.2669  2.0419
 4002TIP3   OH211946   6.754   6.943   2.417  0.2065  0.1252 -0.2853
 4002TIP3    H111947   6.791   6.989   2.492 -0.7271  0.0029  0.2671
 4002TIP3    H211948   6.726   7.013   2.358  1.5515  0.2185 -0.8508
 4003TIP3   OH211949   2.020   2.358   0.286  0.0096  0.2827 -0.1737
 4003TIP3    H111950   2.030   2.277   0.236  0.5576 -0.1180  0.5597
 4003TIP3    H211951   2.080   2.348   0.360  0.2737  1.4763 -0.2113
 4004TIP3   OH211952   2.594   6.667   5.367 -0.5947 -0.3666  0.6423
 4004TIP3    H111953   2.624   6.633   5.451  0.6801 -2.4484 -0.5972
 4004TIP3    H211954   2.634   6.754   5.361 -1.3336  0.1477  2.4797
 4005TIP3   OH211955   5.216   6.062   5.500 -0.3239  0.8243 -0.7095
 4005TIP3    H111956   5.146   6.094   5.443 -1.8187 -2.6657 -1.0471
 4005TIP3    H211957   5.188   6.088   5.588 -1.0082  1.2183 -1.0304
 4006TIP3   OH211958   0.329   7.888   1.111  0.1705  0.2461 -0.4064
 4006TIP3    H111959   0.270   7.818   1.138 -0.7216  0.3017 -2.0892
 4006TIP3    H211960   0.313   7.959   1.173 -1.6348  0.3126 -0.9233
 4007TIP3   OH211961   7.011   6.287   6.223 -0.0617 -0.0312  0.0118
 4007TIP3    H111962   7.095   6.246   6.201 -0.1491 -0.1125 -0.1813
 4007TIP3    H211963   7.024   6.380   6.205  0.5797  0.2520  1.7880
 4008TIP3   OH211964   1.454   1.836   2.835 -1.3643  0.4792  0.3200
 4008TIP3    H111965   1.537   1.882   2.827 -2.3474  2.3905  0.6628
 4008TIP3    H211966   1.459   1.766   2.770  0.1542  1.0954 -0.2650
 4009TIP3   OH211967   5.883   4.557   2.057  0.1590 -0.1971  0.2702
 4009TIP3    H111968   5.962   4.610   2.046  0.1906 -0.2927  0.0376
 4009TIP3    H211969   5.903   4.499   2.131  0.9083 -1.3115 -0.7602
 4010TIP3   OH211970   1.873   2.949   1.546  0.2644 -0.2354  0.4115
 4010TIP3    H111971   1.907   3.030   1.586  0.7570 -0.8950  1.3683
 4010TIP3    H211972   1.885   2.882   1.613 -1.4733 -0.8322  0.1681
 4011TIP3   OH211973   2.382   0.761   3.272 -0.1233  0.0637  0.1968
 4011TIP3    H111974   2.374   0.738   3.179 -2.2931  1.6301 -0.0857
 4011TIP3    H211975   2.474   0.785   3.283 -0.1305  1.4139 -1.9888
 4012TIP3   OH211976   5.662   4.299   2.774  0.3053 -1.0207  0.2881
 4012TIP3    H111977   5.637   4.228   2.833 -0.2820 -2.2148 -1.3439
 4012TIP3    H211978   5.655   4.262   2.687 -0.7328  1.2652 -0.6787
 4013TIP3   OH211979   1.242   3.137   1.600 -0.2613  0.2481 -0.0943
 4013TIP3    H111980   1.281   3.155   1.514 -0.0948  1.6164  0.2328
 4013TIP3    H211981   1.317   3.129   1.659 -0.3807 -0.4576 -0.0390
 4014TIP3   OH211982   4.066   1.617   4.689  0.4007 -0.1483 -0.1320
 4014TIP3    H111983   4.057   1.530   4.728 -1.1898 -0.5181 -1.2211
 4014TIP3    H211984   4.156   1.643   4.709  0.1090 -0.8941  2.4749
 4015TIP3   OH211985   0.935   4.546   5.301 -0.0758  0.7011 -0.5147
 4015TIP3    H111986   0.883   4.469   5.323  1.1132 -0.1634 -0.6380
 4015TIP3    H211987   0.873   4.618   5.302 -1.7641 -0.6073 -2.9752
 4016TIP3   OH211988   7.771   3.612   1.484  0.3003 -0.2100 -0.3926
 4016TIP3    H111989   7.755   3.695   1.529  0.1796  0.5095 -1.7145
 4016TIP3    H211990   7.688   3.566   1.487  0.8917 -1.2844  2.2255
 4017TIP3   OH211991   0.128   6.370   6.115  0.6604  0.2428  0.4626
 4017TIP3    H111992   0.064   6.376   6.185  2.8195 -1.7975  2.7929
 4017TIP3    H211993   0.089   6.309   6.052 -0.1911 -0.0039  1.2047
 4018TIP3   OH211994   0.909   0.198   4.485 -0.1229 -0.1039 -0.1284
 4018TIP3    H111995   0.895   0.106   4.462 -0.4515  0.0407 -0.5272
 4018TIP3    H211996   0.824   0.229   4.516 -0.3964  0.4374 -1.3438
 4019TIP3   OH211997   4.087   2.772   0.895 -0.1643 -0.1183 -0.4658
 4019TIP3    H111998   3.994   2.753   0.911 -0.5517 -0.9591 -3.1104
 4019TIP3    H211999   4.115   2.704   0.834  2.6226 -0.6629  1.2566
 4020TIP3   OH212000   6.386   7.875   4.996 -0.5687 -0.4655 -0.2970
 4020TIP3    H112001   6.373   7.781   5.004  0.7149 -0.6312  0.1184
 4020TIP3    H212002   6.437   7.899   5.074 -0.2865  0.4474 -0.7476
 4021TIP3   OH212003   2.999   7.056   6.536  0.5465 -0.0199 -0.8272
 4021TIP3    H112004   2.943   7.115   6.585  2.0593 -0.7341  2.0139
 4021TIP3    H212005   3.088   7.085   6.555  1.2945 -0.0130 -3.7319
 4022TIP3   OH212006   3.007   6.802   6.460  0.3033  0.1272 -0.3042
 4022TIP3    H112007   2.966   6.757   6.534  0.7546 -0.3403 -0.3317
 4022TIP3    H212008   2.963   6.887   6.457  0.4071  0.2290  0.6174
 4023TIP3   OH212009   5.837   7.051   1.232 -0.3718 -0.1287  0.2935
 4023TIP3    H112010   5.855   7.049   1.326  0.2367 -0.5407  0.1749
 4023TIP3    H212011   5.743   7.068   1.226 -0.8079 -2.0023  1.0241
 4024TIP3   OH212012   7.608   1.034   1.982 -0.2378 -0.5368  0.4937
 4024TIP3    H112013   7.517   1.053   1.960  0.1649  1.4289  0.2659
 4024TIP3    H212014   7.610   0.941   2.001 -1.9282 -1.0052 -1.2888
 4025TIP3   OH212015   8.102   2.948   6.088  0.3006 -0.3992  0.5747
 4025TIP3    H112016   8.168   2.934   6.020 -1.6608  1.9343 -2.0294
 4025TIP3    H212017   8.123   3.033   6.125  0.0700 -0.6684  1.3390
 4026TIP3   OH212018   7.094   3.235   2.197 -0.1571  0.1917 -0.2822
 4026TIP3    H112019   7.031   3.258   2.128  0.2757 -0.7975 -1.0387
 4026TIP3    H212020   7.041   3.227   2.276 -0.5392  2.1686 -0.3088
 4027TIP3   OH212021   6.457   1.332   2.092  0.0700  0.2364 -0.1067
 4027TIP3    H112022   6.472   1.240   2.071  0.6169  0.2191  0.3464
 4027TIP3    H212023   6.396   1.331   2.165  1.3324  0.1771  0.9734
 4028TIP3   OH212024   0.270   7.098   2.601 -0.0171 -0.2570 -0.2621
 4028TIP3    H112025   0.257   7.146   2.519  1.2922 -1.8188 -1.4515
 4028TIP3    H212026   0.324   7.023   2.577 -0.3415 -1.2679  1.8862
 4029TIP3   OH212027   3.587   5.748   5.091  0.0898 -0.0316  0.3231
 4029TIP3    H112028   3.556   5.694   5.163 -0.1545 -1.4015 -0.7627
 4029TIP3    H212029   3.515   5.748   5.028  1.0854 -0.6542 -0.8559
 4030TIP3   OH212030   4.398   2.527   0.259 -0.5822 -0.3017  0.7627
 4030TIP3    H112031   4.490   2.507   0.276 -0.3207  0.8983  0.8998
 4030TIP3    H212032   4.352   2.494   0.336 -0.3052 -1.1063  0.5955
 4031TIP3   OH212033   0.683   2.877   1.756  0.0048 -0.7730  0.2977
 4031TIP3    H112034   0.647   2.848   1.840  0.1049 -0.8031  0.3307
 4031TIP3    H212035   0.606   2.902   1.704 -0.0737 -0.9717  0.3164
 4032TIP3   OH212036   6.269   1.371   5.277  0.0094  0.6797 -0.1415
 4032TIP3    H112037   6.247   1.340   5.365 -1.0432  1.1292 -0.2308
 4032TIP3    H212038   6.280   1.465   5.286 -0.5009  0.7848 -0.5606
 4033TIP3   OH212039   3.013   7.129   1.403 -0.0001 -0.3670  0.3352
 4033TIP3    H112040   2.951   7.062   1.375  0.4094 -0.4706 -0.3491
 4033TIP3    H212041   2.972   7.212   1.379 -1.3049 -0.2284  2.7352
 4034TIP3   OH212042   8.179   0.111   2.906 -0.3503 -0.4789  0.2848
 4034TIP3    H112043   8.183   0.197   2.864  0.1312  0.5867  2.4026
 4034TIP3    H212044   8.088   0.103   2.935  0.2122  0.5824  2.5046
 4035TIP3   OH212045   8.169   3.375   6.695  0.1780  0.3592  0.0248
 4035TIP3    H112046   8.146   3.465   6.673 -0.7402  0.4445  1.2117
 4035TIP3    H212047   8.258   3.382   6.731  0.5684  0.6083 -0.9630
 4036TIP3   OH212048   5.347   4.973   5.191  0.2119  0.1611  0.0851
 4036TIP3    H112049   5.344   4.882   5.163 -0.3201  0.1840  0.0419
 4036TIP3    H212050   5.354   4.969   5.287 -1.2338  0.0482  0.2171
 4037TIP3   OH212051   6.734   1.279   1.839  0.4949 -0.2262 -0.1135
 4037TIP3    H112052   6.788   1.303   1.764  1.9630 -1.6537  0.4158
 4037TIP3    H212053   6.649   1.320   1.822  1.1801  0.5565 -1.8933
 4038TIP3   OH212054   7.393   6.091   3.475 -0.0241  0.3240  0.1578
 4038TIP3    H112055   7.378   6.054   3.562  0.5313  0.1765  0.1966
 4038TIP3    H212056   7.488   6.085   3.463 -0.1816 -0.4985 -0.8305
 4039TIP3   OH212057   0.924   1.682   3.051 -0.2308  0.0106  0.3047
 4039TIP3    H112058   0.951   1.748   3.115 -1.3151 -0.9448  1.8301
 4039TIP3    H212059   0.913   1.730   2.969  0.7091  1.3735  0.9483
 4040TIP3   OH212060   4.809   1.106   6.367 -0.1604  0.0369 -0.1188
 4040TIP3    H112061   4.751   1.076   6.298  1.3356 -0.4873 -1.1992
 4040TIP3    H212062   4.864   1.172   6.326  1.2406 -0.8002  0.3251
 4041TIP3   OH212063   7.575   1.136   3.632  0.1675  0.6145 -0.2784
 4041TIP3    H112064   7.653   1.120   3.684  0.3617  0.8071 -0.5056
 4041TIP3    H212065   7.595   1.216   3.583  0.8054 -0.6083 -2.1542
 4042TIP3   OH212066   7.021   6.581   1.809  0.0204  0.1180  0.1038
 4042TIP3    H112067   7.016   6.676   1.795  0.9676  0.2367  0.5464
 4042TIP3    H212068   6.934   6.550   1.785 -0.3877  1.1303  0.1960
 4043TIP3   OH212069   2.623   7.630   1.106 -0.0128  0.2042  0.2770
 4043TIP3    H112070   2.643   7.724   1.103 -0.8233  0.3577 -1.0079
 4043TIP3    H212071   2.682   7.591   1.042 -1.8200  0.3066 -1.5625
 4044TIP3   OH212072   2.902   2.410   6.325 -0.5403  0.0656  0.6816
 4044TIP3    H112073   2.858   2.330   6.298  1.1518 -0.8095  0.4000
 4044TIP3    H212074   2.833   2.477   6.322 -2.4643 -1.6719  2.6998
 4045TIP3   OH212075   1.552   4.383   6.742 -0.2568  0.0415  0.2125
 4045TIP3    H112076   1.534   4.326   6.667 -0.1172  0.2530  0.0160
 4045TIP3    H212077   1.467   4.420   6.765 -0.4568 -0.7181  0.7328
 4046TIP3   OH212078   6.303   7.061   3.579  0.2514 -0.8572  0.5629
 4046TIP3    H112079   6.257   7.115   3.644  0.2322  0.1972 -0.2908
 4046TIP3    H212080   6.332   6.984   3.628 -1.4297 -1.0197  1.3995
 4047TIP3   OH212081   7.456   2.115   3.060 -0.3333  0.3259  0.9822
 4047TIP3    H112082   7.493   2.079   2.980 -2.0798  2.0519 -0.6971
 4047TIP3    H212083   7.500   2.067   3.130  0.4565 -2.0390 -0.9890
 4048TIP3   OH212084   0.505   4.160   6.345 -0.2088  0.5774 -0.2384
 4048TIP3    H112085   0.573   4.096   6.324 -0.0977  0.1693  1.2530
 4048TIP3    H212086   0.545   4.245   6.325  0.3576  0.2919 -0.3398
 4049TIP3   OH212087   8.438   1.533   5.376 -0.6847  0.3569  0.2497
 4049TIP3    H112088   8.415   1.562   5.287 -1.1568 -1.9023 -0.4418
 4049TIP3    H212089   8.355   1.530   5.423 -0.6054  0.3719  0.3915
 4050TIP3   OH212090   1.700   2.985   4.291 -0.3238  0.1404  0.5636
 4050TIP3    H112091   1.789   2.985   4.327 -0.3706  0.9093  0.6960
 4050TIP3    H212092   1.656   2.913   4.335 -0.1899  0.6611  1.5784
 4051TIP3   OH212093   3.642   4.869   6.416 -0.0723  0.0113  0.3053
 4051TIP3    H112094   3.670   4.890   6.327  1.7675  0.3000  0.9034
 4051TIP3    H212095   3.547   4.877   6.415 -0.1227 -0.4743 -1.7475
 4052TIP3   OH212096   0.965   5.598   3.978  0.3027  0.1740  0.0257
 4052TIP3    H112097   0.899   5.653   4.020  1.7772  1.1394  1.1524
 4052TIP3    H212098   0.914   5.537   3.924 -1.4251  1.9683 -0.4945
 4053TIP3   OH212099   2.064   0.129   5.436 -0.7721  0.5204 -0.1805
 4053TIP3    H112100   2.150   0.158   5.466  0.0019 -1.8207  0.0113
 4053TIP3    H212101   2.081   0.074   5.360 -2.1503  0.3701 -0.4139
 4054TIP3   OH212102   6.297   5.908   6.530  0.0140  0.1910  0.0493
 4054TIP3    H112103   6.256   5.962   6.462  0.5570  0.8982  0.2661
 4054TIP3    H212104   6.226   5.856   6.566 -0.4808  0.5849 -0.3426
 4055TIP3   OH212105   5.467   2.124   5.326  0.3530  0.1001  0.0849
 4055TIP3    H112106   5.523   2.161   5.395 -1.1449  0.4009  1.2076
 4055TIP3    H212107   5.378   2.139   5.358 -0.3605 -2.1314 -0.6706
 4056TIP3   OH212108   4.731   0.769   5.634 -0.2631 -0.5588  0.2422
 4056TIP3    H112109   4.797   0.706   5.604 -0.8252 -1.5884  1.1323
 4056TIP3    H212110   4.751   0.783   5.726 -1.1039 -0.6449  0.4439
 4057TIP3   OH212111   0.108   3.977   5.109  0.2946 -0.2460 -0.3007
 4057TIP3    H112112   0.163   3.961   5.032  0.4375 -0.4909 -0.1504
 4057TIP3    H212113   0.048   4.046   5.082 -1.6370 -2.3036 -1.6506
 4058TIP3   OH212114   1.230   1.970   6.549  0.4971  0.4742  0.0959
 4058TIP3    H112115   1.221   2.001   6.639  0.1750  0.1700  0.1753
 4058TIP3    H212116   1.187   2.037   6.495 -0.7450 -0.1158  0.3202
 4059TIP3   OH212117   3.309   4.799   2.053 -0.1906  0.0611 -0.0571
 4059TIP3    H112118   3.316   4.842   2.137 -0.8705 -0.0445  0.0585
 4059TIP3    H212119   3.399   4.775   2.030  0.0240  0.3304  0.5077
 4060TIP3   OH212120   1.349   2.649   4.666 -0.2667  0.0874  0.3945
 4060TIP3    H112121   1.372   2.572   4.614 -0.0747 -0.4776  1.2822
 4060TIP3    H212122   1.430   2.674   4.709 -0.5841  0.0283  1.0555
 4061TIP3   OH212123   0.512   3.234   3.434 -0.2097 -0.5021  0.3429
 4061TIP3    H112124   0.556   3.301   3.485 -0.0011 -0.1601 -0.2827
 4061TIP3    H212125   0.553   3.237   3.348 -2.0458  0.4605 -0.5651
 4062TIP3   OH212126   1.113   2.508   4.989 -0.3613 -0.0894  0.0890
 4062TIP3    H112127   1.021   2.513   5.016 -0.3518 -0.4891  0.2080
 4062TIP3    H212128   1.149   2.437   5.042 -0.7243 -1.9462 -1.9931
 4063TIP3   OH212129   7.347   1.772   1.707 -0.4760 -0.2543  0.0254
 4063TIP3    H112130   7.365   1.743   1.797  0.2135 -1.3936 -0.4629
 4063TIP3    H212131   7.400   1.852   1.697 -0.8938  0.1310  0.7587
 4064TIP3   OH212132   4.760   1.495   3.286 -0.4652 -0.1854 -0.0591
 4064TIP3    H112133   4.765   1.582   3.325 -1.7824  0.0266 -0.3239
 4064TIP3    H212134   4.669   1.467   3.300  0.3736 -2.3481  1.7698
 4065TIP3   OH212135   5.182   2.508   0.575  0.1923  0.3387  0.1390
 4065TIP3    H112136   5.115   2.540   0.635  0.6932  1.7024  0.0043
 4065TIP3    H212137   5.205   2.421   0.609 -0.5836  0.4705  1.0388
 4066TIP3   OH212138   8.223   0.886   3.221 -0.0356  0.3248 -0.0739
 4066TIP3    H112139   8.260   0.962   3.266  1.0536 -1.4065  2.1739
 4066TIP3    H212140   8.289   0.863   3.156  0.9889 -0.2548  1.1046
 4067TIP3   OH212141   3.155   0.054   3.298  0.0599  0.3391 -0.0077
 4067TIP3    H112142   3.204   0.071   3.218  1.7682  1.3436  1.1863
 4067TIP3    H212143   3.222   0.048   3.367 -1.2762 -1.1926  1.2605
 4068TIP3   OH212144   4.848   3.100   4.415 -0.0604  0.0978 -0.3282
 4068TIP3    H112145   4.894   3.175   4.378  0.2519  1.2003  2.0575
 4068TIP3    H212146   4.908   3.065   4.481 -1.2588 -0.5338  0.4766
 4069TIP3   OH212147   2.810   6.661   5.976  0.0437  0.2950  0.9073
 4069TIP3    H112148   2.833   6.721   5.905 -0.4412  1.0212  1.3452
 4069TIP3    H212149   2.775   6.583   5.932 -1.7755  1.3692  0.3302
 4070TIP3   OH212150   8.196   0.878   5.244 -0.3807  0.1446 -0.5387
 4070TIP3    H112151   8.140   0.951   5.219 -0.4934  0.5289  0.7977
 4070TIP3    H212152   8.139   0.818   5.291  0.5130  1.1363  1.9744
 4071TIP3   OH212153   6.928   1.506   5.397  0.0122 -0.1803 -0.0011
 4071TIP3    H112154   6.946   1.472   5.485  1.3393  0.4883  0.0097
 4071TIP3    H212155   6.964   1.440   5.338  0.2897 -0.0182 -0.0158
 4072TIP3   OH212156   4.553   1.022   3.844 -0.0989  0.6285  0.0052
 4072TIP3    H112157   4.581   1.028   3.936  0.3985 -0.2210 -0.0813
 4072TIP3    H212158   4.590   1.100   3.803  0.3684  0.6016  0.3600
 4073TIP3   OH212159   0.462   0.673   1.871  0.3198 -0.1382  0.0514
 4073TIP3    H112160   0.489   0.751   1.822  0.6164  0.8535  1.7140
 4073TIP3    H212161   0.366   0.679   1.875  0.3809  0.6068  0.8432
 4074TIP3   OH212162   2.435   6.432   6.513 -0.0355 -0.0246  0.1430
 4074TIP3    H112163   2.373   6.485   6.461 -1.0524  2.4611  3.4946
 4074TIP3    H212164   2.514   6.486   6.517 -1.5352  2.4105  4.7485
 4075TIP3   OH212165   7.123   6.222   0.580  0.2101  0.0508  0.3642
 4075TIP3    H112166   7.041   6.209   0.532 -0.4417  0.1766  1.4180
 4075TIP3    H212167   7.147   6.135   0.611 -0.2033  0.1969  1.1186
 4076TIP3   OH212168   4.415   3.868   4.898  0.3464 -0.4078  0.3948
 4076TIP3    H112169   4.449   3.824   4.819  0.4653  1.3216 -0.5742
 4076TIP3    H212170   4.492   3.909   4.937 -0.1775  1.4437 -0.4199
 4077TIP3   OH212171   2.875   6.092   1.239  0.1747 -0.3291 -0.1225
 4077TIP3    H112172   2.812   6.058   1.175 -0.4395 -0.5512  0.5752
 4077TIP3    H212173   2.941   6.023   1.246  0.9857  0.2678 -1.4866
 4078TIP3   OH212174   1.323   7.502   5.022 -0.1405 -0.2201  0.2777
 4078TIP3    H112175   1.322   7.460   5.108 -1.6137  0.1312  0.4664
 4078TIP3    H212176   1.412   7.534   5.011  0.1587 -0.5939  1.5215
 4079TIP3   OH212177   3.214   3.869   5.432  0.6555 -0.5706 -0.1284
 4079TIP3    H112178   3.290   3.825   5.471  1.5226  1.3181  0.4143
 4079TIP3    H212179   3.243   3.888   5.342 -0.1970 -2.1665 -0.7853
 4080TIP3   OH212180   2.150   5.474   5.811  0.6354  0.0215  0.3984
 4080TIP3    H112181   2.179   5.557   5.849  0.7317  0.5022 -0.6720
 4080TIP3    H212182   2.231   5.424   5.799  0.3537 -1.4856  3.7229
 4081TIP3   OH212183   6.226   7.673   4.255 -0.3150 -0.1330 -0.2294
 4081TIP3    H112184   6.166   7.718   4.315 -1.9282 -0.6867 -1.3590
 4081TIP3    H212185   6.291   7.632   4.312 -0.9466  0.5556  1.0387
 4082TIP3   OH212186   2.139   4.272   5.108  0.0467 -0.7298 -0.0091
 4082TIP3    H112187   2.189   4.326   5.168 -2.7008  2.4237 -0.2499
 4082TIP3    H212188   2.196   4.263   5.031  0.6305  2.0839 -0.0233
 4083TIP3   OH212189   8.054   7.708   5.068 -0.0538  0.2523 -0.3399
 4083TIP3    H112190   7.985   7.712   5.002  0.0685 -0.5083 -0.5231
 4083TIP3    H212191   8.091   7.796   5.069 -0.0250  0.2667 -1.3329
 4084TIP3   OH212192   5.460   5.206   3.614 -0.3031  0.8643  0.2377
 4084TIP3    H112193   5.409   5.278   3.577 -0.5904 -0.4017 -2.0118
 4084TIP3    H212194   5.404   5.129   3.605 -0.5657  0.4321  3.8335
 4085TIP3   OH212195   3.199   0.088   6.703  1.0449 -0.3304  0.3061
 4085TIP3    H112196   3.125   0.144   6.679  1.2435 -0.2571 -0.1489
 4085TIP3    H212197   3.219   0.039   6.624  0.9395 -0.9767  0.6718
 4086TIP3   OH212198   3.091   2.087   3.967  0.0776  0.1373  0.1146
 4086TIP3    H112199   3.045   2.080   3.884 -0.4871 -2.1083  0.5295
 4086TIP3    H212200   3.184   2.077   3.944  0.0218  0.6727 -0.3449
 4087TIP3   OH212201   8.171   1.812   0.523 -0.1707 -0.4948 -0.2106
 4087TIP3    H112202   8.186   1.835   0.431  0.7614  0.4661  0.1630
 4087TIP3    H212203   8.124   1.888   0.559  1.3873  0.1271  0.6176
 4088TIP3   OH212204   3.243   5.371   3.810  0.2189 -0.5478 -0.4423
 4088TIP3    H112205   3.324   5.419   3.798  0.2105 -0.5977 -0.7175
 4088TIP3    H212206   3.175   5.439   3.815  0.4989 -0.3643  2.0744
 4089TIP3   OH212207   0.317   0.102   5.830 -0.1945 -0.4366  0.2354
 4089TIP3    H112208   0.299   0.189   5.867  2.8027 -0.4569  2.0470
 4089TIP3    H212209   0.263   0.043   5.881 -0.9096  0.1680  0.2025
 4090TIP3   OH212210   0.120   3.016   5.767  0.0069  0.3112 -0.4272
 4090TIP3    H112211   0.181   2.944   5.751 -0.5852 -0.5326  0.9547
 4090TIP3    H212212   0.176   3.094   5.774  0.9623 -0.4597  0.9254
 4091TIP3   OH212213   4.085   0.976   1.478 -0.1215  0.2233  0.2813
 4091TIP3    H112214   4.013   1.039   1.473 -3.0315 -2.8466 -0.3551
 4091TIP3    H212215   4.105   0.969   1.571 -2.5839 -0.7777  0.7871
 4092TIP3   OH212216   1.693   6.566   6.664 -0.9581  0.4524 -0.1208
 4092TIP3    H112217   1.633   6.491   6.660 -1.6344  0.9059  1.0295
 4092TIP3    H212218   1.743   6.552   6.744  0.1436  0.3429 -0.8113
 4093TIP3   OH212219   5.025   2.407   5.998 -0.2022 -0.3163 -0.4427
 4093TIP3    H112220   5.069   2.450   6.071 -2.4067  0.1557  0.6996
 4093TIP3    H212221   5.018   2.475   5.931  0.4728 -0.3044 -0.5123
 4094TIP3   OH212222   4.591   3.760   5.204 -0.5134 -0.2460  0.0135
 4094TIP3    H112223   4.552   3.682   5.243 -1.3617 -0.5051 -1.2929
 4094TIP3    H212224   4.538   3.833   5.236  0.4072 -0.1341  1.4042
 4095TIP3   OH212225   2.502   3.822   5.149  0.2440 -0.2083  0.2126
 4095TIP3    H112226   2.487   3.738   5.193  2.1894 -0.2606  0.8492
 4095TIP3    H212227   2.443   3.882   5.194  1.1728 -0.5679  2.0183
 4096TIP3   OH212228   3.679   2.582   4.644  0.2185 -0.4992  0.5572
 4096TIP3    H112229   3.592   2.622   4.642  0.0946 -0.7937 -0.4626
 4096TIP3    H212230   3.665   2.493   4.610  1.3145  0.2921 -2.2149
 4097TIP3   OH212231   6.862   7.818   1.318 -0.3704 -0.2899 -0.0840
 4097TIP3    H112232   6.932   7.758   1.293  1.1203  1.5480 -0.4565
 4097TIP3    H212233   6.860   7.814   1.414 -0.3260 -0.9530 -0.1047
 4098TIP3   OH212234   7.092   2.717   0.443  0.0370  0.1105  0.0525
 4098TIP3    H112235   6.997   2.702   0.440  0.2894 -1.6498 -0.8185
 4098TIP3    H212236   7.125   2.649   0.502  0.7387  0.8024  0.4656
 4099TIP3   OH212237   0.997   4.236   1.221  0.5975 -0.1648 -0.1582
 4099TIP3    H112238   1.029   4.276   1.140  0.2280  1.6116  0.5237
 4099TIP3    H212239   0.906   4.264   1.227  0.5590 -0.4577  0.7697
 4100TIP3   OH212240   2.740   7.098   4.570  0.3480 -0.1905 -0.0095
 4100TIP3    H112241   2.831   7.117   4.547  0.1777 -0.0780 -0.6352
 4100TIP3    H212242   2.725   7.010   4.535  0.1785 -0.1540 -0.0262
 4101TIP3   OH212243   7.553   4.158   5.729 -0.3265 -0.2236  0.6771
 4101TIP3    H112244   7.461   4.155   5.756  0.0590 -0.4484  2.0402
 4101TIP3    H212245   7.558   4.233   5.671 -1.1942  0.3846  1.3568
 4102TIP3   OH212246   6.911   2.664   2.436 -0.1137  1.1430 -0.2118
 4102TIP3    H112247   6.832   2.694   2.481  0.1790  1.5050  0.0729
 4102TIP3    H212248   6.983   2.705   2.485  0.2313  1.1563 -0.7207
 4103TIP3   OH212249   4.907   5.132   1.972  0.3611 -0.7651 -0.3799
 4103TIP3    H112250   4.999   5.136   1.946  0.7724 -1.3111  0.9264
 4103TIP3    H212251   4.905   5.172   2.059 -0.6190 -0.8791 -0.3393
 4104TIP3   OH212252   4.174   6.910   5.738 -0.4635  0.0380 -0.1802
 4104TIP3    H112253   4.260   6.883   5.706 -0.2062  1.1611 -0.4812
 4104TIP3    H212254   4.173   7.005   5.727 -1.5967  0.0843  0.1890
 4105TIP3   OH212255   2.997   6.996   2.031  0.5557 -0.5287  0.0195
 4105TIP3    H112256   2.917   6.963   1.990 -0.6839  1.4263  0.7095
 4105TIP3    H212257   2.985   6.978   2.124  0.7765  0.0425  0.1625
 4106TIP3   OH212258   6.526   5.073   6.633  0.3463 -0.0017 -0.1198
 4106TIP3    H112259   6.472   5.142   6.672 -0.2967  0.1999 -1.3014
 4106TIP3    H212260   6.490   4.991   6.669  0.7715  0.2367  0.8793
 4107TIP3   OH212261   4.359   1.482   4.591  0.1340  0.2885  0.3396
 4107TIP3    H112262   4.385   1.522   4.508 -0.2820  0.9751  0.5283
 4107TIP3    H212263   4.376   1.550   4.656  0.2995 -0.1879  0.7923
 4108TIP3   OH212264   1.152   0.235   3.451 -0.2429  0.1488 -0.0523
 4108TIP3    H112265   1.159   0.314   3.505 -0.8689 -0.5859  1.1353
 4108TIP3    H212266   1.234   0.187   3.467 -0.4468 -0.0896  0.2781
 4109TIP3   OH212267   1.913   1.313   2.371 -0.0311  0.3596  0.2871
 4109TIP3    H112268   1.968   1.235   2.367 -1.9102 -1.0566  0.6632
 4109TIP3    H212269   1.975   1.386   2.364  1.9609 -1.0992  1.5803
 4110TIP3   OH212270   7.063   7.858   6.009 -0.0590  0.6574 -0.2452
 4110TIP3    H112271   7.051   7.797   6.082 -2.1290  2.2642  0.9025
 4110TIP3    H212272   7.100   7.937   6.051  1.7628  0.5524 -1.5399
 4111TIP3   OH212273   5.807   4.395   6.081 -0.3132  0.2248  0.1385
 4111TIP3    H112274   5.849   4.361   6.002  0.3310 -0.5459  0.7989
 4111TIP3    H212275   5.788   4.318   6.134 -1.6787  0.6400  0.3073
 4112TIP3   OH212276   7.777   4.188   6.445  0.0133  0.6257  0.0730
 4112TIP3    H112277   7.843   4.132   6.403 -0.2761  0.3662 -0.0396
 4112TIP3    H212278   7.827   4.260   6.482  0.1884  1.3851 -1.5535
 4113TIP3   OH212279   3.102   3.684   6.372 -0.0292  0.0745 -0.2398
 4113TIP3    H112280   3.019   3.701   6.417 -0.0872  0.0797 -0.3471
 4113TIP3    H212281   3.157   3.760   6.394  0.3930 -0.5387  0.8639
 4114TIP3   OH212282   6.492   1.953   5.055  0.0014 -0.0079 -0.6493
 4114TIP3    H112283   6.484   2.024   4.991 -0.6379  1.1731  0.6882
 4114TIP3    H212284   6.502   1.997   5.139  0.1200 -1.5187  0.1672
 4115TIP3   OH212285   6.969   3.446   6.330  0.0988  0.4224  0.2624
 4115TIP3    H112286   6.912   3.444   6.407 -1.3448  1.4153 -0.7279
 4115TIP3    H212287   7.031   3.517   6.348  1.1721 -0.7497  1.4057
 4116TIP3   OH212288   3.428   3.853   2.674 -0.0835 -0.2236 -0.2400
 4116TIP3    H112289   3.345   3.899   2.665  0.8166  1.0594 -4.0306
 4116TIP3    H212290   3.437   3.804   2.592  2.9396 -0.1392 -0.0854
 4117TIP3   OH212291   1.969   7.635   6.484 -0.6506  0.0163 -0.1649
 4117TIP3    H112292   1.963   7.664   6.576  1.9311 -0.3171  0.1836
 4117TIP3    H212293   1.909   7.693   6.437 -0.6320  1.4717  1.4841
 4118TIP3   OH212294   3.103   0.300   4.642  0.0762 -0.4162  0.4155
 4118TIP3    H112295   3.077   0.300   4.550  1.1446 -0.7697  0.0938
 4118TIP3    H212296   3.026   0.269   4.689 -0.3189 -0.7309 -0.4203
 4119TIP3   OH212297   5.017   7.507   5.742 -0.1558 -0.2208 -0.4067
 4119TIP3    H112298   5.069   7.540   5.669 -0.8005  0.8733 -0.3902
 4119TIP3    H212299   5.052   7.553   5.819 -0.6889  0.0120 -0.2991
 4120TIP3   OH212300   6.045   5.755   6.590 -0.0983  0.2329 -0.6059
 4120TIP3    H112301   6.047   5.662   6.570  2.9812  0.0558  0.0604
 4120TIP3    H212302   6.040   5.760   6.685  0.2122  0.7378 -0.6122
 4121TIP3   OH212303   6.504   5.516   0.395 -0.6746  0.4273 -0.6235
 4121TIP3    H112304   6.423   5.551   0.358  0.3807  1.8652 -1.7025
 4121TIP3    H212305   6.565   5.512   0.322  0.6066  0.5621  0.3873
 4122TIP3   OH212306   4.332   0.179   1.032  0.6344  0.4874  0.1053
 4122TIP3    H112307   4.283   0.135   1.101 -1.8580  1.0270 -1.1967
 4122TIP3    H212308   4.325   0.272   1.052 -1.1127  0.7410 -1.3649
 4123TIP3   OH212309   1.210   7.393   6.105 -0.1836  0.1127  0.1318
 4123TIP3    H112310   1.247   7.382   6.192  0.4159  2.7260  0.2947
 4123TIP3    H212311   1.137   7.331   6.102  1.7781 -2.4480  1.1923
 4124TIP3   OH212312   7.869   1.453   2.885  0.1767  0.2463 -0.0542
 4124TIP3    H112313   7.916   1.388   2.939  0.4673  0.2414 -0.3124
 4124TIP3    H212314   7.791   1.474   2.937  0.4295  0.2074  0.3509
 4125TIP3   OH212315   2.934   7.344   0.714  0.0289  0.3023  0.1761
 4125TIP3    H112316   3.017   7.331   0.669  0.1935  0.6322  0.3797
 4125TIP3    H212317   2.875   7.375   0.645 -0.3880 -1.5093 -0.3228
 4126TIP3   OH212318   3.081   7.674   2.220 -0.1204  0.1685  0.0947
 4126TIP3    H112319   3.159   7.730   2.226  1.5470 -2.1214  3.3310
 4126TIP3    H212320   3.010   7.729   2.254 -0.1073  2.3385 -3.0126
 4127TIP3   OH212321   1.340   1.590   5.568 -0.2803  0.4064  0.3567
 4127TIP3    H112322   1.405   1.622   5.505 -0.7559  1.4566  0.3733
 4127TIP3    H212323   1.297   1.517   5.524 -0.4077  0.9431 -0.4356
 4128TIP3   OH212324   1.635   7.647   4.601  0.8407  0.3688 -0.0432
 4128TIP3    H112325   1.554   7.683   4.637  1.6415  0.9727  1.2458
 4128TIP3    H212326   1.651   7.568   4.653  0.4794 -0.4207 -1.0926
 4129TIP3   OH212327   1.127   0.051   6.671 -0.6113  0.2495  0.8073
 4129TIP3    H112328   1.054   0.029   6.614 -1.6176 -0.5151  2.3204
 4129TIP3    H212329   1.165  -0.033   6.696 -0.6201  0.5275  1.7998
 4130TIP3   OH212330   7.729   4.030   0.436  0.0256  0.2286 -0.1244
 4130TIP3    H112331   7.707   3.989   0.520  0.2972  1.1660  0.4130
 4130TIP3    H212332   7.736   3.956   0.375 -0.8883 -0.4028  0.5117
 4131TIP3   OH212333   7.509   2.323   4.881 -0.2918 -0.0631 -0.3257
 4131TIP3    H112334   7.562   2.330   4.960 -0.2353  1.4366 -0.4681
 4131TIP3    H212335   7.483   2.230   4.878 -1.1435  0.0083  2.0083
 4132TIP3   OH212336   2.598   5.483   0.232  0.1093 -1.1950  0.7833
 4132TIP3    H112337   2.508   5.482   0.201  0.1506 -2.7767  0.6591
 4132TIP3    H212338   2.622   5.391   0.241  2.8262 -0.9795 -2.4240
 4133TIP3   OH212339   7.618   0.686   0.195  0.0907 -0.8015  0.6130
 4133TIP3    H112340   7.593   0.635   0.272  0.9503 -0.2948  1.2428
 4133TIP3    H212341   7.542   0.741   0.177 -0.3738 -1.4159  0.6760
 4134TIP3   OH212342   1.934   3.516   5.161 -0.0637  0.1313 -0.1932
 4134TIP3    H112343   1.983   3.483   5.085 -1.8538 -2.2311 -0.4380
 4134TIP3    H212344   1.994   3.579   5.202  3.1710 -2.4352 -0.5242
 4135TIP3   OH212345   4.006   0.496   0.538  0.2343 -0.0696  0.1399
 4135TIP3    H112346   4.005   0.507   0.633 -1.1395  0.4503  0.0912
 4135TIP3    H212347   3.914   0.485   0.514  0.4569  0.7576 -1.2279
 4136TIP3   OH212348   2.332   2.150   3.153 -0.0008  0.3707  0.4095
 4136TIP3    H112349   2.349   2.221   3.216 -0.9171  1.7856 -0.8558
 4136TIP3    H212350   2.393   2.166   3.082 -0.4238  0.0768 -0.0230
 4137TIP3   OH212351   0.553   2.822   4.828  0.0540 -0.0371 -0.8322
 4137TIP3    H112352   0.524   2.742   4.870 -0.6370 -0.0165 -1.2556
 4137TIP3    H212353   0.649   2.821   4.838 -0.1050  0.3129  1.3382
 4138TIP3   OH212354   5.726   0.748   6.765  0.1784  0.6677 -0.3298
 4138TIP3    H112355   5.813   0.726   6.731 -0.1117  1.4126 -1.6294
 4138TIP3    H212356   5.682   0.663   6.777  0.7789  0.3305 -0.5060
 4139TIP3   OH212357   7.335   2.704   2.249  0.0306  0.5049  0.1334
 4139TIP3    H112358   7.270   2.765   2.284 -0.5349 -0.3994  0.7028
 4139TIP3    H212359   7.419   2.743   2.273 -0.3254  0.8644  0.8379
 4140TIP3   OH212360   4.967   4.688   1.288 -0.0151  0.3537  0.0169
 4140TIP3    H112361   4.958   4.624   1.359  0.3706 -0.7102 -0.8723
 4140TIP3    H212362   4.916   4.764   1.318 -0.2765 -0.2604  1.1989
 4141TIP3   OH212363   3.998   1.211   2.763  0.0266 -0.3263  0.4478
 4141TIP3    H112364   4.050   1.141   2.725  1.0437  1.3837 -1.4686
 4141TIP3    H212365   4.042   1.292   2.737 -3.1675  1.2027 -0.7561
 4142TIP3   OH212366   3.472   1.892   0.985  0.3721  0.3362  0.5642
 4142TIP3    H112367   3.536   1.822   0.996 -1.7086 -1.7133  0.4803
 4142TIP3    H212368   3.406   1.875   1.052 -2.1270 -0.1343 -1.8506
 4143TIP3   OH212369   2.159   3.378   6.227  0.3515 -0.4507 -0.2696
 4143TIP3    H112370   2.129   3.419   6.308  0.0621 -1.2828  0.0565
 4143TIP3    H212371   2.196   3.294   6.254  0.9050 -0.4277 -0.9216
 4144TIP3   OH212372   5.843   1.359   6.273 -0.4502  0.0201  0.0940
 4144TIP3    H112373   5.797   1.356   6.357 -0.3690 -0.0010  0.1387
 4144TIP3    H212374   5.774   1.366   6.207 -0.6319 -1.9482  0.0233
 4145TIP3   OH212375   5.975   3.720   1.195 -0.0355  0.9501 -0.0463
 4145TIP3    H112376   5.982   3.791   1.259 -1.3644  2.3398 -1.3698
 4145TIP3    H212377   5.893   3.736   1.149 -0.3924 -1.4635 -0.4227
 4146TIP3   OH212378   6.239   4.340   5.580  0.0112 -0.3626  0.1934
 4146TIP3    H112379   6.291   4.288   5.519 -0.7208 -0.3026 -0.5105
 4146TIP3    H212380   6.260   4.431   5.557 -0.0336 -0.3415  0.2369
 4147TIP3   OH212381   7.760   5.331   1.807  0.3962  0.2317  0.3290
 4147TIP3    H112382   7.771   5.264   1.739  0.1681 -0.3741  0.8766
 4147TIP3    H212383   7.820   5.401   1.781  1.0876 -0.4383  0.0547
 4148TIP3   OH212384   7.452   4.317   2.886 -0.1972  0.3087  0.4366
 4148TIP3    H112385   7.542   4.344   2.864  0.4771  0.5463  3.0385
 4148TIP3    H212386   7.462   4.229   2.923 -0.8844  0.6772  1.5461
 4149TIP3   OH212387   3.458   6.464   2.562  0.1489 -0.4534 -0.1186
 4149TIP3    H112388   3.506   6.453   2.644 -0.5362 -0.4230  0.2948
 4149TIP3    H212389   3.526   6.461   2.494  0.6898 -0.7826  0.4234
 4150TIP3   OH212390   5.575   5.404   1.520  0.3691  0.5882 -0.1446
 4150TIP3    H112391   5.543   5.323   1.480 -0.2461  0.4721  0.5394
 4150TIP3    H212392   5.669   5.390   1.531  0.2692 -0.0370 -0.0289
 4151TIP3   OH212393   7.287   4.741   6.165  0.1865 -0.3568  0.0292
 4151TIP3    H112394   7.369   4.743   6.214  0.5736 -0.0835 -0.6111
 4151TIP3    H212395   7.218   4.746   6.232  0.6972 -0.0810  0.5393
 4152TIP3   OH212396   5.573   7.571   3.515 -0.2614 -0.2910 -0.1449
 4152TIP3    H112397   5.662   7.536   3.519 -0.0619  0.2751  0.9393
 4152TIP3    H212398   5.547   7.582   3.607 -0.7584  1.2399 -0.4324
 4153TIP3   OH212399   0.564   3.046   0.051  0.0786 -0.4213 -0.5203
 4153TIP3    H112400   0.498   3.103   0.091 -1.3855  0.8660 -4.2651
 4153TIP3    H212401   0.516   2.967   0.027  1.1683 -1.6234  1.0853
 4154TIP3   OH212402   4.847   4.928   3.928  0.1881 -0.1933 -0.7128
 4154TIP3    H112403   4.914   4.874   3.970  0.1923  1.1701  1.2125
 4154TIP3    H212404   4.765   4.897   3.966  0.0833  0.3532 -0.4839
 4155TIP3   OH212405   3.059   6.479   3.634  0.4571 -0.3887 -0.2262
 4155TIP3    H112406   3.057   6.547   3.567  1.9731  0.9392  0.9807
 4155TIP3    H212407   3.148   6.442   3.630  0.2359 -1.0213  0.3359
 4156TIP3   OH212408   0.275   3.865   2.573  0.1416 -0.0282 -0.0805
 4156TIP3    H112409   0.343   3.842   2.635 -0.2943  0.0388  0.4311
 4156TIP3    H212410   0.286   3.803   2.501  0.6301 -0.1268  0.0738
 4157TIP3   OH212411   8.067   5.396   6.247  0.7876 -0.2091  0.3641
 4157TIP3    H112412   8.144   5.397   6.190  1.9035 -2.2109  1.7144
 4157TIP3    H212413   8.101   5.410   6.335 -0.1046 -2.5889  1.1882
 4158TIP3   OH212414   4.507   1.557   5.350  0.3832 -0.4215 -0.7701
 4158TIP3    H112415   4.547   1.527   5.268  1.8747  0.5920 -0.4436
 4158TIP3    H212416   4.577   1.603   5.396 -1.2057  1.6380 -0.2612
 4159TIP3   OH212417   2.215   6.223   4.360  0.4042  1.1278  0.4165
 4159TIP3    H112418   2.180   6.206   4.447 -1.4445  1.6110 -0.1915
 4159TIP3    H212419   2.150   6.280   4.318  2.0891  2.3540 -0.6869
 4160TIP3   OH212420   2.197   1.809   1.270  0.1169  0.5452  0.0351
 4160TIP3    H112421   2.258   1.755   1.220  0.4293 -0.1086  1.0826
 4160TIP3    H212422   2.116   1.758   1.274 -0.7934  1.7019 -1.9325
 4161TIP3   OH212423   2.743   6.294   4.888 -0.6530 -0.4122 -0.6575
 4161TIP3    H112424   2.765   6.209   4.927  1.0874  0.6418  0.8502
 4161TIP3    H212425   2.725   6.350   4.964  1.7732  1.4495 -1.3594
 4162TIP3   OH212426   4.338   3.003   1.909 -0.0313 -0.0084 -0.3486
 4162TIP3    H112427   4.279   3.022   1.982 -2.4361  0.0790 -2.1880
 4162TIP3    H212428   4.323   2.910   1.890  0.3062  0.0510 -0.9425
 4163TIP3   OH212429   7.386   6.802   2.639 -0.1165 -0.0000  0.3577
 4163TIP3    H112430   7.433   6.722   2.663  0.0121 -0.6778 -1.9824
 4163TIP3    H212431   7.296   6.774   2.623  0.2405 -0.0142 -1.9080
 4164TIP3   OH212432   1.129   4.738   6.492  0.4811 -0.1050 -0.0330
 4164TIP3    H112433   1.134   4.732   6.397 -0.0028  0.2380 -0.0852
 4164TIP3    H212434   1.165   4.824   6.513  0.3503 -0.0743  0.0712
 4165TIP3   OH212435   2.180   3.452   6.489  0.0862  0.2364  0.0665
 4165TIP3    H112436   2.200   3.496   6.572 -0.0332 -0.6046  0.5580
 4165TIP3    H212437   2.148   3.365   6.515 -1.3798  0.4698 -0.7972
 4166TIP3   OH212438   4.027   7.134   1.731 -0.9962  0.2798 -0.0116
 4166TIP3    H112439   3.968   7.129   1.806  0.0941 -0.5818  0.8199
 4166TIP3    H212440   4.023   7.047   1.691 -1.7587  0.8019 -1.1365
 4167TIP3   OH212441   1.974   2.508   2.593 -0.3264 -0.4018  0.1767
 4167TIP3    H112442   1.943   2.545   2.676 -1.8327  1.1749 -1.0211
 4167TIP3    H212443   1.894   2.493   2.542  0.6474  0.1045 -1.5644
 4168TIP3   OH212444   6.598   4.116   0.303 -0.0734  0.3509  0.2875
 4168TIP3    H112445   6.515   4.158   0.282 -0.3941 -0.0757  0.6958
 4168TIP3    H212446   6.661   4.188   0.305 -0.1969  0.5301 -1.1963
 4169TIP3   OH212447   7.284   2.200   0.606  0.7144  0.0329 -0.4256
 4169TIP3    H112448   7.298   2.248   0.525  1.0969  0.5495 -0.0608
 4169TIP3    H212449   7.189   2.191   0.612  0.6677  0.2712 -0.7696
 4170TIP3   OH212450   1.987   2.608   6.396  0.5212 -0.2165 -0.0180
 4170TIP3    H112451   2.021   2.694   6.373  0.9000 -0.4183 -0.2195
 4170TIP3    H212452   1.938   2.580   6.319  0.4375 -0.2061  0.0303
 4171TIP3   OH212453   3.144   7.900   1.379 -0.1191 -0.4520 -0.3721
 4171TIP3    H112454   3.166   7.820   1.331  0.0666 -0.4098 -0.3594
 4171TIP3    H212455   3.186   7.888   1.464  1.9201  0.6635 -1.1512
 4172TIP3   OH212456   2.535   4.436   5.958 -0.4706  0.6585 -0.2512
 4172TIP3    H112457   2.452   4.463   5.996  0.6803  0.1853  2.8888
 4172TIP3    H212458   2.516   4.353   5.915 -2.0642  1.7295 -1.7183
 4173TIP3   OH212459   8.299   2.280   5.338  0.6739  0.2925 -0.3120
 4173TIP3    H112460   8.345   2.297   5.256  0.9821  0.0888 -0.1832
 4173TIP3    H212461   8.368   2.280   5.404  0.7073 -1.4759 -0.2994
 4174TIP3   OH212462   4.653   2.188   0.119  0.6189 -0.2471 -0.0880
 4174TIP3    H112463   4.601   2.247   0.063  0.7711  1.8268  1.8348
 4174TIP3    H212464   4.595   2.168   0.192  0.8627 -1.9379 -0.3129
 4175TIP3   OH212465   6.350   5.970   6.179  0.0371 -0.2033  0.6307
 4175TIP3    H112466   6.292   6.004   6.247 -0.6540  0.6305 -0.3392
 4175TIP3    H212467   6.399   6.046   6.148  0.9596 -0.7275  0.7572
 4176TIP3   OH212468   3.388   2.917   0.609 -0.3309 -0.2635 -0.2427
 4176TIP3    H112469   3.305   2.872   0.623 -0.1833 -0.2194  0.8954
 4176TIP3    H212470   3.365   3.002   0.573 -0.8210 -0.0832  0.4726
 4177TIP3   OH212471   1.773   6.138   1.891  0.2427  0.3707  0.2282
 4177TIP3    H112472   1.868   6.146   1.893  0.1296  2.0473  0.4148
 4177TIP3    H212473   1.755   6.052   1.927  1.7543 -0.6890 -1.3786
 4178TIP3   OH212474   1.400   6.922   0.881  0.1008  0.2438  0.5713
 4178TIP3    H112475   1.425   6.897   0.792 -0.0538  0.6580  0.4065
 4178TIP3    H212476   1.441   7.007   0.894 -1.8828  1.3697 -0.0319
 4179TIP3   OH212477   4.179   1.061   3.936  0.2280  0.0063  0.1741
 4179TIP3    H112478   4.266   1.100   3.946  0.5297 -0.7956  0.7616
 4179TIP3    H212479   4.140   1.109   3.863  0.4821  1.5669  1.0333
 4180TIP3   OH212480   0.044   2.215   2.285 -0.1200  0.4746  0.1037
 4180TIP3    H112481   0.019   2.146   2.347  1.2893 -0.9085 -0.7788
 4180TIP3    H212482   0.083   2.283   2.341  0.6556 -0.5151  0.8183
 4181TIP3   OH212483   4.508   3.294   3.906  0.4416 -0.3954  0.1121
 4181TIP3    H112484   4.538   3.369   3.956 -2.3732  0.1668  1.1463
 4181TIP3    H212485   4.485   3.329   3.820  2.4641 -0.8086 -0.6477
 4182TIP3   OH212486   5.914   1.775   0.804 -0.5195 -0.3599  0.0262
 4182TIP3    H112487   5.907   1.767   0.709  0.9613  0.1471 -0.1568
 4182TIP3    H212488   5.919   1.685   0.835 -1.0099 -0.5298 -0.3719
 4183TIP3   OH212489   0.200   0.620   2.133  0.1939  0.1401  0.4441
 4183TIP3    H112490   0.295   0.610   2.138  0.2533  0.3444 -0.1275
 4183TIP3    H212491   0.164   0.548   2.185  0.6416 -0.7459 -0.4504
 4184TIP3   OH212492   0.831   3.038   2.827  0.8749  0.5569  0.0248
 4184TIP3    H112493   0.793   3.015   2.743  0.0774  2.3418 -0.1514
 4184TIP3    H212494   0.913   3.082   2.806  0.9771  0.4622  0.2168
 4185TIP3   OH212495   6.884   6.610   2.173  0.2351 -0.6411  0.2456
 4185TIP3    H112496   6.836   6.656   2.104  0.7885 -0.8112 -0.2641
 4185TIP3    H212497   6.830   6.534   2.194  0.5204 -1.1039 -0.6757
 4186TIP3   OH212498   5.106   7.359   6.680  0.2143  1.1753 -0.1330
 4186TIP3    H112499   5.152   7.408   6.748  0.1890  0.9198  0.0701
 4186TIP3    H212500   5.024   7.408   6.667  0.0371  1.0031  0.3100
 4187TIP3   OH212501   3.174   7.168   5.778  0.2605 -0.0565 -0.9610
 4187TIP3    H112502   3.247   7.225   5.752 -0.4938  1.5739  0.3209
 4187TIP3    H212503   3.185   7.157   5.872 -0.2966 -1.0966 -1.0053
 4188TIP3   OH212504   0.352   5.394   2.525 -0.0199 -0.2766 -0.0857
 4188TIP3    H112505   0.310   5.473   2.559 -0.1935 -0.6156  0.4971
 4188TIP3    H212506   0.285   5.327   2.529 -0.7913  0.1570 -3.2506
 4189TIP3   OH212507   5.992   3.491   6.196 -0.0452 -0.0876 -0.0487
 4189TIP3    H112508   6.012   3.405   6.160 -0.8286 -0.5057  0.4985
 4189TIP3    H212509   6.075   3.523   6.231  0.1071 -0.9265  0.3776
 4190TIP3   OH212510   7.926   7.242   5.069 -0.0612 -0.4694  0.0824
 4190TIP3    H112511   7.883   7.162   5.099 -1.1504  0.3077  0.6407
 4190TIP3    H212512   7.918   7.303   5.142 -1.1690  0.8703 -1.0911
 4191TIP3   OH212513   2.000   7.200   1.758  0.2659 -0.0921  0.3810
 4191TIP3    H112514   1.952   7.270   1.803 -0.4280 -1.3302  1.6142
 4191TIP3    H212515   1.946   7.122   1.769  0.6897 -0.7176 -1.5753
 4192TIP3   OH212516   5.115   0.323   6.171  0.0996  0.3243  0.0075
 4192TIP3    H112517   5.154   0.312   6.258 -1.3881  0.0516  0.6706
 4192TIP3    H212518   5.144   0.409   6.143  1.6098 -0.0846  0.2242
 4193TIP3   OH212519   0.014   3.405   5.370 -0.7137 -0.4724  0.2195
 4193TIP3    H112520  -0.029   3.485   5.340 -0.3276  0.0374  0.9969
 4193TIP3    H212521   0.036   3.358   5.290  0.2586  0.8310 -0.3136
 4194TIP3   OH212522   7.713   4.691   1.338  0.0383  0.1712  0.1579
 4194TIP3    H112523   7.647   4.673   1.271 -1.3137  0.7006  1.2695
 4194TIP3    H212524   7.797   4.675   1.296 -0.7254  1.0878 -1.8330
 4195TIP3   OH212525   6.166   6.051   4.291  0.4727  0.5863  0.3938
 4195TIP3    H112526   6.099   5.992   4.256  0.5851  1.7679 -2.0381
 4195TIP3    H212527   6.235   6.051   4.224  2.7141 -0.1815  2.5749
 4196TIP3   OH212528   1.973   5.318   4.027 -0.4832  0.0621 -0.1156
 4196TIP3    H112529   1.902   5.361   4.075 -0.7300  0.1620 -0.5698
 4196TIP3    H212530   1.998   5.245   4.084  0.6223  1.3659  1.1475
 4197TIP3   OH212531   5.911   1.172   6.818  0.6478  0.0496 -0.1434
 4197TIP3    H112532   5.926   1.265   6.836 -0.6963  0.2915 -0.1663
 4197TIP3    H212533   5.821   1.157   6.845  1.3719 -1.6848  1.5368
 4198TIP3   OH212534   4.134   5.909   2.842  0.2402 -0.6419 -0.3701
 4198TIP3    H112535   4.119   5.847   2.914  0.8120 -1.5898 -1.0447
 4198TIP3    H212536   4.072   5.881   2.774 -3.7747  3.0594  1.2844
 4199TIP3   OH212537   7.477   1.864   5.366  0.2479 -0.7280  0.8300
 4199TIP3    H112538   7.527   1.940   5.336 -0.9475 -0.7269 -1.4515
 4199TIP3    H212539   7.419   1.898   5.435 -0.1105  0.4195  0.0027
 4200TIP3   OH212540   4.632   0.772   3.025  0.5548  0.0211 -0.3945
 4200TIP3    H112541   4.700   0.719   3.067 -0.9069 -2.8022 -1.2963
 4200TIP3    H212542   4.644   0.756   2.931 -0.6996  0.2818 -0.6228
 4201TIP3   OH212543   0.228   4.714   5.903 -0.3774  0.0255  0.4863
 4201TIP3    H112544   0.277   4.659   5.964 -0.7998  0.5249  1.3020
 4201TIP3    H212545   0.294   4.756   5.849 -0.0164 -0.7206  0.3387
 4202TIP3   OH212546   1.146   1.314   1.497  0.1539 -0.0480 -0.5581
 4202TIP3    H112547   1.154   1.349   1.585 -0.9301  1.6730 -1.0870
 4202TIP3    H212548   1.138   1.219   1.509  1.5869 -0.0086  1.0525
 4203TIP3   OH212549   3.378   2.786   1.931  0.5526 -0.0928  0.8333
 4203TIP3    H112550   3.381   2.784   1.835  1.3719 -1.8323  0.8718
 4203TIP3    H212551   3.318   2.715   1.955 -0.2140  0.7801  1.6224
 4204TIP3   OH212552   2.091   5.191   1.629  0.1464 -0.0426  0.4112
 4204TIP3    H112553   2.152   5.230   1.566  0.0071  0.3071  0.4879
 4204TIP3    H212554   2.121   5.223   1.714 -0.2394  0.2613  0.4352
 4205TIP3   OH212555   7.710   2.129   3.230  0.1553 -0.0170 -0.1050
 4205TIP3    H112556   7.665   2.047   3.253  0.0848  0.1041  0.1871
 4205TIP3    H212557   7.704   2.183   3.309 -3.7782  2.0647 -1.5258
 4206TIP3   OH212558   4.803   0.162   4.815 -0.0453  0.3291  0.2683
 4206TIP3    H112559   4.765   0.158   4.727 -0.1125 -0.7878  0.3273
 4206TIP3    H212560   4.897   0.151   4.801  0.0219  0.8952  0.2816
 4207TIP3   OH212561   5.664   4.684   4.554 -0.8974 -0.1639 -0.1064
 4207TIP3    H112562   5.623   4.770   4.566  0.8553  0.7633 -0.3916
 4207TIP3    H212563   5.657   4.643   4.640 -0.1140  1.0561  0.5741
 4208TIP3   OH212564   1.486   4.421   2.355  0.6617 -0.0490 -0.4251
 4208TIP3    H112565   1.451   4.510   2.348 -0.4008 -0.4167 -0.0402
 4208TIP3    H212566   1.442   4.384   2.431 -0.9307 -1.7559 -2.0444
 4209TIP3   OH212567   3.223   7.439   0.408 -0.4669 -0.5024 -0.0619
 4209TIP3    H112568   3.221   7.410   0.499 -1.5602 -1.0703 -0.2410
 4209TIP3    H212569   3.180   7.525   0.409 -0.3811 -0.4604 -0.0228
 4210TIP3   OH212570   5.361   1.403   0.045 -0.2274 -0.1179  0.1179
 4210TIP3    H112571   5.283   1.358   0.014 -0.5839  0.2870  0.3950
 4210TIP3    H212572   5.414   1.335   0.087 -0.0645 -0.5352 -0.7481
 4211TIP3   OH212573   3.743   0.228   5.223  0.4381 -0.1404 -0.1117
 4211TIP3    H112574   3.822   0.180   5.249 -0.7166 -1.6187  0.8276
 4211TIP3    H212575   3.707   0.177   5.150  0.7106  0.9353 -1.0337
 4212TIP3   OH212576   3.893   4.852   2.500  0.0614 -0.2319 -0.3587
 4212TIP3    H112577   3.859   4.863   2.589  0.8503 -1.3172  0.0949
 4212TIP3    H212578   3.956   4.923   2.489 -0.5741  0.3508 -0.3381
 4213TIP3   OH212579   0.955   1.817   4.825  0.1089  0.1151 -0.1728
 4213TIP3    H112580   1.009   1.802   4.748 -1.1382  1.9810 -1.5058
 4213TIP3    H212581   0.974   1.907   4.851 -0.3477 -0.1058  1.0205
 4214TIP3   OH212582   1.269   1.873   4.296  0.3330 -0.2998 -0.0034
 4214TIP3    H112583   1.228   1.957   4.317 -0.8259 -0.8096 -0.1749
 4214TIP3    H212584   1.359   1.896   4.272 -0.3951  1.0834 -1.5783
 4215TIP3   OH212585   5.881   3.611   0.895 -0.0878 -0.0126 -0.2438
 4215TIP3    H112586   5.907   3.702   0.880  0.6140 -0.2994 -0.7739
 4215TIP3    H212587   5.961   3.560   0.886 -0.4513 -0.6846  0.1576
 4216TIP3   OH212588   1.065   3.275   1.763 -0.2823 -0.5319 -0.0302
 4216TIP3    H112589   1.130   3.223   1.715 -0.4233 -2.2915  1.5463
 4216TIP3    H212590   0.981   3.243   1.732 -0.3739 -1.6906  1.3083
 4217TIP3   OH212591   4.922   5.624   0.432  0.0396  0.2310 -0.0382
 4217TIP3    H112592   4.844   5.677   0.415 -0.7439 -0.2710  1.7182
 4217TIP3    H212593   4.993   5.671   0.390 -0.6252  2.6457  1.3955
 4218TIP3   OH212594   3.792   6.456   4.383 -0.0126  0.2004  0.2358
 4218TIP3    H112595   3.756   6.390   4.443 -0.4566 -0.1079 -0.3482
 4218TIP3    H212596   3.782   6.539   4.429  0.7202 -0.1590  1.0594
 4219TIP3   OH212597   0.784   1.846   3.691  0.0382 -0.0320 -0.1354
 4219TIP3    H112598   0.704   1.896   3.705 -0.0808  0.4516 -2.2018
 4219TIP3    H212599   0.770   1.801   3.608  1.4713 -0.8484  0.0292
 4220TIP3   OH212600   5.500   7.234   6.301 -0.6221  0.7111  0.2166
 4220TIP3    H112601   5.504   7.223   6.396 -1.6598  1.5414  0.3749
 4220TIP3    H212602   5.493   7.328   6.288  0.7098  0.6967 -0.7517
 4221TIP3   OH212603   3.735   0.483   6.775 -0.3648  0.1141 -0.0609
 4221TIP3    H112604   3.740   0.497   6.870 -2.5379 -0.2334  0.1498
 4221TIP3    H212605   3.657   0.530   6.748  0.1809  0.1283 -1.6874
 4222TIP3   OH212606   2.773   2.199   6.216 -0.5843  0.5754 -0.1523
 4222TIP3    H112607   2.834   2.145   6.166  0.7419  0.6248  1.3346
 4222TIP3    H212608   2.704   2.139   6.242  0.3030 -0.1607  0.5453
 4223TIP3   OH212609   8.290   3.174   0.349  0.3458  0.1645  0.0729
 4223TIP3    H112610   8.251   3.157   0.263  1.9729 -0.7877 -0.5104
 4223TIP3    H212611   8.252   3.258   0.376 -0.6835  0.1702 -1.2689
 4224TIP3   OH212612   4.811   1.395   0.869  0.0158  0.9138 -0.3116
 4224TIP3    H112613   4.868   1.471   0.879  0.9959  0.6529 -3.0727
 4224TIP3    H212614   4.862   1.321   0.904  0.6122  0.9713 -1.0444
 4225TIP3   OH212615   3.857   4.329   6.256  0.3457 -0.1771  0.1905
 4225TIP3    H112616   3.854   4.270   6.181 -1.6521 -0.1106  0.1633
 4225TIP3    H212617   3.765   4.340   6.282  0.9671 -0.3609  2.7905
 4226TIP3   OH212618   7.125   6.919   1.303 -0.5808 -0.0264  0.4410
 4226TIP3    H112619   7.129   6.826   1.282  1.6972 -0.1771  1.1835
 4226TIP3    H212620   7.111   6.962   1.218  0.2205 -0.9769 -0.2036
 4227TIP3   OH212621   3.619   6.916   2.103 -0.1254  0.5237  0.4788
 4227TIP3    H112622   3.534   6.891   2.138 -0.4995  0.1754 -0.6393
 4227TIP3    H212623   3.601   6.949   2.015  0.7980  1.2400  0.5441
 4228TIP3   OH212624   2.111   0.084   0.021  0.4036 -0.0743 -0.3282
 4228TIP3    H112625   2.138   0.033  -0.055  0.6836  1.4286 -1.2536
 4228TIP3    H212626   2.192   0.100   0.069  0.5091  0.5770 -0.7158
 4229TIP3   OH212627   7.536   1.369   2.774 -0.7411  0.1411  0.3257
 4229TIP3    H112628   7.532   1.443   2.714  0.1429  1.3664  1.7103
 4229TIP3    H212629   7.577   1.299   2.723 -1.3565  0.6741 -0.9273
 4230TIP3   OH212630   1.451   6.557   2.666  0.0340 -0.1491  0.6535
 4230TIP3    H112631   1.497   6.501   2.728  0.2927  0.4181  0.9772
 4230TIP3    H212632   1.390   6.608   2.720 -1.2744 -1.1629  0.1954
 4231TIP3   OH212633   2.959   4.935   4.406  0.0525  0.3425  0.5764
 4231TIP3    H112634   2.870   4.900   4.413  0.1177  0.0351 -0.0390
 4231TIP3    H212635   2.953   5.022   4.445 -0.6360  0.5186  0.1025
 4232TIP3   OH212636   3.956   3.961   6.585 -0.1990 -0.2444  0.2639
 4232TIP3    H112637   3.896   3.991   6.517  1.7311  0.1146 -1.3803
 4232TIP3    H212638   4.043   3.972   6.547  0.8766 -2.1870  1.9614
 4233TIP3   OH212639   7.352   4.782   2.305  0.2729 -0.2274 -0.3333
 4233TIP3    H112640   7.417   4.756   2.370  0.2168  0.8555  0.1771
 4233TIP3    H212641   7.403   4.793   2.224  0.9528  1.6244  0.2920
 4234TIP3   OH212642   0.879   2.287   2.569 -0.3847 -0.1455  0.2059
 4234TIP3    H112643   0.900   2.370   2.527 -2.5622 -0.2394 -1.2332
 4234TIP3    H212644   0.792   2.301   2.607 -0.8562 -1.8008 -0.1802
 4235TIP3   OH212645   7.677   5.659   2.072 -0.2360 -0.4093 -0.4370
 4235TIP3    H112646   7.751   5.601   2.091 -0.1635 -0.5860 -1.2394
 4235TIP3    H212647   7.603   5.600   2.057 -1.0006 -0.2133  2.0569
 4236TIP3   OH212648   3.934   4.205   0.429 -0.1400  0.1041  0.0889
 4236TIP3    H112649   4.009   4.166   0.474 -1.3743 -1.6399  0.7399
 4236TIP3    H212650   3.953   4.299   0.428 -0.4453  0.5056  5.2533
 4237TIP3   OH212651   7.525   3.499   1.710 -0.3686  0.7401  0.1560
 4237TIP3    H112652   7.539   3.429   1.645 -0.1327  2.1138 -1.3451
 4237TIP3    H212653   7.608   3.505   1.757  0.0468  0.8577 -0.5769
 4238TIP3   OH212654   1.072   2.373   4.763  0.4872  0.9887 -0.0357
 4238TIP3    H112655   1.114   2.293   4.794  0.1097  0.9491  0.4004
 4238TIP3    H212656   1.081   2.434   4.836  1.2904  1.5468 -0.5853
 4239TIP3   OH212657   2.849   0.003   4.826  0.8082  0.1916  0.2440
 4239TIP3    H112658   2.925  -0.048   4.799  0.0231 -0.4115 -0.9314
 4239TIP3    H212659   2.822   0.049   4.746 -0.9916 -0.8561  0.1931
 4240TIP3   OH212660   0.834   6.395   1.175  0.0071  0.1924 -0.2932
 4240TIP3    H112661   0.828   6.490   1.185 -0.9268 -0.0395  1.8515
 4240TIP3    H212662   0.835   6.381   1.080 -0.7778  2.2876 -0.6700
 4241TIP3   OH212663   5.648   5.925   4.807  0.0449 -0.0907 -0.1266
 4241TIP3    H112664   5.692   5.870   4.872  1.2147 -0.3531 -1.1036
 4241TIP3    H212665   5.623   6.004   4.855 -1.0855 -1.1608  1.1498
 4242TIP3   OH212666   7.964   0.210   3.303 -0.0773 -0.4510  0.0206
 4242TIP3    H112667   7.916   0.271   3.248  0.5734  0.1109  0.0604
 4242TIP3    H212668   7.992   0.262   3.379 -0.5849 -1.1046  0.6706
 4243TIP3   OH212669   1.846   0.855   6.022  0.4690 -0.0243 -0.1233
 4243TIP3    H112670   1.934   0.843   6.058  0.4390  0.9853  0.3023
 4243TIP3    H212671   1.790   0.870   6.098 -0.3712 -2.1524 -0.2524
 4244TIP3   OH212672   1.633   4.502   5.769 -0.2204 -0.0165 -0.0084
 4244TIP3    H112673   1.693   4.576   5.768 -1.2561  0.9089  1.3579
 4244TIP3    H212674   1.547   4.540   5.751 -0.7164 -0.9526  0.2912
 4245TIP3   OH212675   7.110   1.267   4.467  0.1767 -0.4614 -0.6279
 4245TIP3    H112676   7.106   1.173   4.450 -0.6301 -0.7207  0.8336
 4245TIP3    H212677   7.045   1.305   4.408  1.0246 -0.7066 -1.7633
 4246TIP3   OH212678   5.228   7.089   0.655 -0.5285  1.1365 -0.2136
 4246TIP3    H112679   5.207   7.067   0.564 -0.1012 -1.1081  0.1854
 4246TIP3    H212680   5.272   7.011   0.689  0.5892  2.4672  1.5261
 4247TIP3   OH212681   6.038   3.965   4.610 -0.4970 -0.5730  0.2733
 4247TIP3    H112682   5.967   3.903   4.621 -0.3354 -1.0356 -1.1496
 4247TIP3    H212683   6.006   4.028   4.546  0.5582 -1.1167 -0.8315
 4248TIP3   OH212684   0.745   4.744   5.324 -0.5118 -0.6172  0.1454
 4248TIP3    H112685   0.775   4.801   5.395  0.6509 -0.7788 -0.1822
 4248TIP3    H212686   0.681   4.796   5.276  0.5661  0.4600 -0.1745
 4249TIP3   OH212687   1.444   2.014   1.699 -0.2144 -0.4261  0.2128
 4249TIP3    H112688   1.411   2.088   1.649  0.9500 -0.2975 -0.4030
 4249TIP3    H212689   1.445   2.045   1.790  2.8341  1.3918 -0.3036
 4250TIP3   OH212690   6.046   6.860   6.443  0.2540 -0.4654  0.1986
 4250TIP3    H112691   6.076   6.941   6.485  0.9165 -1.0354  0.8784
 4250TIP3    H212692   5.952   6.872   6.433  0.3581  0.4391  0.1721
 4251TIP3   OH212693   7.623   3.800   0.098  0.1153 -0.8130 -0.0913
 4251TIP3    H112694   7.567   3.870   0.133  0.8759  0.4489 -1.3173
 4251TIP3    H212695   7.683   3.780   0.170  0.6399  0.6273 -0.0906
 4252TIP3   OH212696   4.990   3.301   4.599  0.2099 -0.9961  0.1266
 4252TIP3    H112697   5.058   3.239   4.623  0.5582 -0.9747 -0.7714
 4252TIP3    H212698   4.918   3.284   4.661  0.5858 -1.7853  0.3494
 4253TIP3   OH212699   2.222   4.259   3.858 -0.2984  0.5286 -0.3672
 4253TIP3    H112700   2.195   4.234   3.770  0.5004  0.4890 -0.6095
 4253TIP3    H212701   2.196   4.185   3.913  0.1327  0.0849 -0.7430
 4254TIP3   OH212702   6.482   1.366   1.706 -0.1026  0.0890  0.2559
 4254TIP3    H112703   6.392   1.344   1.728 -0.7946  0.4576 -1.9821
 4254TIP3    H212704   6.482   1.461   1.697  0.0476 -0.0462 -1.4716
 4255TIP3   OH212705   1.762   7.354   0.541  0.3516 -0.0554 -0.0670
 4255TIP3    H112706   1.835   7.396   0.587  1.2333 -0.8107 -0.7253
 4255TIP3    H212707   1.754   7.403   0.459 -0.8066  0.8939  0.5831
 4256TIP3   OH212708   4.554   4.945   5.833 -0.4727  0.3564  0.2558
 4256TIP3    H112709   4.573   4.896   5.912 -2.1556 -1.3914 -0.3607
 4256TIP3    H212710   4.637   4.947   5.785  0.5509  1.3906  1.9667
 4257TIP3   OH212711   4.923   3.671   0.333 -0.1477  0.1932  0.5319
 4257TIP3    H112712   4.942   3.754   0.291 -0.1851 -1.7013 -3.6781
 4257TIP3    H212713   5.001   3.652   0.386  1.3468  1.3767 -1.1370
 4258TIP3   OH212714   2.677   1.329   0.112  0.1991  0.4599 -0.4870
 4258TIP3    H112715   2.649   1.417   0.136  1.5405  1.0331 -0.9245
 4258TIP3    H212716   2.632   1.272   0.173  0.1759  1.5444  0.5391
 4259TIP3   OH212717   5.640   5.410   0.049  0.0413 -0.0551 -0.1072
 4259TIP3    H112718   5.699   5.391  -0.024 -0.9227 -0.9517 -0.6878
 4259TIP3    H212719   5.563   5.356   0.032  0.0937 -0.8900  1.9802
 4260TIP3   OH212720   6.580   1.786   1.802  0.0949  0.0852 -0.2716
 4260TIP3    H112721   6.561   1.708   1.853 -0.4907  0.2776 -0.1909
 4260TIP3    H212722   6.541   1.858   1.852  0.2235  0.3753 -0.5808
 4261TIP3   OH212723   7.058   6.782   1.645  0.0146  0.1846  0.1040
 4261TIP3    H112724   7.001   6.775   1.568 -1.4256 -0.6716  1.2157
 4261TIP3    H212725   7.137   6.734   1.620  0.3423  1.4685 -1.4916
 4262TIP3   OH212726   5.236   2.218   5.386 -0.0280 -0.0940 -0.0294
 4262TIP3    H112727   5.181   2.276   5.333  0.0606  0.2695  0.2719
 4262TIP3    H212728   5.205   2.232   5.476  1.0579  0.6781  0.2343
 4263TIP3   OH212729   7.156   0.202   2.816  0.0736 -0.3107  0.0306
 4263TIP3    H112730   7.097   0.132   2.790 -0.0740  0.2594 -1.2284
 4263TIP3    H212731   7.184   0.178   2.904 -0.1741 -1.8178 -0.2711
 4264TIP3   OH212732   1.099   4.862   4.248  0.2492  0.3058  0.3001
 4264TIP3    H112733   1.126   4.808   4.322 -1.1001  0.4708  0.9384
 4264TIP3    H212734   1.170   4.925   4.238  0.6715 -0.0171  1.1569
 4265TIP3   OH212735   7.444   2.343   1.173  0.3023 -0.7698  0.0014
 4265TIP3    H112736   7.483   2.256   1.163 -0.2142 -1.1806  1.3124
 4265TIP3    H212737   7.515   2.404   1.154  1.4137 -1.4926  1.6362
 4266TIP3   OH212738   7.835   1.826   0.275  0.2867 -0.3926 -0.1217
 4266TIP3    H112739   7.820   1.837   0.369 -1.5629  0.0628 -0.4452
 4266TIP3    H212740   7.847   1.731   0.264 -0.3170 -0.5439  0.4698
 4267TIP3   OH212741   6.279   3.800   5.552  0.0482  0.0721 -0.1359
 4267TIP3    H112742   6.360   3.779   5.597 -0.1530  2.3216  1.4502
 4267TIP3    H212743   6.291   3.890   5.522 -2.1316  0.7837  0.9071
 4268TIP3   OH212744   6.481   6.536   0.288 -0.3245 -0.1931 -0.4982
 4268TIP3    H112745   6.414   6.601   0.310 -0.4785 -1.1837  2.3588
 4268TIP3    H212746   6.563   6.578   0.314 -0.2549 -0.5050 -0.2171
 4269TIP3   OH212747   7.253   5.718   0.925 -0.5063  0.1361  0.1568
 4269TIP3    H112748   7.248   5.814   0.930 -0.9151  0.2247 -1.4385
 4269TIP3    H212749   7.327   5.695   0.981  1.2390  1.6037 -1.4202
 4270TIP3   OH212750   8.099   0.627   0.654  0.0822  0.1551 -0.7858
 4270TIP3    H112751   8.168   0.690   0.674 -0.7792  1.1109 -0.7444
 4270TIP3    H212752   8.101   0.619   0.559  1.0280 -0.7464 -0.7081
 4271TIP3   OH212753   3.709   2.261   6.133 -0.5228 -0.1002 -0.0160
 4271TIP3    H112754   3.689   2.168   6.122 -2.3527  0.2781 -0.3115
 4271TIP3    H212755   3.749   2.287   6.051 -2.5909 -0.0596 -1.0862
 4272TIP3   OH212756   0.415   4.030   4.282  0.4564  0.0026 -1.0434
 4272TIP3    H112757   0.492   3.974   4.276  1.6582  1.5697 -1.0278
 4272TIP3    H212758   0.341   3.970   4.291  1.8998 -1.5617  1.7506
 4273TIP3   OH212759   2.897   0.304   4.442 -0.3485  0.0368 -0.1384
 4273TIP3    H112760   2.914   0.212   4.421  0.5577 -0.0567  0.8786
 4273TIP3    H212761   2.804   0.316   4.425 -0.3629 -0.9196 -0.8130
 4274TIP3   OH212762   2.202   0.123   2.272 -0.0926  0.6643 -0.2652
 4274TIP3    H112763   2.274   0.116   2.210 -0.3357 -0.5308 -0.4441
 4274TIP3    H212764   2.243   0.150   2.354  0.4694  0.5870 -0.5163
 4275TIP3   OH212765   4.344   2.654   1.209 -0.1798 -0.3726  0.5249
 4275TIP3    H112766   4.386   2.572   1.184 -1.4038 -1.2176  1.0996
 4275TIP3    H212767   4.408   2.700   1.263  0.3590 -1.1676  0.5627
 4276TIP3   OH212768   4.573   5.162   0.820 -0.1874 -0.2838  0.4163
 4276TIP3    H112769   4.592   5.134   0.730 -0.1222  0.3274  0.2399
 4276TIP3    H212770   4.567   5.080   0.869  1.5540 -0.5817  0.2195
 4277TIP3   OH212771   4.708   3.434   5.773 -0.5533 -0.0907 -0.2639
 4277TIP3    H112772   4.794   3.439   5.732 -0.9772  0.5841 -1.1062
 4277TIP3    H212773   4.651   3.397   5.705 -1.2049  0.7611 -0.2115
 4278TIP3   OH212774   6.027   3.974   1.808 -0.2157 -0.0655 -0.0322
 4278TIP3    H112775   6.020   3.880   1.795  1.1565  0.1074 -2.7782
 4278TIP3    H212776   5.973   4.012   1.739  0.4963  1.1475  0.0456
 4279TIP3   OH212777   0.684   5.927   3.516 -0.1137 -0.0465 -0.2229
 4279TIP3    H112778   0.659   5.971   3.435 -0.6425 -1.2360 -0.7252
 4279TIP3    H212779   0.755   5.867   3.490 -0.6318 -0.8072  0.0711
 4280TIP3   OH212780   0.213   6.302   3.931 -0.6523 -0.0469 -0.2901
 4280TIP3    H112781   0.178   6.371   3.989 -1.5101  0.1977 -1.0822
 4280TIP3    H212782   0.308   6.311   3.938 -0.7268 -0.0285  1.0841
 4281TIP3   OH212783   4.891   7.239   0.012 -0.3929 -0.2709  0.1090
 4281TIP3    H112784   4.959   7.224   0.078 -0.6170 -1.2982  0.1115
 4281TIP3    H212785   4.837   7.309   0.049 -0.8470 -1.2107  1.2898
 4282TIP3   OH212786   3.414   4.530   4.816  0.4906  0.2893  0.7124
 4282TIP3    H112787   3.389   4.622   4.813 -2.5083 -0.4412 -1.2067
 4282TIP3    H212788   3.354   4.490   4.880  0.7877 -0.5828  0.4674
 4283TIP3   OH212789   5.646   6.524   2.387  0.1761 -0.0290  0.4785
 4283TIP3    H112790   5.580   6.455   2.394 -0.5457  0.7622  1.9133
 4283TIP3    H212791   5.604   6.592   2.335  1.8472 -1.6482 -3.4061
 4284TIP3   OH212792   2.965   0.252   5.524  0.6023  0.1911  0.2586
 4284TIP3    H112793   3.017   0.333   5.518 -0.9120  1.4162  2.2962
 4284TIP3    H212794   3.001   0.206   5.600  0.2271 -0.1148  0.2508
 4285TIP3   OH212795   4.144   7.246   6.137  0.1261 -0.0190  0.3237
 4285TIP3    H112796   4.073   7.270   6.197 -0.3349 -0.9225  0.1556
 4285TIP3    H212797   4.139   7.310   6.067 -0.4820 -0.0276  0.3496
 4286TIP3   OH212798   6.928   7.462   1.570  0.3067  0.3571  0.0843
 4286TIP3    H112799   6.942   7.415   1.653  0.1810  1.6562  0.8686
 4286TIP3    H212800   6.992   7.533   1.572 -1.0617  1.6210  0.0249
 4287TIP3   OH212801   6.203   1.365   5.553  0.0296 -0.5565 -0.0596
 4287TIP3    H112802   6.119   1.408   5.536  0.9456  1.0450 -0.6852
 4287TIP3    H212803   6.253   1.428   5.604  1.1503 -1.1490 -0.3893
 4288TIP3   OH212804   7.493   3.626   3.455 -0.2327  0.0776 -0.1173
 4288TIP3    H112805   7.574   3.669   3.481  0.4603 -1.6191  0.7075
 4288TIP3    H212806   7.453   3.599   3.538 -1.0754 -0.0641 -0.5630
 4289TIP3   OH212807   3.926   2.373   3.570  0.4823  0.5053 -0.5872
 4289TIP3    H112808   3.853   2.340   3.623  0.4401  2.0383  0.3778
 4289TIP3    H212809   3.906   2.344   3.481 -0.4009 -0.5774 -0.0546
 4290TIP3   OH212810   2.948   0.396   6.355 -0.4180  0.3836  0.3221
 4290TIP3    H112811   3.005   0.473   6.358  0.5914 -0.2531 -1.2198
 4290TIP3    H212812   3.001   0.325   6.391 -0.5483 -0.0224 -0.2677
 4291TIP3   OH212813   7.724   1.611   1.418  0.4840  0.2599  0.1948
 4291TIP3    H112814   7.650   1.569   1.375 -0.2378 -0.0241  1.6437
 4291TIP3    H212815   7.789   1.541   1.428 -0.1451 -0.1978  1.3088
 4292TIP3   OH212816   1.560   7.083   5.560  0.1788 -0.2774  0.2352
 4292TIP3    H112817   1.638   7.059   5.610  0.1522 -1.4259 -0.2337
 4292TIP3    H212818   1.594   7.123   5.480  0.3024 -0.7734  0.0335
 4293TIP3   OH212819   6.568   4.507   0.170  0.0811  0.0909  0.0607
 4293TIP3    H112820   6.509   4.515   0.245  1.1367 -0.0105  0.9351
 4293TIP3    H212821   6.580   4.597   0.139 -0.9008  0.0615 -0.4375
 4294TIP3   OH212822   4.980   5.810   4.054  0.1066  0.3216 -0.7996
 4294TIP3    H112823   4.990   5.905   4.046 -0.6561  0.5482  0.5614
 4294TIP3    H212824   4.988   5.793   4.147 -0.0160 -0.9323 -1.0024
 4295TIP3   OH212825   7.639   0.721   2.446  0.9608 -0.1887 -0.1376
 4295TIP3    H112826   7.679   0.749   2.529 -0.2833 -0.4801  0.5822
 4295TIP3    H212827   7.661   0.791   2.384 -0.5274  1.5305  1.1642
 4296TIP3   OH212828   7.434   5.399   6.253  0.7701 -0.0394 -0.0666
 4296TIP3    H112829   7.525   5.373   6.273  0.9561 -0.8423 -1.8170
 4296TIP3    H212830   7.438   5.495   6.247  1.8190 -0.1349 -1.4506
 4297TIP3   OH212831   4.443   2.247   4.491 -0.5216 -0.1530  0.0488
 4297TIP3    H112832   4.422   2.180   4.557 -1.3766 -0.3861 -0.4413
 4297TIP3    H212833   4.368   2.306   4.494 -0.2883  0.1595 -0.3066
 4298TIP3   OH212834   5.243   5.454   2.311  0.2229  0.0494 -0.1395
 4298TIP3    H112835   5.201   5.457   2.226  1.1773  2.0594 -0.5830
 4298TIP3    H212836   5.324   5.504   2.301  0.0692  0.8731  2.0912
 4299TIP3   OH212837   3.148   2.620   3.425  0.4462 -0.0267  0.2302
 4299TIP3    H112838   3.061   2.657   3.406  0.7668  0.8620  0.4087
 4299TIP3    H212839   3.169   2.567   3.349  0.1359  0.5072 -0.2385
 4300TIP3   OH212840   3.830   3.787   3.667 -1.0597  0.5701 -0.3386
 4300TIP3    H112841   3.875   3.843   3.604  0.8552  0.0831  0.5314
 4300TIP3    H212842   3.832   3.837   3.749  2.4150 -1.3853  0.9709
 4301TIP3   OH212843   4.473   5.563   6.813  0.0967 -0.2112  0.0755
 4301TIP3    H112844   4.535   5.631   6.786  0.3538 -0.4494  0.0579
 4301TIP3    H212845   4.528   5.497   6.856 -0.4325  0.6589  2.2001
 4302TIP3   OH212846   3.178   4.206   5.596  0.0230  0.4560 -0.1215
 4302TIP3    H112847   3.215   4.166   5.518  0.5926 -0.1502  0.4441
 4302TIP3    H212848   3.233   4.283   5.613  0.2344  0.2816 -0.0126
 4303TIP3   OH212849   0.638   2.023   1.497 -0.5752 -0.5566 -0.8316
 4303TIP3    H112850   0.658   2.113   1.469  0.6102 -0.4356  0.3097
 4303TIP3    H212851   0.610   2.032   1.588 -0.3043 -1.3597 -0.6617
 4304TIP3   OH212852   5.608   3.038   3.464  0.5834 -0.2736 -0.3975
 4304TIP3    H112853   5.703   3.048   3.475  0.6580 -0.7896 -0.5134
 4304TIP3    H212854   5.598   2.952   3.423  0.1270  0.2874 -1.4818
 4305TIP3   OH212855   7.999   1.575   1.611 -0.1025  0.0798 -0.5444
 4305TIP3    H112856   8.083   1.539   1.638  0.4453  1.0674 -0.8836
 4305TIP3    H212857   7.936   1.538   1.674  0.5963 -0.5566 -0.2048
 4306TIP3   OH212858   5.801   7.856   6.644  0.0612 -0.0228 -0.4398
 4306TIP3    H112859   5.839   7.941   6.626  0.7509  0.0566  1.1978
 4306TIP3    H212860   5.818   7.841   6.737 -0.6851 -1.6272 -0.5189
 4307TIP3   OH212861   3.845   2.405   0.736  0.0233 -0.0124  0.1844
 4307TIP3    H112862   3.784   2.332   0.744  0.3110 -0.2110  0.5862
 4307TIP3    H212863   3.791   2.479   0.710  0.0646 -0.9088 -2.7337
 4308TIP3   OH212864   1.102   1.078   1.185 -0.0443 -0.6454 -0.5495
 4308TIP3    H112865   1.161   1.143   1.224 -1.8658 -0.2590  1.8267
 4308TIP3    H212866   1.101   1.006   1.249 -1.7177 -0.8364 -0.7443
 4309TIP3   OH212867   2.727   4.819   2.777 -0.3651 -0.3804 -0.0188
 4309TIP3    H112868   2.633   4.816   2.795 -0.4962 -2.2953 -0.6719
 4309TIP3    H212869   2.739   4.897   2.722 -1.5129  0.0704  0.3483
 4310TIP3   OH212870   7.987   6.342   3.863  0.2225 -0.1589  0.4074
 4310TIP3    H112871   7.949   6.421   3.902  1.6919  1.4038 -1.1410
 4310TIP3    H212872   8.079   6.346   3.887  0.6931 -0.3615 -1.2866
 4311TIP3   OH212873   0.119   2.416   0.924  0.2563  0.0870 -0.0263
 4311TIP3    H112874   0.122   2.390   1.016  2.3259 -1.1615 -0.3763
 4311TIP3    H212875   0.210   2.438   0.903  0.1941 -1.4893 -2.2360
 4312TIP3   OH212876   7.790   5.696   6.374  0.0024  0.1093 -0.5205
 4312TIP3    H112877   7.857   5.687   6.306 -1.3715 -1.4432 -1.7333
 4312TIP3    H212878   7.753   5.783   6.359  0.4837  0.2369 -1.0065
 4313TIP3   OH212879   6.510   3.896   2.112 -0.1504 -0.2810  0.2000
 4313TIP3    H112880   6.567   3.825   2.083  1.3675 -0.3377  2.9529
 4313TIP3    H212881   6.460   3.858   2.185  0.9305  1.4393  1.9530
 4314TIP3   OH212882   5.473   2.782   0.294  0.6107 -0.1100 -0.5707
 4314TIP3    H112883   5.528   2.724   0.241  1.4451  0.4008 -0.2864
 4314TIP3    H212884   5.463   2.737   0.377 -0.9030 -1.0279 -1.2051
 4315TIP3   OH212885   7.089   3.340   1.603  0.6459  0.2043 -0.7788
 4315TIP3    H112886   7.072   3.290   1.524  2.6798 -0.3414 -0.9291
 4315TIP3    H212887   7.131   3.278   1.662  0.5469  1.0012  0.1609
 4316TIP3   OH212888   5.426   6.460   6.825 -0.4955  0.3409 -0.8424
 4316TIP3    H112889   5.358   6.509   6.871 -0.6936  1.2300 -2.0369
 4316TIP3    H212890   5.389   6.442   6.738 -0.3251 -1.7329 -0.5499
 4317TIP3   OH212891   4.056   0.480   3.863  0.2724  0.1323 -0.0212
 4317TIP3    H112892   4.019   0.440   3.942 -0.2672 -1.3469 -0.9803
 4317TIP3    H212893   4.136   0.431   3.847  0.4534  0.5212 -0.3256
 4318TIP3   OH212894   2.514   4.588   6.571  0.0786  0.5287 -0.2713
 4318TIP3    H112895   2.605   4.591   6.543 -0.0211  0.3349 -0.6153
 4318TIP3    H212896   2.519   4.581   6.667  0.4117  1.2863 -0.2283
 4319TIP3   OH212897   4.082   6.168   0.715 -0.3389 -0.4110 -0.2251
 4319TIP3    H112898   4.153   6.106   0.698  1.0922  0.5474  1.7828
 4319TIP3    H212899   4.126   6.244   0.755 -2.5157  0.0785  1.4203
 4320TIP3   OH212900   0.700   1.438   3.924 -0.2542 -0.2548  0.1926
 4320TIP3    H112901   0.671   1.529   3.922  0.6849  0.0418 -0.5490
 4320TIP3    H212902   0.620   1.387   3.911 -0.8389  0.4363  0.9202
 4321TIP3   OH212903   1.117   7.807   6.722  0.5788  0.5909 -0.4580
 4321TIP3    H112904   1.096   7.838   6.810 -1.6726  2.2128 -1.4399
 4321TIP3    H212905   1.202   7.844   6.702  2.3056 -1.8100  1.8323
 4322TIP3   OH212906   5.626   2.023   5.807 -0.0448  0.0860 -0.4229
 4322TIP3    H112907   5.635   1.982   5.893 -0.4663  1.9825  0.5712
 4322TIP3    H212908   5.691   2.093   5.807 -0.1706  0.2138 -1.5795
 4323TIP3   OH212909   1.981   1.617   6.018 -0.7216 -0.1189 -0.3939
 4323TIP3    H112910   1.960   1.528   5.992 -0.8316 -0.0883 -0.4101
 4323TIP3    H212911   1.988   1.666   5.936 -0.2028 -0.2126 -0.4089
 4324TIP3   OH212912   3.136   4.209   3.126 -0.2662  0.0616  0.4670
 4324TIP3    H112913   3.103   4.299   3.120 -0.2424 -0.0087 -1.2104
 4324TIP3    H212914   3.135   4.189   3.219 -2.8117  0.8784  0.6938
 4325TIP3   OH212915   3.915   2.939   3.275 -0.2234 -0.7996  0.2946
 4325TIP3    H112916   3.906   2.844   3.268  0.3347 -0.8181 -0.2187
 4325TIP3    H212917   3.925   2.956   3.368 -1.0468 -1.1755  0.4592
 4326TIP3   OH212918   3.043   2.874   3.694 -0.5167 -0.1661 -0.1413
 4326TIP3    H112919   3.093   2.942   3.737 -2.6551  1.3240  0.1387
 4326TIP3    H212920   3.091   2.793   3.713  0.2479  0.8045  2.4832
 4327TIP3   OH212921   5.542   1.219   2.645  0.1152  0.3504  0.3111
 4327TIP3    H112922   5.608   1.288   2.653 -1.7791  2.3848 -0.6621
 4327TIP3    H212923   5.503   1.213   2.732  0.6578  0.0549  0.5436
 4328TIP3   OH212924   1.924   0.749   1.054 -0.1649 -0.2487  0.3337
 4328TIP3    H112925   1.873   0.781   0.980 -0.3466 -2.6570 -0.6847
 4328TIP3    H212926   1.982   0.821   1.077 -1.4086  1.2186 -0.9275
 4329TIP3   OH212927   0.489   6.701   0.426 -0.1100  0.4769 -0.3588
 4329TIP3    H112928   0.517   6.774   0.371  1.8609 -0.0421 -0.1272
 4329TIP3    H212929   0.489   6.626   0.367 -0.3584  0.3425 -0.1880
 4330TIP3   OH212930   4.295   4.240   1.915 -0.4079 -0.1775  0.7301
 4330TIP3    H112931   4.286   4.160   1.862  0.6504 -0.1073  0.4262
 4330TIP3    H212932   4.362   4.219   1.980  0.4914  0.7157  0.1228
 4331TIP3   OH212933   0.948   5.641   4.304  0.1068 -0.0285 -0.0553
 4331TIP3    H112934   0.857   5.619   4.287 -0.4541  0.6827  1.7801
 4331TIP3    H212935   0.983   5.565   4.351  0.3223 -0.0908 -0.3132
 4332TIP3   OH212936   8.027   2.358   6.118  0.2340  0.1520 -0.0654
 4332TIP3    H112937   8.074   2.275   6.110 -0.0684  0.0188 -0.5108
 4332TIP3    H212938   8.044   2.403   6.035 -1.6447 -0.5573 -0.8909
 4333TIP3   OH212939   7.487   0.698   1.355  0.0060 -0.1967 -0.2981
 4333TIP3    H112940   7.412   0.640   1.358  0.5938 -0.9369  0.3391
 4333TIP3    H212941   7.463   0.772   1.411  0.0128 -0.7559  0.4530
 4334TIP3   OH212942   1.137   3.063   4.645 -0.5210 -0.3501 -0.4429
 4334TIP3    H112943   1.125   3.051   4.551 -1.4330  1.0783 -0.5405
 4334TIP3    H212944   1.107   2.981   4.684 -0.3095 -0.8822 -1.3728
 4335TIP3   OH212945   4.247   1.023   5.715 -0.3130 -0.4733  0.9012
 4335TIP3    H112946   4.341   1.032   5.702 -0.3057 -2.4557 -0.8760
 4335TIP3    H212947   4.207   1.071   5.642 -0.6457 -0.7188  0.9174
 4336TIP3   OH212948   8.380   1.453   4.955 -0.2447 -0.0327  0.1572
 4336TIP3    H112949   8.457   1.507   4.940 -0.3297  1.1235  3.1878
 4336TIP3    H212950   8.325   1.468   4.879  1.1434  1.6259 -0.5889
 4337TIP3   OH212951   2.896   7.336   1.818 -0.2344  0.1844  0.2355
 4337TIP3    H112952   2.948   7.315   1.740  0.0700  2.7974 -0.3630
 4337TIP3    H212953   2.816   7.377   1.783 -0.1517  1.2902  1.2729
 4338TIP3   OH212954   5.944   1.029   5.114 -0.4625 -0.2047 -0.9788
 4338TIP3    H112955   6.005   1.099   5.137 -0.4390 -0.7775  0.8104
 4338TIP3    H212956   5.906   1.057   5.031  2.4860 -0.0027 -2.3945
 4339TIP3   OH212957   5.476   0.627   0.750 -0.2865 -0.4405  0.1334
 4339TIP3    H112958   5.520   0.589   0.826 -0.5174 -2.2309 -0.5680
 4339TIP3    H212959   5.526   0.594   0.675 -0.4474  0.7727 -0.5263
 4340TIP3   OH212960   1.739   0.394   5.824 -0.0259 -0.7023  0.0265
 4340TIP3    H112961   1.805   0.463   5.835 -1.5760  0.6074  1.8528
 4340TIP3    H212962   1.750   0.364   5.734  0.9046  1.7506 -0.7513
 4341TIP3   OH212963   3.012   6.973   5.663  0.0859 -0.3625  0.0540
 4341TIP3    H112964   3.073   6.945   5.595 -0.7810  0.9360 -1.3350
 4341TIP3    H212965   3.055   7.049   5.704 -0.5414  0.5736 -0.9470
 4342TIP3   OH212966   1.772   3.044   2.611  0.0644  0.2930  0.3868
 4342TIP3    H112967   1.803   3.111   2.551  0.0528  1.7718  1.9484
 4342TIP3    H212968   1.837   2.973   2.604  0.2209  0.5588 -1.0937
 4343TIP3   OH212969   6.222   1.422   1.505  0.4330 -0.0492 -0.0204
 4343TIP3    H112970   6.213   1.388   1.594 -1.5191  0.5112  0.0372
 4343TIP3    H212971   6.138   1.402   1.463  0.2534  2.1862 -0.8404
 4344TIP3   OH212972   3.806   6.357   2.101 -0.1325  0.1851 -0.1515
 4344TIP3    H112973   3.853   6.279   2.072 -2.0853 -0.5847 -1.4528
 4344TIP3    H212974   3.727   6.359   2.047 -0.1851  3.0532 -0.1353
 4345TIP3   OH212975   5.892   5.962   1.003 -0.3797  0.1111  0.1338
 4345TIP3    H112976   5.817   5.985   1.057 -0.4737  0.1598 -0.0170
 4345TIP3    H212977   5.963   6.018   1.034 -1.1264  2.1842 -1.6237
 4346TIP3   OH212978   6.225   0.402   4.526 -0.0391  0.6026  0.2395
 4346TIP3    H112979   6.313   0.388   4.492 -0.5734 -0.3888 -0.8159
 4346TIP3    H212980   6.184   0.461   4.463 -0.8169 -0.7052 -0.5285
 4347TIP3   OH212981   2.888   2.683   0.240  0.1512  0.0269 -0.4106
 4347TIP3    H112982   2.886   2.695   0.145 -0.1328 -0.3736 -0.4580
 4347TIP3    H212983   2.806   2.638   0.260  0.8493 -1.1769 -0.1556
 4348TIP3   OH212984   6.282   6.747   0.041  0.9525 -0.2722  0.1580
 4348TIP3    H112985   6.199   6.702   0.056 -0.0536  1.0520 -1.0570
 4348TIP3    H212986   6.279   6.822   0.101 -0.3686  1.6774 -2.1336
 4349TIP3   OH212987   8.389   0.573   4.434  0.2153  0.0476  0.3548
 4349TIP3    H112988   8.297   0.570   4.407 -0.0458  1.5216  0.9635
 4349TIP3    H212989   8.410   0.483   4.458 -1.7143  0.0234  2.2226
 4350TIP3   OH212990   4.814   3.858   4.689 -0.0223 -0.0077  0.4719
 4350TIP3    H112991   4.725   3.827   4.698 -0.3091  0.9446  1.0240
 4350TIP3    H212992   4.807   3.953   4.692  1.0129  0.0816  0.5576
 4351TIP3   OH212993   2.312   4.833   1.751 -0.3206 -0.2392  0.2496
 4351TIP3    H112994   2.289   4.914   1.706  0.7637 -0.5023 -0.8144
 4351TIP3    H212995   2.394   4.853   1.797 -0.5546 -0.4645  0.7793
 4352TIP3   OH212996   2.063   2.323   2.871  0.1564 -0.3319 -0.0115
 4352TIP3    H112997   2.077   2.233   2.901 -0.3442 -0.4069 -0.0010
 4352TIP3    H212998   2.033   2.314   2.781  1.2166 -0.1233 -0.4086
 4353TIP3   OH212999   6.832   7.659   4.192  0.4125 -0.2004 -0.3230
 4353TIP3    H113000   6.887   7.622   4.123  0.8550 -0.5564  0.2145
 4353TIP3    H213001   6.750   7.610   4.187 -0.1180  0.7476 -1.5392
 4354TIP3   OH213002   4.923   6.858   4.626  0.2410 -0.2811  0.1381
 4354TIP3    H113003   5.008   6.828   4.595  0.7365 -0.5563  1.7165
 4354TIP3    H213004   4.888   6.784   4.676 -0.1054  0.4789  1.0478
 4355TIP3   OH213005   1.340   0.730   2.828  0.0391 -0.0108  0.6807
 4355TIP3    H113006   1.330   0.635   2.817  1.4094  0.0987 -3.1749
 4355TIP3    H213007   1.423   0.750   2.784  0.8722  2.7731  3.2240
 4356TIP3   OH213008   2.202   7.172   2.119  0.1382 -0.4855  0.0038
 4356TIP3    H113009   2.163   7.253   2.152 -0.4866 -0.6572 -0.3016
 4356TIP3    H213010   2.201   7.182   2.024  0.1884 -0.7959 -0.0290
 4357TIP3   OH213011   0.171   1.198   1.633  0.0081 -0.2809 -0.1112
 4357TIP3    H113012   0.185   1.119   1.685  2.7309  0.3777  0.2896
 4357TIP3    H213013   0.148   1.166   1.546 -0.0364 -1.4781  0.3273
 4358TIP3   OH213014   2.304   2.807   2.336  0.0276 -0.7296 -0.2708
 4358TIP3    H113015   2.355   2.888   2.337 -1.6235  0.3760  1.2894
 4358TIP3    H213016   2.239   2.821   2.267  0.5371 -1.2888 -0.8767
 4359TIP3   OH213017   4.435   6.771   3.742  0.1630  0.3462 -0.0136
 4359TIP3    H113018   4.367   6.831   3.771 -0.4503 -0.2745 -0.1505
 4359TIP3    H213019   4.440   6.785   3.647  0.2652  0.4257  0.0027
 4360TIP3   OH213020   4.957   6.230   4.875  0.0882  0.1684 -0.3761
 4360TIP3    H113021   4.956   6.220   4.779  1.9543  2.3394 -0.7007
 4360TIP3    H213022   4.998   6.315   4.890  0.5819 -0.4755  2.4131
 4361TIP3   OH213023   4.146   7.199   5.686 -0.2647  0.0139 -0.5992
 4361TIP3    H113024   4.130   7.249   5.765 -0.6633  0.8789 -1.2070
 4361TIP3    H213025   4.238   7.215   5.665 -0.4564  0.7451 -0.9389
 4362TIP3   OH213026   5.374   1.867   4.065 -0.3649  0.2567 -0.5525
 4362TIP3    H113027   5.280   1.850   4.072 -0.1862 -0.8336 -0.6043
 4362TIP3    H213028   5.415   1.786   4.094  0.5514  0.4266 -1.3358
 4363TIP3   OH213029   0.993   2.587   4.089  0.0810  0.3263 -0.8165
 4363TIP3    H113030   0.916   2.632   4.054  0.7132  2.1745  0.0132
 4363TIP3    H213031   0.975   2.494   4.076 -2.5819  0.6440 -0.0801
 4364TIP3   OH213032   4.079   2.454   3.051 -0.0013  0.1926 -0.1964
 4364TIP3    H113033   4.013   2.510   3.094 -1.2052 -0.1552 -1.5031
 4364TIP3    H213034   4.157   2.463   3.105 -1.8980 -1.7096  3.2186
 4365TIP3   OH213035   2.926   7.848   6.524 -1.0032 -0.3620  0.4028
 4365TIP3    H113036   2.906   7.863   6.616 -2.1745  1.0641 -0.0241
 4365TIP3    H213037   2.990   7.916   6.502  1.7209 -2.6105  0.8480
 4366TIP3   OH213038   6.000   4.110   5.640 -0.0391  0.4108  0.0636
 4366TIP3    H113039   5.963   4.042   5.584 -1.8440  0.8160  0.7025
 4366TIP3    H213040   6.008   4.186   5.584  0.1447  0.2283 -0.1606
 4367TIP3   OH213041   2.537   6.202   1.827 -0.2632  0.1743  0.2084
 4367TIP3    H113042   2.519   6.194   1.920  0.7671  0.1666  0.4167
 4367TIP3    H213043   2.626   6.168   1.816 -0.4611 -0.0634 -0.8135
 4368TIP3   OH213044   6.086   0.820   3.448  0.1161  0.2215  0.0153
 4368TIP3    H113045   6.006   0.863   3.479  1.4023  1.8004  1.3234
 4368TIP3    H213046   6.119   0.879   3.380 -0.2086 -0.8475 -1.1148
 4369TIP3   OH213047   7.882   4.921   5.670  0.2893  0.9613 -0.2801
 4369TIP3    H113048   7.975   4.945   5.670  0.3355  0.8589  1.0769
 4369TIP3    H213049   7.881   4.829   5.695 -0.1602  0.7827 -0.9189
 4370TIP3   OH213050   7.777   1.457   6.357  0.0780  0.6324 -0.1632
 4370TIP3    H113051   7.802   1.527   6.416  1.7389 -0.7527  0.8761
 4370TIP3    H213052   7.682   1.463   6.351  0.1184  2.4552  0.5002
 4371TIP3   OH213053   4.826   1.077   1.787  0.3479 -0.0639 -0.9365
 4371TIP3    H113054   4.791   1.082   1.876  2.2031 -0.7712 -0.1168
 4371TIP3    H213055   4.823   1.167   1.755 -0.0851  0.2409 -0.0699
 4372TIP3   OH213056   2.738   2.266   0.310  0.0418 -0.1993 -0.0932
 4372TIP3    H113057   2.739   2.354   0.347  0.9481 -0.1845 -0.1358
 4372TIP3    H213058   2.741   2.279   0.216 -1.2181 -0.2621 -0.1658
 4373TIP3   OH213059   1.260   2.416   1.226  0.2591  0.5193 -0.2257
 4373TIP3    H113060   1.241   2.480   1.295 -0.0797  0.1914 -0.0151
 4373TIP3    H213061   1.234   2.459   1.145 -1.5918  0.0017  0.0654
 4374TIP3   OH213062   6.255   4.785   1.480 -0.6843  0.5981  0.1149
 4374TIP3    H113063   6.233   4.840   1.405 -1.1611  2.1431  1.3430
 4374TIP3    H213064   6.171   4.745   1.504 -0.8144  1.1886  0.6580
 4375TIP3   OH213065   0.300   2.782   6.466 -0.0253 -0.1449  0.5731
 4375TIP3    H113066   0.250   2.738   6.397 -1.9668 -0.2526  1.9811
 4375TIP3    H213067   0.362   2.837   6.418  0.9691 -2.6315 -1.2445
 4376TIP3   OH213068   2.534   1.873   5.021  0.7038  0.0887  0.1906
 4376TIP3    H113069   2.443   1.860   4.995  0.5623  0.3293  0.5568
 4376TIP3    H213070   2.529   1.930   5.098  1.2332  1.2025 -0.5785
 4377TIP3   OH213071   1.023   5.450   0.966  0.0404  0.1033 -0.2764
 4377TIP3    H113072   1.024   5.545   0.951 -0.0380  0.0193 -0.8149
 4377TIP3    H213073   0.938   5.433   1.006  0.2858  0.3411  0.3508
 4378TIP3   OH213074   2.927   5.764   5.278 -0.3650  0.3556 -0.1843
 4378TIP3    H113075   2.926   5.736   5.370  0.8376  0.7381 -0.0305
 4378TIP3    H213076   2.845   5.813   5.267 -0.7363 -0.0856  0.5564
 4379TIP3   OH213077   2.079   4.445   6.068 -0.0802 -0.2079  0.0287
 4379TIP3    H113078   2.105   4.473   6.156  0.4400 -1.1493  0.1960
 4379TIP3    H213079   2.025   4.367   6.083 -0.7171  0.1283 -0.4577
 4380TIP3   OH213080   5.084   6.876   2.690  0.2094  0.1705 -0.5178
 4380TIP3    H113081   5.179   6.862   2.688  0.1173 -0.5566  0.0463
 4380TIP3    H213082   5.058   6.855   2.779 -0.7278 -1.2889 -1.0978
 4381TIP3   OH213083   4.721   3.861   5.005  0.4244 -0.4799 -0.2740
 4381TIP3    H113084   4.675   3.805   5.067 -0.4389 -0.1785 -0.6221
 4381TIP3    H213085   4.765   3.926   5.059 -1.3229  0.5352  0.0126
 4382TIP3   OH213086   4.123   1.067   3.017 -0.3075  0.3623 -0.1124
 4382TIP3    H113087   4.203   1.104   2.980  0.2354 -0.4337  0.2438
 4382TIP3    H213088   4.054   1.128   2.991  0.5409  1.5725  0.3960
 4383TIP3   OH213089   2.114   2.085   2.991 -0.2015 -0.0741 -0.2587
 4383TIP3    H113090   2.102   1.993   3.013 -0.6660  0.2302  0.8486
 4383TIP3    H213091   2.197   2.109   3.032 -1.1530  0.5394  1.4419
 4384TIP3   OH213092   6.071   2.852   5.011 -0.4185  0.1065 -0.3713
 4384TIP3    H113093   6.053   2.825   5.101 -1.1239 -0.5708 -0.7102
 4384TIP3    H213094   6.044   2.944   5.008 -1.4268 -0.1717 -0.1729
 4385TIP3   OH213095   7.103   6.677   5.243  0.1390 -0.4327  0.2348
 4385TIP3    H113096   7.196   6.656   5.239  0.2006 -0.1236  0.0172
 4385TIP3    H213097   7.071   6.630   5.319  0.7863  0.6618  1.2213
 4386TIP3   OH213098   4.771   3.497   5.177  0.4384  0.5588  0.1817
 4386TIP3    H113099   4.777   3.554   5.255 -0.3878  2.4247 -1.0399
 4386TIP3    H213100   4.846   3.522   5.124  1.3845 -1.1940  0.6395
 4387TIP3   OH213101   1.348   3.182   1.311  0.1927  0.1382  0.1176
 4387TIP3    H113102   1.427   3.139   1.279  0.0339 -1.4255  1.6427
 4387TIP3    H213103   1.276   3.124   1.283 -0.2883  0.7895 -0.0243
 4388TIP3   OH213104   3.334   0.837   2.419 -0.7548  0.2872 -0.1870
 4388TIP3    H113105   3.247   0.798   2.408 -0.5824 -1.2150  2.6600
 4388TIP3    H213106   3.394   0.773   2.380 -0.8212  0.3783 -0.4354
 4389TIP3   OH213107   5.295   4.299   6.372  0.4417  0.6533  0.0187
 4389TIP3    H113108   5.231   4.279   6.441  1.3907  1.3767  1.1434
 4389TIP3    H213109   5.283   4.393   6.354  1.1952  0.8104  0.2776
 4390TIP3   OH213110   7.588   5.200   6.033  0.7525 -0.4832 -0.1953
 4390TIP3    H113111   7.652   5.212   5.963  0.5441 -0.7378 -0.4299
 4390TIP3    H213112   7.504   5.219   5.991  0.4580 -2.1439 -0.4238
 4391TIP3   OH213113   1.640   2.659   6.268  0.0796  0.4163 -0.0379
 4391TIP3    H113114   1.551   2.666   6.232  0.7340 -0.1752 -1.8876
 4391TIP3    H213115   1.684   2.738   6.237  0.6543 -0.0951 -0.5532
 4392TIP3   OH213116   0.543   1.589   2.361 -0.6669 -0.5105  0.2622
 4392TIP3    H113117   0.546   1.681   2.387  0.0552 -0.9907  2.0278
 4392TIP3    H213118   0.495   1.546   2.431  0.8128 -1.7861  0.5345
 4393TIP3   OH213119   5.365   6.046   0.573  0.7644  0.0149 -0.0096
 4393TIP3    H113120   5.376   5.989   0.497 -1.4098 -0.2111 -0.2092
 4393TIP3    H213121   5.436   6.110   0.566  2.1037 -1.4972 -0.8226
 4394TIP3   OH213122   3.036   7.706   6.296 -0.9016 -0.8402  0.3743
 4394TIP3    H113123   3.038   7.782   6.239 -0.8780 -1.3512 -0.3131
 4394TIP3    H213124   2.991   7.737   6.375 -0.0939  0.1295  0.4711
 4395TIP3   OH213125   5.148   0.591   0.024  0.0796 -0.5951  0.4695
 4395TIP3    H113126   5.156   0.671   0.076  3.5974  0.6196 -1.6410
 4395TIP3    H213127   5.233   0.548   0.032  0.9402 -0.2390 -4.1683
 4396TIP3   OH213128   2.640   6.899   2.910  0.1493  0.4920  1.0468
 4396TIP3    H113129   2.670   6.812   2.937  1.7064  0.5613 -0.2939
 4396TIP3    H213130   2.696   6.960   2.958  0.4632  0.6911  0.4415
 4397TIP3   OH213131   3.105   0.074   0.642  0.0828 -0.3404 -0.2442
 4397TIP3    H113132   3.142   0.159   0.667 -0.2506 -0.3676  0.3585
 4397TIP3    H213133   3.048   0.094   0.568 -0.1501 -0.0029  0.0217
 4398TIP3   OH213134   3.155   6.658   0.091 -0.4742  0.0565 -0.2580
 4398TIP3    H113135   3.127   6.612   0.012 -1.0577  1.3006 -0.7928
 4398TIP3    H213136   3.240   6.696   0.067  0.3829 -1.3369  0.4362
 4399TIP3   OH213137   2.442   0.458   0.953 -0.0717  0.1566  0.0988
 4399TIP3    H113138   2.511   0.399   0.982  0.1027  0.0776 -0.4523
 4399TIP3    H213139   2.389   0.475   1.031  0.1242 -0.3933  0.3551
 4400TIP3   OH213140   5.016   7.205   4.316  0.1787  0.1491 -0.7774
 4400TIP3    H113141   4.986   7.119   4.288  2.4790 -1.1757  0.4874
 4400TIP3    H213142   4.978   7.217   4.403 -0.0796  0.4006 -0.9215
 4401TIP3   OH213143   3.031   4.741   1.659 -0.3723  0.1271  0.1627
 4401TIP3    H113144   3.059   4.679   1.591 -1.5549 -1.3326  0.9455
 4401TIP3    H213145   3.111   4.760   1.708 -0.0715 -1.2693  0.2577
 4402TIP3   OH213146   3.813   5.576   0.667  0.3899  0.0320 -0.4406
 4402TIP3    H113147   3.818   5.554   0.760 -0.5241  1.3551 -0.0564
 4402TIP3    H213148   3.732   5.535   0.637 -0.9180  2.0802  0.0997
 4403TIP3   OH213149   2.502   7.572   5.259 -0.0229 -0.0072 -0.0834
 4403TIP3    H113150   2.407   7.579   5.262  0.1004  2.6300 -0.2656
 4403TIP3    H213151   2.533   7.663   5.258  2.6153 -0.6948  3.0150
 4404TIP3   OH213152   5.939   2.871   3.999 -0.5320  0.8991  0.1270
 4404TIP3    H113153   5.997   2.919   3.940  1.2415 -1.2362  0.0472
 4404TIP3    H213154   5.986   2.867   4.082 -0.5544 -0.7982  0.0888
 4405TIP3   OH213155   6.764   2.665   2.086  0.2251  0.8326  0.3960
 4405TIP3    H113156   6.686   2.620   2.118  0.1194  0.4265 -0.4043
 4405TIP3    H213157   6.730   2.736   2.031  0.3793 -0.7161 -1.8298
 4406TIP3   OH213158   4.723   1.239   2.484 -0.1146  0.1085  0.3211
 4406TIP3    H113159   4.804   1.196   2.455 -0.8994  0.2604 -2.3535
 4406TIP3    H213160   4.654   1.176   2.465 -0.7710  0.4083  1.5860
 4407TIP3   OH213161   0.399   6.370   4.713  0.5820  0.1043 -0.2831
 4407TIP3    H113162   0.304   6.382   4.713  0.8112  2.2026 -0.9215
 4407TIP3    H213163   0.417   6.321   4.794 -0.9296  0.6266  0.3939
 4408TIP3   OH213164   7.292   1.350   4.690  0.2523 -0.4005  0.0922
 4408TIP3    H113165   7.253   1.435   4.712  0.9119 -0.6736  2.6562
 4408TIP3    H213166   7.265   1.334   4.600  0.5723  2.7870 -0.6925
 4409TIP3   OH213167   0.315   3.645   0.910  0.3225  0.3015  0.3741
 4409TIP3    H113168   0.374   3.582   0.952 -0.8816 -0.4310  1.0199
 4409TIP3    H213169   0.288   3.704   0.980 -2.0162 -1.1673  0.8372
 4410TIP3   OH213170   8.024   4.659   4.333 -0.3574 -0.0210  0.1445
 4410TIP3    H113171   7.967   4.590   4.367  2.6660 -2.8384  0.0811
 4410TIP3    H213172   8.009   4.733   4.391 -1.4495 -1.8482  2.3815
 4411TIP3   OH213173   2.753   5.293   0.738  0.1658  0.4854  0.1875
 4411TIP3    H113174   2.748   5.347   0.658 -0.3919  2.8085  1.6966
 4411TIP3    H213175   2.846   5.267   0.743 -0.1924 -1.7985 -2.4052
 4412TIP3   OH213176   1.558   4.966   3.846 -0.0790 -0.1754  0.1134
 4412TIP3    H113177   1.536   5.043   3.793  0.4400 -0.9791 -1.3108
 4412TIP3    H213178   1.509   4.979   3.927 -3.3564 -0.3028 -1.6560
 4413TIP3   OH213179   6.364   7.413   1.416  0.1511  0.6189 -0.2411
 4413TIP3    H113180   6.441   7.432   1.469  0.1929 -2.1866  0.8865
 4413TIP3    H213181   6.399   7.372   1.337 -0.1439 -0.5624  0.2255
 4414TIP3   OH213182   4.552   6.338   4.471  0.0703 -0.5186  0.3288
 4414TIP3    H113183   4.534   6.432   4.482 -0.5796 -0.5414 -0.4284
 4414TIP3    H213184   4.574   6.329   4.379  0.4062 -1.0775  0.4618
 4415TIP3   OH213185   1.048   1.417   3.041 -0.0189 -0.0861 -0.4601
 4415TIP3    H113186   1.028   1.511   3.043  0.9980  0.1265  0.3422
 4415TIP3    H213187   1.002   1.385   2.963 -1.1257  0.8905 -0.2456
 4416TIP3   OH213188   7.392   6.038   3.763 -0.2147 -0.0761  0.1990
 4416TIP3    H113189   7.463   6.064   3.821 -2.1087  3.5342  1.2514
 4416TIP3    H213190   7.384   5.944   3.774  3.5360 -0.4493  0.9118
 4417TIP3   OH213191   2.893   6.269   3.146 -1.1653 -0.2359  0.1501
 4417TIP3    H113192   2.830   6.335   3.174 -1.7998 -0.3470 -0.9331
 4417TIP3    H213193   2.852   6.228   3.069 -0.7191 -1.7716  0.6837
 4418TIP3   OH213194   2.525   4.297   0.081 -0.1154  0.0147  0.0680
 4418TIP3    H113195   2.582   4.285   0.005 -1.1151  0.5999 -0.7959
 4418TIP3    H213196   2.522   4.392   0.094  0.3294 -0.0974  1.0738
 4419TIP3   OH213197   1.162   0.163   0.434  0.2629  0.0943  0.6488
 4419TIP3    H113198   1.080   0.117   0.420 -0.9399  2.0205  0.9696
 4419TIP3    H213199   1.204   0.165   0.348  0.2912 -1.3896  0.5934
 4420TIP3   OH213200   3.105   0.100   1.891 -0.2461 -0.3469  0.8831
 4420TIP3    H113201   3.032   0.147   1.850  0.1512 -0.0173  0.5390
 4420TIP3    H213202   3.076   0.009   1.895  0.0194 -0.5624 -0.9382
 4421TIP3   OH213203   5.205   4.136   0.396 -0.6730  0.3712  0.3250
 4421TIP3    H113204   5.196   4.064   0.459  2.3926  0.4416  0.9972
 4421TIP3    H213205   5.206   4.215   0.449  2.4248  0.4043  0.4031
 4422TIP3   OH213206   8.341   4.661   6.353  0.6642 -0.3898  0.1107
 4422TIP3    H113207   8.272   4.677   6.288  1.3281 -1.1383 -0.8209
 4422TIP3    H213208   8.322   4.574   6.387 -0.4274  0.5143  1.9178
 4423TIP3   OH213209   5.190   3.012   3.558 -0.7139 -0.2231  1.3229
 4423TIP3    H113210   5.252   3.045   3.623 -1.1786 -0.1616  1.7323
 4423TIP3    H213211   5.174   2.921   3.582 -0.0308 -0.5454  0.6382
 4424TIP3   OH213212   5.567   3.014   2.410 -0.3564 -0.2890  0.4819
 4424TIP3    H113213   5.603   2.996   2.323 -0.6149 -1.4058  0.5800
 4424TIP3    H213214   5.481   3.052   2.393 -0.3089 -0.2881  0.2456
 4425TIP3   OH213215   6.292   4.910   1.939 -0.5364  0.0050  0.5034
 4425TIP3    H113216   6.231   4.984   1.936 -1.5572 -0.8302 -0.2579
 4425TIP3    H213217   6.338   4.914   1.855 -0.5783 -0.2164  0.4711
 4426TIP3   OH213218   4.826   4.320   4.921 -0.5245 -0.4626 -0.1568
 4426TIP3    H113219   4.859   4.350   5.005 -0.3952  0.1709 -0.4228
 4426TIP3    H213220   4.788   4.399   4.881 -0.4867 -0.7295 -0.7330
 4427TIP3   OH213221   7.482   1.450   0.280 -0.2189  0.2275  0.2320
 4427TIP3    H113222   7.527   1.482   0.202 -1.3002  0.6217 -0.2609
 4427TIP3    H213223   7.501   1.515   0.347  0.2474  0.1907  0.1368
 4428TIP3   OH213224   2.434   4.641   4.864 -0.2716  0.0712  0.7947
 4428TIP3    H113225   2.489   4.570   4.829 -0.7627 -0.6766  1.5164
 4428TIP3    H213226   2.344   4.610   4.851 -0.4966  0.7076  0.8280
 4429TIP3   OH213227   5.017   0.054   1.951  0.0696  0.0916 -0.3252
 4429TIP3    H113228   5.050   0.137   1.985 -3.4652  0.7641  2.0133
 4429TIP3    H213229   4.995   0.072   1.859 -0.9077  1.9290  0.2190
 4430TIP3   OH213230   0.569   6.529   6.211  0.1571 -0.0426  0.3197
 4430TIP3    H113231   0.642   6.490   6.259  0.0544 -0.7289 -0.0638
 4430TIP3    H213232   0.492   6.481   6.241  0.2784 -1.6367 -1.6705
 4431TIP3   OH213233   2.997   7.924   2.934  0.0327 -0.6646  0.6901
 4431TIP3    H113234   2.925   7.863   2.946  0.3248 -0.9880  0.8279
 4431TIP3    H213235   3.059   7.878   2.877 -0.4783  0.1272 -0.5667
 4432TIP3   OH213236   0.353   5.286   6.103  0.0447 -0.2444 -0.0625
 4432TIP3    H113237   0.353   5.370   6.150  1.9113  0.1758 -0.7281
 4432TIP3    H213238   0.295   5.301   6.028 -1.1517 -0.1899  0.8525
 4433TIP3   OH213239   1.118   6.588   2.182 -0.3019  0.3757  0.0809
 4433TIP3    H113240   1.189   6.611   2.122 -0.9523  3.5091  0.3205
 4433TIP3    H213241   1.126   6.651   2.253 -1.7059 -0.9651  1.5017
 4434TIP3   OH213242   1.673   6.654   2.534  0.6594  0.1559 -0.4127
 4434TIP3    H113243   1.595   6.638   2.587  1.6432 -2.5580  0.3480
 4434TIP3    H213244   1.714   6.730   2.576 -2.5342  3.2107 -2.1601
 4435TIP3   OH213245   5.412   7.896   0.923  0.0719  0.1851 -0.2792
 4435TIP3    H113246   5.497   7.940   0.927  0.2380 -0.1176 -0.4555
 4435TIP3    H213247   5.380   7.899   1.013  0.9186 -0.9628  0.0876
 4436TIP3   OH213248   2.271   5.254   3.123  0.6320 -0.4771  0.2715
 4436TIP3    H113249   2.263   5.313   3.198  1.4641 -0.9552  0.7498
 4436TIP3    H213250   2.304   5.172   3.161 -0.4263 -1.2425 -0.3805
 4437TIP3   OH213251   3.281   1.252   5.039 -0.0596 -0.1473 -0.4619
 4437TIP3    H113252   3.207   1.261   4.979  0.6156  0.6586 -1.2094
 4437TIP3    H213253   3.357   1.238   4.982  0.6742  1.1274  0.1446
 4438TIP3   OH213254   7.297   6.092   3.033  0.8839  0.0295  0.1028
 4438TIP3    H113255   7.272   6.035   3.105  1.2105 -1.0106 -0.5733
 4438TIP3    H213256   7.324   6.032   2.963  2.4123  1.0266 -0.2293
 4439TIP3   OH213257   2.575   1.776   4.754  0.2092 -0.3362 -0.2920
 4439TIP3    H113258   2.531   1.692   4.760 -1.4566  0.4633 -0.6119
 4439TIP3    H213259   2.558   1.818   4.838 -1.2240  0.6682 -1.0230
 4440TIP3   OH213260   1.293   2.288   5.564 -0.1743 -0.0813  0.5139
 4440TIP3    H113261   1.329   2.205   5.534  1.4337  0.9048 -0.4051
 4440TIP3    H213262   1.304   2.287   5.659  2.7709  0.3297  0.2547
 4441TIP3   OH213263   5.976   0.993   5.450 -0.3169  0.5642 -0.0651
 4441TIP3    H113264   5.967   1.089   5.449 -0.0299  0.5898 -0.6140
 4441TIP3    H213265   5.925   0.964   5.375  0.1121  0.3319 -0.2651
 4442TIP3   OH213266   0.735   1.989   4.080 -0.3801 -0.0976  0.3975
 4442TIP3    H113267   0.662   2.013   4.023  0.5524 -0.7876 -1.1360
 4442TIP3    H213268   0.798   2.060   4.069  0.1887 -0.6805 -0.1510
 4443TIP3   OH213269   1.527   7.351   4.391 -0.1750  0.1570 -0.0028
 4443TIP3    H113270   1.483   7.301   4.322 -0.7805 -0.4505  0.7935
 4443TIP3    H213271   1.459   7.409   4.426  0.3439  1.0627 -0.4516
 4444TIP3   OH213272   1.341   2.829   1.212 -0.2632  0.1988 -0.5540
 4444TIP3    H113273   1.322   2.807   1.121 -1.3898  0.0066 -0.2902
 4444TIP3    H213274   1.410   2.895   1.208  0.5811 -0.7206 -1.4943
 4445TIP3   OH213275   2.703   5.702   4.363  0.1164 -0.5424  0.3113
 4445TIP3    H113276   2.673   5.787   4.395 -0.2095 -0.2071 -0.8386
 4445TIP3    H213277   2.776   5.679   4.421 -0.1039  0.2827  0.9377
 4446TIP3   OH213278   5.327   0.890   5.004  0.3399  0.3682  0.0261
 4446TIP3    H113279   5.349   0.825   4.937 -1.4538  0.2624 -0.5194
 4446TIP3    H213280   5.234   0.908   4.990  0.0340  0.7395  2.1649
 4447TIP3   OH213281   4.742   7.271   4.503  0.4392 -0.5426 -0.5155
 4447TIP3    H113282   4.776   7.355   4.473 -0.4341 -0.8444 -2.5664
 4447TIP3    H213283   4.819   7.222   4.531  1.1314  0.3963 -0.7425
 4448TIP3   OH213284   1.311   2.151   4.371 -0.4330  0.1079 -0.3650
 4448TIP3    H113285   1.334   2.210   4.300 -1.5696 -0.1079 -0.9356
 4448TIP3    H213286   1.308   2.206   4.449  1.8312  0.1683 -0.2468
 4449TIP3   OH213287   4.325   5.363   1.336 -0.5026 -0.1105 -0.1981
 4449TIP3    H113288   4.419   5.365   1.355 -0.3355  0.3810 -0.9996
 4449TIP3    H213289   4.319   5.397   1.246 -1.3332 -1.3856 -0.6378
 4450TIP3   OH213290   4.142   4.633   3.901  0.5444 -0.2700  0.1821
 4450TIP3    H113291   4.142   4.539   3.920  0.5489 -0.4008 -0.4668
 4450TIP3    H213292   4.059   4.664   3.937  0.5720 -0.5087  0.4576
 4451TIP3   OH213293   4.970   6.162   3.291  0.2759  0.3780 -0.2682
 4451TIP3    H113294   4.957   6.071   3.319  0.6445  0.2431 -0.5343
 4451TIP3    H213295   4.952   6.214   3.370  0.5181  0.0477  0.0092
 4452TIP3   OH213296   5.251   5.026   4.066  0.0559 -0.1548 -0.0880
 4452TIP3    H113297   5.212   4.950   4.110 -1.5391  0.2685 -0.6820
 4452TIP3    H213298   5.189   5.048   3.997  0.8738  1.2093 -0.4342
 4453TIP3   OH213299   3.688   0.201   6.773  0.1589 -0.1069 -0.0517
 4453TIP3    H113300   3.773   0.188   6.815  0.5662  1.1457 -0.4428
 4453TIP3    H213301   3.640   0.260   6.832  0.4709  1.0952 -0.9599
 4454TIP3   OH213302   2.874   4.013   1.571 -0.3770 -0.0740  0.6237
 4454TIP3    H113303   2.791   4.056   1.552 -1.1773 -1.7630  0.0719
 4454TIP3    H213304   2.920   4.011   1.487 -0.0327  0.3421  0.8015
 4455TIP3   OH213305   3.305   1.608   1.203  0.1199 -0.1662  0.0225
 4455TIP3    H113306   3.233   1.587   1.262 -0.5934 -1.4209 -1.2299
 4455TIP3    H213307   3.305   1.703   1.196 -0.7277 -0.0985  0.8670
 4456TIP3   OH213308   5.779   7.854   2.997  0.1443  0.1958  0.0307
 4456TIP3    H113309   5.805   7.790   3.064  3.5310 -1.5283 -2.6424
 4456TIP3    H213310   5.854   7.913   2.990 -1.2370  1.9888 -0.5099
 4457TIP3   OH213311   7.728   6.780   0.518  0.2567 -0.4670 -0.7254
 4457TIP3    H113312   7.767   6.745   0.438  0.1263 -1.0281 -0.5522
 4457TIP3    H213313   7.803   6.808   0.571  0.5155 -2.3234 -0.0328
 4458TIP3   OH213314   3.228   4.364   0.513  0.1686 -0.0955  0.1456
 4458TIP3    H113315   3.286   4.360   0.589 -0.5220  0.7744  0.7322
 4458TIP3    H213316   3.160   4.427   0.537 -0.6369 -0.5730 -0.8050
 4459TIP3   OH213317   5.700   0.276   4.857 -0.0298  0.4705 -0.1586
 4459TIP3    H113318   5.633   0.231   4.805 -0.3123  1.2630 -0.5008
 4459TIP3    H213319   5.687   0.243   4.946 -2.5800  2.4031  0.3103
 4460TIP3   OH213320   3.922   0.253   5.553  0.4511 -0.0636 -0.8635
 4460TIP3    H113321   3.834   0.269   5.587  0.3729  0.0743 -1.1255
 4460TIP3    H213322   3.910   0.181   5.491  0.6988 -0.7508 -0.1384
 4461TIP3   OH213323   3.094   5.182   3.278  0.1484 -0.0563 -1.2671
 4461TIP3    H113324   3.074   5.207   3.188 -0.6240  0.0676 -1.0705
 4461TIP3    H213325   3.105   5.265   3.324 -2.4854  0.0215 -0.6000
 4462TIP3   OH213326   1.395   3.743   3.930  0.2996 -0.2900 -0.2182
 4462TIP3    H113327   1.331   3.672   3.921  0.1123  0.0323 -1.5358
 4462TIP3    H213328   1.426   3.759   3.841  1.7809 -0.0262  0.3183
 4463TIP3   OH213329   0.597   7.595   0.320  0.0667  0.0902  0.0938
 4463TIP3    H113330   0.559   7.658   0.259  0.3889 -2.0267 -2.4789
 4463TIP3    H213331   0.555   7.512   0.298  1.9600 -1.2148  1.1457
 4464TIP3   OH213332   7.789   7.283   1.390  0.0738  0.5009 -0.3895
 4464TIP3    H113333   7.699   7.253   1.399  0.1692 -0.1931 -1.4981
 4464TIP3    H213334   7.781   7.375   1.366 -0.2872  0.8302  0.9316
 4465TIP3   OH213335   6.903   5.315   2.708  0.3670 -0.3377  1.0028
 4465TIP3    H113336   6.847   5.242   2.735  0.0970 -0.8336 -0.7950
 4465TIP3    H213337   6.984   5.273   2.680 -0.0225 -0.0685 -0.6643
 4466TIP3   OH213338   4.701   7.417   1.905  0.3447 -0.1293 -0.4106
 4466TIP3    H113339   4.719   7.502   1.866  2.1175  0.1800  0.9341
 4466TIP3    H213340   4.662   7.365   1.834 -0.6043  1.7069 -1.3039
 4467TIP3   OH213341   4.145   2.842   1.245  0.0806  0.0358  0.2792
 4467TIP3    H113342   4.200   2.899   1.299 -0.6600 -1.4443  2.8130
 4467TIP3    H213343   4.205   2.777   1.209  0.3980  0.1664  0.5658
 4468TIP3   OH213344   0.902   0.350   2.258 -0.0054 -0.1828 -0.1617
 4468TIP3    H113345   0.838   0.305   2.203  0.5461 -2.0879  0.6936
 4468TIP3    H213346   0.876   0.330   2.348  0.7460  0.5506  0.2334
 4469TIP3   OH213347   3.904   7.471   4.160  0.3786  0.5051 -0.4062
 4469TIP3    H113348   3.892   7.498   4.069  1.1565 -1.2028 -1.0651
 4469TIP3    H213349   3.846   7.396   4.170  1.9468 -0.7454 -0.2303
 4470TIP3   OH213350   8.253   7.738   0.062  0.4114  0.5472 -0.1281
 4470TIP3    H113351   8.295   7.780   0.137 -0.3971 -0.7031  1.0644
 4470TIP3    H213352   8.256   7.644   0.081 -0.3267  0.2332 -1.3989
 4471TIP3   OH213353   6.617   6.423   4.120  0.0565  0.2031  0.6064
 4471TIP3    H113354   6.567   6.498   4.151 -2.8982 -1.0507 -0.6665
 4471TIP3    H213355   6.569   6.347   4.155  1.9841 -1.1211  0.5104
 4472TIP3   OH213356   2.712   7.252   1.391 -0.1946  0.7483 -0.4559
 4472TIP3    H113357   2.651   7.275   1.321 -1.8501 -2.1504 -0.1232
 4472TIP3    H213358   2.797   7.283   1.360 -1.0198  0.3970 -3.3405
 4473TIP3   OH213359   0.800   7.845   1.996  0.2354 -0.3236  0.3249
 4473TIP3    H113360   0.860   7.913   1.969 -0.3480 -0.3249 -1.0274
 4473TIP3    H213361   0.759   7.879   2.076 -0.6921  1.3215 -0.7965
 4474TIP3   OH213362   0.364   3.239   1.496  0.6455  0.1900  0.2159
 4474TIP3    H113363   0.389   3.331   1.484 -0.5085  0.6986  1.4605
 4474TIP3    H213364   0.275   3.234   1.463  1.0703 -0.7630 -0.8479
 4475TIP3   OH213365   0.112   0.276   4.159 -0.2868 -0.0881  0.2126
 4475TIP3    H113366   0.198   0.266   4.120 -0.3019 -0.5300  0.2867
 4475TIP3    H213367   0.053   0.229   4.100 -0.5428  0.5704 -0.0641
 4476TIP3   OH213368   2.460   1.934   3.279 -0.6486  0.0967  0.1112
 4476TIP3    H113369   2.464   1.876   3.203  1.4629 -0.2930  0.4726
 4476TIP3    H213370   2.440   2.020   3.242 -1.5395 -0.4219 -0.6681
 4477TIP3   OH213371   7.916   0.548   0.839 -0.5419 -0.1664 -0.7605
 4477TIP3    H113372   7.910   0.644   0.844  1.9215  0.0412 -0.2307
 4477TIP3    H213373   7.995   0.532   0.786  2.8112 -1.6582  4.0215
 4478TIP3   OH213374   3.912   2.475   1.070  0.6917 -0.1019 -0.3719
 4478TIP3    H113375   3.932   2.538   1.139  0.7945 -1.2705  0.7047
 4478TIP3    H213376   3.867   2.526   1.003 -1.7809  0.6145  1.6770
 4479TIP3   OH213377   3.025   5.333   0.097 -0.0028  0.0068  0.1938
 4479TIP3    H113378   2.965   5.353   0.025 -0.3117  0.5824  0.5992
 4479TIP3    H213379   3.054   5.243   0.080  0.2744  0.2863 -0.8794
 4480TIP3   OH213380   1.357   0.848   1.114 -0.2374 -0.1527 -0.0936
 4480TIP3    H113381   1.313   0.780   1.062 -0.0087 -2.1010  2.1127
 4480TIP3    H213382   1.330   0.930   1.073 -1.1342 -1.5106 -2.4256
 4481TIP3   OH213383   2.417   5.442   5.086 -0.4840 -0.3763 -0.1868
 4481TIP3    H113384   2.418   5.510   5.019 -0.4763  0.8815  1.0510
 4481TIP3    H213385   2.325   5.416   5.092 -0.5129 -0.3643 -0.5446
 4482TIP3   OH213386   7.816   7.166   4.595  0.2202  0.4653  0.0316
 4482TIP3    H113387   7.894   7.198   4.547  0.7949 -1.0285 -0.0682
 4482TIP3    H213388   7.791   7.086   4.549  0.5760 -0.8243  2.0090
 4483TIP3   OH213389   5.221   4.687   3.213 -0.0943 -0.1569 -0.3777
 4483TIP3    H113390   5.210   4.725   3.126  0.5075  0.3036 -0.2540
 4483TIP3    H213391   5.285   4.743   3.256 -0.6337 -0.1905  0.4831
 4484TIP3   OH213392   1.886   2.001   3.972 -0.7148  0.3875  0.1891
 4484TIP3    H113393   1.856   1.919   4.010  2.9752 -0.9421  0.6532
 4484TIP3    H213394   1.850   2.069   4.030 -2.4748 -0.9488  0.7614
 4485TIP3   OH213395   0.023   7.884   4.280 -0.2028 -0.6117 -0.1307
 4485TIP3    H113396  -0.005   7.794   4.266  0.4853 -0.9999  0.8433
 4485TIP3    H213397   0.115   7.885   4.253 -1.0817  0.7329 -3.6582
 4486TIP3   OH213398   4.428   4.891   1.952  0.6187 -0.3894 -0.4333
 4486TIP3    H113399   4.512   4.912   1.991  0.7529 -0.2107 -0.8136
 4486TIP3    H213400   4.427   4.939   1.869 -0.0694  0.0148 -0.1965
 4487TIP3   OH213401   0.434   2.301   6.104 -0.0054 -0.7652 -0.4335
 4487TIP3    H113402   0.501   2.357   6.143  0.4314 -1.3533 -0.3287
 4487TIP3    H213403   0.482   2.226   6.071 -0.4916 -0.7174 -1.2757
 4488TIP3   OH213404   7.646   0.664   3.794 -0.5824 -0.1600 -0.1209
 4488TIP3    H113405   7.632   0.757   3.810  0.3206 -0.0709  0.2004
 4488TIP3    H213406   7.658   0.657   3.700  0.3011  0.1927 -0.0432
 4489TIP3   OH213407   5.668   0.593   3.291 -0.3257  0.2659  0.4635
 4489TIP3    H113408   5.659   0.623   3.381  0.6357 -0.0947  0.6955
 4489TIP3    H213409   5.588   0.544   3.273  0.3942 -1.5348  1.8664
 4490TIP3   OH213410   4.147   4.422   3.189 -0.1424 -0.3236  0.4389
 4490TIP3    H113411   4.218   4.486   3.193 -0.2714 -0.1609  4.2788
 4490TIP3    H213412   4.183   4.344   3.232 -1.6994 -0.8337  0.8824
 4491TIP3   OH213413   4.971   7.558   5.154 -0.2005  0.9624  0.3349
 4491TIP3    H113414   4.932   7.473   5.132  3.0746 -0.3849 -0.9870
 4491TIP3    H213415   4.947   7.615   5.081 -0.4968  0.4629  0.0387
 4492TIP3   OH213416   7.485   3.376   5.168 -0.7693  0.0534 -0.4649
 4492TIP3    H113417   7.565   3.323   5.171 -0.3913  0.6449  0.4784
 4492TIP3    H213418   7.448   3.358   5.082 -1.7520 -3.3042  0.5126
 4493TIP3   OH213419   4.697   1.004   4.888 -0.0881  0.3357  0.3978
 4493TIP3    H113420   4.756   0.974   4.957  0.7506 -0.0365 -0.4596
 4493TIP3    H213421   4.633   0.933   4.879 -0.7347  0.7821  1.3958
 4494TIP3   OH213422   5.203   4.301   5.938 -0.0324 -0.0735  0.1665
 4494TIP3    H113423   5.228   4.240   6.007 -0.8530  0.2056  0.7360
 4494TIP3    H213424   5.285   4.329   5.899  0.4514 -0.2139  1.0613
 4495TIP3   OH213425   0.132   4.362   2.611 -0.1054 -0.1203 -0.8356
 4495TIP3    H113426   0.203   4.424   2.622 -0.1162 -0.2609  0.0420
 4495TIP3    H213427   0.056   4.416   2.591 -0.1663  0.1775  0.1502
 4496TIP3   OH213428   4.133   1.229   6.640 -0.0546  0.0174 -0.3404
 4496TIP3    H113429   4.194   1.291   6.679 -0.2648 -0.1112  0.2173
 4496TIP3    H213430   4.065   1.218   6.707  0.0727 -0.9456 -0.3483
 4497TIP3   OH213431   0.985   5.125   2.960 -0.3014 -0.6175  0.2946
 4497TIP3    H113432   0.913   5.089   2.910 -0.6678  1.3501 -0.6846
 4497TIP3    H213433   0.960   5.111   3.052 -1.2010 -1.2687 -0.0384
 4498TIP3   OH213434   2.731   3.302   4.598  0.2327 -0.1377  0.5841
 4498TIP3    H113435   2.697   3.287   4.510 -0.9188  0.6240  0.8736
 4498TIP3    H213436   2.702   3.390   4.621 -3.1537 -1.7176  3.2767
 4499TIP3   OH213437   3.382   3.358   1.082 -0.0183  0.3890 -0.0389
 4499TIP3    H113438   3.431   3.308   1.147 -0.7129 -2.1447 -1.3284
 4499TIP3    H213439   3.416   3.329   0.998 -2.4467 -0.1232 -0.9188
 4500TIP3   OH213440   6.081   3.086   2.015 -0.1038 -0.1833  0.7101
 4500TIP3    H113441   6.148   3.148   1.990  0.0480 -0.5130  0.2953
 4500TIP3    H213442   5.999   3.125   1.984  0.2188 -1.3302 -1.8293
 4501TIP3   OH213443   8.087   6.130   1.108  0.0901 -0.9765  0.2720
 4501TIP3    H113444   8.007   6.084   1.133 -1.7446  2.5588  1.6514
 4501TIP3    H213445   8.107   6.186   1.183  2.0632  0.5000 -1.2493
 4502TIP3   OH213446   7.268   0.201   0.510 -0.0320 -0.4440  0.1493
 4502TIP3    H113447   7.250   0.285   0.552  0.3929 -0.6552  0.7748
 4502TIP3    H213448   7.237   0.212   0.420 -1.2107 -0.0731  0.5847
 4503TIP3   OH213449   3.547   1.055   3.929  0.7305 -0.7005  0.0272
 4503TIP3    H113450   3.639   1.080   3.931  0.2872  1.0144  1.8709
 4503TIP3    H213451   3.503   1.118   3.987 -1.7453 -0.9285 -1.4480
 4504TIP3   OH213452   5.365   5.481   5.028 -0.0781 -0.3287  0.0218
 4504TIP3    H113453   5.355   5.388   5.006 -2.8638 -0.1546  0.2384
 4504TIP3    H213454   5.327   5.490   5.115  1.7022  0.7809  0.7441
 4505TIP3   OH213455   7.354   7.335   2.930 -0.2819 -0.4775  0.2738
 4505TIP3    H113456   7.371   7.376   2.845 -0.1356  0.1780  0.6132
 4505TIP3    H213457   7.274   7.285   2.917 -1.8916  1.8922  0.5012
 4506TIP3   OH213458   7.756   6.288   5.307  0.3047 -0.0794  0.0198
 4506TIP3    H113459   7.708   6.330   5.235 -0.4890 -1.4471 -0.2845
 4506TIP3    H213460   7.766   6.357   5.372 -0.5098  0.7246 -0.6671
 4507TIP3   OH213461   2.644   1.109   2.278 -0.7565 -0.0939  0.1803
 4507TIP3    H113462   2.619   1.027   2.235 -1.8309  0.2884  0.0359
 4507TIP3    H213463   2.580   1.173   2.247 -0.1191  0.7374  0.5264
 4508TIP3   OH213464   4.850   1.952   2.928 -0.2495  0.1191 -0.3305
 4508TIP3    H113465   4.930   1.985   2.968  1.3445  0.2457 -3.3538
 4508TIP3    H213466   4.841   1.863   2.962  1.4934 -0.1005 -0.3777
 4509TIP3   OH213467   3.972   6.901   5.956 -0.6871  0.0026 -0.4060
 4509TIP3    H113468   4.029   6.908   5.879  0.9595  4.1706  0.9104
 4509TIP3    H213469   3.889   6.940   5.928 -1.1037 -1.1454 -0.8188
 4510TIP3   OH213470   7.842   6.196   1.738 -0.2150 -0.7437 -0.0186
 4510TIP3    H113471   7.774   6.258   1.711 -1.3832 -2.0323 -0.1912
 4510TIP3    H213472   7.830   6.187   1.833  0.2310 -0.4018  0.0741
 4511TIP3   OH213473   5.380   3.732   4.293 -0.0529 -0.1641  0.4782
 4511TIP3    H113474   5.416   3.654   4.336  0.6864  0.7916  1.6711
 4511TIP3    H213475   5.306   3.757   4.349 -1.8350 -1.3272 -1.2110
 4512TIP3   OH213476   0.313   0.908   3.763 -0.0027  0.5282 -0.1763
 4512TIP3    H113477   0.346   0.819   3.781  0.3839  0.6684 -0.1849
 4512TIP3    H213478   0.304   0.947   3.850  1.7234  1.1547 -0.2392
 4513TIP3   OH213479   1.318   5.267   4.466  0.1041  0.2296 -0.3585
 4513TIP3    H113480   1.350   5.310   4.386  1.4259 -0.1304 -0.0492
 4513TIP3    H213481   1.369   5.306   4.537 -0.7245  0.2067  0.2732
 4514TIP3   OH213482   3.183   7.068   3.055  0.4586 -0.4082  0.3098
 4514TIP3    H113483   3.263   7.020   3.033 -0.2399 -0.5677 -2.2024
 4514TIP3    H213484   3.191   7.087   3.149  3.5962 -0.0877  0.0760
 4515TIP3   OH213485   8.306   1.237   0.274  0.7359  0.0114  0.3800
 4515TIP3    H113486   8.244   1.184   0.325 -0.0970  0.5705 -0.0158
 4515TIP3    H213487   8.348   1.294   0.338  1.4793 -0.9683  0.7768
 4516TIP3   OH213488   2.050   6.709   0.824  0.5074  0.3294  0.2299
 4516TIP3    H113489   2.017   6.773   0.761 -0.9293  0.8225  1.4000
 4516TIP3    H213490   2.122   6.755   0.869 -1.0934  1.5771  1.6892
 4517TIP3   OH213491   5.076   0.636   3.896  0.8238  0.4188 -0.0977
 4517TIP3    H113492   5.107   0.724   3.918 -1.5147  1.3559 -0.2748
 4517TIP3    H213493   5.033   0.647   3.811 -1.0236 -0.4872  0.6788
 4518TIP3   OH213494   3.981   6.720   3.161 -0.3213  0.5630 -0.2644
 4518TIP3    H113495   3.926   6.714   3.084 -0.4256 -1.3814 -0.0883
 4518TIP3    H213496   3.921   6.740   3.233 -0.2859  1.9092 -0.5910
 4519TIP3   OH213497   6.190   3.334   1.965 -0.2134  0.0502  0.1515
 4519TIP3    H113498   6.255   3.404   1.978  0.6514 -0.7303  0.1131
 4519TIP3    H213499   6.133   3.368   1.896 -0.2948  1.0502  0.6811
 4520TIP3   OH213500   3.796   4.664   3.826 -0.0114  0.0522 -0.3867
 4520TIP3    H113501   3.722   4.617   3.788  0.2721 -0.6737 -0.0546
 4520TIP3    H213502   3.836   4.709   3.752 -0.1831 -0.3754 -0.7412
 4521TIP3   OH213503   3.789   0.850   6.113 -0.5493  1.0054 -0.2940
 4521TIP3    H113504   3.731   0.779   6.085 -1.9869  2.0890 -0.1452
 4521TIP3    H213505   3.843   0.869   6.035 -0.0139 -0.3419 -0.2803
 4522TIP3   OH213506   0.694   0.153   5.235  0.1683 -0.4228  0.3463
 4522TIP3    H113507   0.748   0.076   5.254 -0.5182 -0.5484  1.9666
 4522TIP3    H213508   0.742   0.226   5.272 -0.3047 -0.4107  0.9568
 4523TIP3   OH213509   3.182   2.144   1.528  0.5104  0.6019 -0.3250
 4523TIP3    H113510   3.115   2.157   1.596  0.0424  1.9704 -1.0228
 4523TIP3    H213511   3.231   2.226   1.526  1.6954 -0.0847 -0.4072
 4524TIP3   OH213512   6.424   0.021   3.974  0.6242 -0.1538 -0.4872
 4524TIP3    H113513   6.508   0.066   3.979  1.4178 -1.6870  0.8609
 4524TIP3    H213514   6.367   0.069   4.034  0.9407  0.0671 -0.3623
 4525TIP3   OH213515   0.410   3.546   3.381 -0.5666 -0.2476 -0.3992
 4525TIP3    H113516   0.397   3.619   3.442  0.5614  1.2876 -1.8832
 4525TIP3    H213517   0.477   3.492   3.423 -0.7368  0.0710  0.3028
 4526TIP3   OH213518   4.984   3.420   0.562  0.3598  0.4577 -0.3264
 4526TIP3    H113519   4.916   3.371   0.516  1.1861 -1.1327  0.0563
 4526TIP3    H213520   5.065   3.397   0.517  0.8423  0.9628  0.2694
 4527TIP3   OH213521   6.158   6.107   6.365 -0.1824  0.0765  0.0872
 4527TIP3    H113522   6.220   6.169   6.401  0.8079 -0.7934 -0.0726
 4527TIP3    H213523   6.109   6.157   6.300  1.4278  0.4030 -0.9199
 4528TIP3   OH213524   3.500   5.981   5.715  0.5859  0.9174 -0.1601
 4528TIP3    H113525   3.511   5.973   5.620  0.0735 -0.7851 -0.1165
 4528TIP3    H213526   3.426   5.924   5.735  1.0233  0.8347  1.3334
 4529TIP3   OH213527   3.186   2.463   1.509  0.1273 -0.0851  0.2821
 4529TIP3    H113528   3.095   2.476   1.536  0.3336  0.2488  0.8153
 4529TIP3    H213529   3.237   2.466   1.590  0.6130 -0.3010 -0.0081
 4530TIP3   OH213530   5.934   2.069   4.667  0.8028  0.2226  0.3916
 4530TIP3    H113531   5.864   2.066   4.602  0.3139 -0.2048  0.9368
 4530TIP3    H213532   6.012   2.095   4.617  0.6058 -0.8631 -0.5074
 4531TIP3   OH213533   6.232   4.257   6.341  0.2796 -0.6734 -0.2861
 4531TIP3    H113534   6.322   4.231   6.324  0.6476  0.5032 -0.2252
 4531TIP3    H213535   6.207   4.308   6.265  0.7012  1.5340  0.9682
 4532TIP3   OH213536   2.610   4.478   1.746  0.6491 -0.1432 -0.0441
 4532TIP3    H113537   2.602   4.402   1.805  0.1749  0.2690  0.4347
 4532TIP3    H213538   2.682   4.529   1.782  0.8704 -0.2892 -0.2792
 4533TIP3   OH213539   5.317   2.108   1.519  0.0173 -0.5120  0.5805
 4533TIP3    H113540   5.411   2.117   1.531  0.1486 -2.0158  0.7739
 4533TIP3    H213541   5.305   2.025   1.473 -1.1949 -0.1740  0.2327
 4534TIP3   OH213542   3.971   1.660   1.271  0.2174 -0.4428 -0.2135
 4534TIP3    H113543   3.877   1.640   1.271  0.3702 -1.1805  0.4201
 4534TIP3    H213544   3.976   1.747   1.231 -0.8041 -0.0879  0.3731
 4535TIP3   OH213545   7.202   3.299   4.500 -0.5408 -0.5565  0.4835
 4535TIP3    H113546   7.222   3.371   4.440 -1.3111 -0.9487 -0.2617
 4535TIP3    H213547   7.153   3.236   4.447 -0.1035 -1.5194  1.1886
 4536TIP3   OH213548   4.242   5.140   1.231  0.2414 -0.4438 -0.1257
 4536TIP3    H113549   4.149   5.162   1.233  0.7043  2.5446 -2.8036
 4536TIP3    H213550   4.285   5.216   1.271  1.6199 -0.8273 -0.8357
 4537TIP3   OH213551   6.465   7.000   5.168 -0.2169 -0.1891  0.2818
 4537TIP3    H113552   6.402   7.068   5.195  0.2205  0.1451  0.4681
 4537TIP3    H213553   6.549   7.030   5.202 -0.0250 -0.8505  0.4014
 4538TIP3   OH213554   2.644   4.024   3.301  0.8173  0.3816 -0.3059
 4538TIP3    H113555   2.603   4.077   3.232  1.0175  1.5184  0.4077
 4538TIP3    H213556   2.738   4.039   3.291  0.9197 -0.3176 -0.4535
 4539TIP3   OH213557   6.884   4.635   3.955 -0.0855 -0.5595  0.3058
 4539TIP3    H113558   6.850   4.721   3.930  1.0741  0.2417  1.3827
 4539TIP3    H213559   6.846   4.618   4.041 -0.7563 -1.3959 -0.1455
 4540TIP3   OH213560   7.068   1.884   5.982  0.4464 -0.2205  0.5160
 4540TIP3    H113561   6.992   1.861   5.928  0.9581 -1.7797  0.4071
 4540TIP3    H213562   7.050   1.973   6.012 -0.7506 -0.0330 -0.6612
 4541TIP3   OH213563   6.346   5.520   4.057  0.0077  0.0068 -0.7336
 4541TIP3    H113564   6.358   5.545   3.965  0.7822 -0.5183 -0.7820
 4541TIP3    H213565   6.408   5.575   4.104 -0.8766  0.7754 -0.4325
 4542TIP3   OH213566   1.246   5.748   0.961 -0.0999  0.0129 -0.5851
 4542TIP3    H113567   1.308   5.716   0.896  0.6324 -0.7886  0.4748
 4542TIP3    H213568   1.160   5.729   0.923  0.2905  0.2141 -1.6177
 4543TIP3   OH213569   2.216   7.546   2.361 -0.0371  0.2968  0.5959
 4543TIP3    H113570   2.181   7.539   2.450  0.1091  1.8472  0.8032
 4543TIP3    H213571   2.211   7.640   2.340  3.1069  0.5173  0.3026
 4544TIP3   OH213572   5.463   5.943   5.549 -0.0801 -0.5713 -0.0145
 4544TIP3    H113573   5.532   6.005   5.521  0.1533 -1.0428 -0.5002
 4544TIP3    H213574   5.383   5.995   5.546  0.4165  0.3827  1.9038
 4545TIP3   OH213575   5.611   1.382   5.050  0.2518  0.3611  0.1139
 4545TIP3    H113576   5.555   1.328   4.995 -0.4709  1.6666 -0.4850
 4545TIP3    H213577   5.608   1.340   5.136  2.3661 -2.4071 -1.0070
 4546TIP3   OH213578   4.046   6.489   5.519  0.6306  0.3247  0.1167
 4546TIP3    H113579   3.969   6.470   5.572 -0.3047 -0.5717 -1.4940
 4546TIP3    H213580   4.099   6.409   5.523  0.5189  0.2255 -0.3552
 4547TIP3   OH213581   7.598   1.878   3.883  0.1863 -0.2465 -0.0358
 4547TIP3    H113582   7.605   1.824   3.804 -1.6051 -0.0757 -0.3424
 4547TIP3    H213583   7.505   1.877   3.905  0.2318  2.0007  0.4539
 4548TIP3   OH213584   7.925   5.890   0.782 -0.1677  0.0068  0.1781
 4548TIP3    H113585   7.847   5.841   0.756 -0.0620  0.2248 -0.5522
 4548TIP3    H213586   7.944   5.858   0.871 -0.3964 -0.9101 -0.0879
 4549TIP3   OH213587   3.214   4.521   2.050 -0.3751  0.1037 -0.2248
 4549TIP3    H113588   3.177   4.441   2.013 -2.0624  0.9089 -0.4020
 4549TIP3    H213589   3.273   4.553   1.982 -3.5421  1.6442 -2.5384
 4550TIP3   OH213590   1.939   6.872   3.803 -0.0605  0.6493  0.3017
 4550TIP3    H113591   2.018   6.919   3.832 -0.4814 -0.0945  2.9376
 4550TIP3    H213592   1.972   6.799   3.751  0.8355  1.5674 -0.4501
 4551TIP3   OH213593   7.614   1.729   1.633 -0.1407  0.1399  0.4165
 4551TIP3    H113594   7.663   1.685   1.564  1.3308  0.1880  1.3855
 4551TIP3    H213595   7.651   1.694   1.714 -2.7466 -0.9531  1.2321
 4552TIP3   OH213596   8.051   7.846   1.691  0.0651 -0.4921 -0.6124
 4552TIP3    H113597   8.098   7.764   1.703  0.7926  0.1068  1.0224
 4552TIP3    H213598   8.101   7.910   1.743 -1.2040  0.6945 -0.7808
 4553TIP3   OH213599   0.236   2.071   3.136  0.3798  0.0920 -0.2802
 4553TIP3    H113600   0.155   2.078   3.087  0.8439  0.7847 -0.9746
 4553TIP3    H213601   0.213   2.094   3.226 -0.8130 -2.7147  0.2477
 4554TIP3   OH213602   6.905   2.266   6.520 -0.2002  0.1996  0.0535
 4554TIP3    H113603   6.911   2.342   6.462  0.3982 -0.4257 -0.7264
 4554TIP3    H213604   6.811   2.259   6.541 -0.4231  0.4624 -0.8158
 4555TIP3   OH213605   3.381   5.372   6.256 -0.2262  0.2735  0.5357
 4555TIP3    H113606   3.402   5.460   6.228 -0.3127  0.0820 -0.1508
 4555TIP3    H213607   3.306   5.346   6.201  1.1457 -1.0150 -0.8270
 4556TIP3   OH213608   5.427   6.984   4.636  0.1030  0.1000  0.2874
 4556TIP3    H113609   5.375   6.908   4.612  0.3184 -0.5171  1.6511
 4556TIP3    H213610   5.502   6.982   4.577  0.5186 -1.2295  0.8279
 4557TIP3   OH213611   0.563   5.592   3.915 -0.4255 -0.1981 -0.8828
 4557TIP3    H113612   0.623   5.666   3.926 -0.8630  0.1686 -0.9232
 4557TIP3    H213613   0.489   5.612   3.972 -0.0440 -1.1581 -0.0323
 4558TIP3   OH213614   3.692   1.131   0.583 -0.3550  0.3394  0.1211
 4558TIP3    H113615   3.667   1.204   0.526  1.0444  0.6881 -0.0670
 4558TIP3    H213616   3.656   1.054   0.539 -2.0924  0.9138  0.4665
 4559TIP3   OH213617   7.171   5.365   6.317 -0.2009 -0.6879 -0.2616
 4559TIP3    H113618   7.263   5.390   6.315 -0.4067  0.1776  0.2154
 4559TIP3    H213619   7.131   5.427   6.379 -1.6349  0.8139 -2.5213
 4560TIP3   OH213620   3.885   7.684   5.309 -0.0903  0.1300  0.3783
 4560TIP3    H113621   3.861   7.732   5.389  2.8396 -0.0219  1.4660
 4560TIP3    H213622   3.909   7.752   5.246 -1.4661  0.2175 -0.0768
 4561TIP3   OH213623   5.080   5.917   6.134 -0.4990  0.1564  0.0080
 4561TIP3    H113624   5.083   6.004   6.094  0.4594 -0.0525 -0.4141
 4561TIP3    H213625   5.048   5.933   6.223  1.9045  1.3292  0.7699
 4562TIP3   OH213626   5.920   7.291   4.804 -0.2773 -0.1529 -0.2341
 4562TIP3    H113627   5.860   7.333   4.866 -0.3962  0.1377 -0.5398
 4562TIP3    H213628   5.999   7.274   4.855 -0.9238 -1.3357  0.4075
 4563TIP3   OH213629   0.653   1.297   4.304  0.1667  0.2849  0.2100
 4563TIP3    H113630   0.559   1.283   4.317  0.1784  1.8762  2.6559
 4563TIP3    H213631   0.657   1.379   4.253  0.2306  0.0944 -0.0917
 4564TIP3   OH213632   2.120   4.702   4.395  0.1194 -0.0687  0.3800
 4564TIP3    H113633   2.195   4.686   4.452  0.7632  0.8182 -0.1886
 4564TIP3    H213634   2.073   4.619   4.392  0.9943 -0.5854  0.8747
 4565TIP3   OH213635   5.384   4.583   4.865  0.0674 -0.1591 -0.2138
 4565TIP3    H113636   5.336   4.657   4.830 -0.5291 -0.3763  0.1153
 4565TIP3    H213637   5.354   4.508   4.813  0.6333 -0.1771 -0.5171
 4566TIP3   OH213638   7.616   7.833   1.098  0.2543  0.4489 -0.0609
 4566TIP3    H113639   7.541   7.885   1.069  0.1013 -1.2929 -3.2971
 4566TIP3    H213640   7.585   7.786   1.175 -0.8754  2.1212  0.5444
 4567TIP3   OH213641   7.776   1.110   1.775 -0.4522  0.0454 -0.3645
 4567TIP3    H113642   7.706   1.117   1.841  0.2713 -0.8059  0.5187
 4567TIP3    H213643   7.767   1.022   1.739  1.3577 -0.8317  1.1781
 4568TIP3   OH213644   8.147   7.847   1.418  0.0139  0.0621  0.1008
 4568TIP3    H113645   8.194   7.931   1.412  0.2135  0.0047  0.8131
 4568TIP3    H213646   8.117   7.843   1.509 -2.7177  0.8171 -0.6685
 4569TIP3   OH213647   5.407   3.981   4.141  0.1087 -0.1645  0.0785
 4569TIP3    H113648   5.403   3.898   4.188 -2.5060 -0.0016  0.2733
 4569TIP3    H213649   5.386   4.048   4.206 -0.1076  0.4007 -0.5508
 4570TIP3   OH213650   8.168   3.667   6.687 -0.1281  0.2032 -0.3156
 4570TIP3    H113651   8.101   3.712   6.634 -1.5121 -1.3789  0.0172
 4570TIP3    H213652   8.238   3.648   6.626 -1.0570 -0.2734 -1.2602
 4571TIP3   OH213653   8.324   3.037   5.255 -0.4495 -0.3927  0.2298
 4571TIP3    H113654   8.396   3.063   5.197 -1.1216 -0.9868 -0.9084
 4571TIP3    H213655   8.367   2.993   5.329  0.3202 -2.1933 -1.1994
 4572TIP3   OH213656   7.271   7.657   2.778  0.2591 -0.1763  0.0477
 4572TIP3    H113657   7.176   7.669   2.785  0.3815  1.3485 -0.5195
 4572TIP3    H213658   7.307   7.742   2.802  1.4656 -0.5746 -0.3172
 4573TIP3   OH213659   8.389   0.667   5.213 -0.0311  0.3231 -0.4613
 4573TIP3    H113660   8.355   0.753   5.186 -0.6501 -0.3092 -1.8021
 4573TIP3    H213661   8.329   0.638   5.281  0.6412  1.2777  0.5717
 4574TIP3   OH213662   5.661   3.247   5.589 -0.0121 -0.3548 -0.4764
 4574TIP3    H113663   5.571   3.250   5.556  0.3466  1.4776 -1.4641
 4574TIP3    H213664   5.673   3.333   5.629  0.6331 -1.3675  1.5998
 4575TIP3   OH213665   1.984   2.212   5.288 -0.0813 -1.0196  0.2102
 4575TIP3    H113666   2.063   2.241   5.333  0.4325 -0.9196 -0.7318
 4575TIP3    H213667   2.015   2.183   5.202 -1.1602 -0.2722 -0.4493
 4576TIP3   OH213668   3.974   2.829   2.975 -0.0596  0.2028  0.5406
 4576TIP3    H113669   3.971   2.914   3.019  1.0870 -0.6616  2.4033
 4576TIP3    H213670   3.967   2.766   3.046 -2.5390 -1.3191 -0.9236
 4577TIP3   OH213671   3.108   4.976   5.259 -0.1251 -0.2107  0.3771
 4577TIP3    H113672   3.068   5.047   5.208 -1.4535 -1.9392 -1.0941
 4577TIP3    H213673   3.094   5.003   5.350 -0.0667  1.6838 -0.1193
 4578TIP3   OH213674   3.275   1.565   3.747 -0.2717 -0.1294  0.1491
 4578TIP3    H113675   3.287   1.583   3.654 -1.2390 -1.0298 -0.1677
 4578TIP3    H213676   3.361   1.582   3.786  0.7388 -1.7631 -1.2513
 4579TIP3   OH213677   6.066   5.186   5.648 -0.2072 -0.0883 -0.2028
 4579TIP3    H113678   6.028   5.201   5.561  0.1306 -0.0993 -0.3518
 4579TIP3    H213679   6.122   5.110   5.637  0.2984  0.2682 -0.1138
 4580TIP3   OH213680   7.804   7.305   5.312  0.0546  0.4985  0.3266
 4580TIP3    H113681   7.764   7.390   5.294 -1.6258 -0.4694 -0.8519
 4580TIP3    H213682   7.748   7.267   5.380  1.1438  0.5650  1.2712
 4581TIP3   OH213683   5.750   1.075   2.228  1.0387  0.3570  0.3849
 4581TIP3    H113684   5.764   0.983   2.204  0.5783  0.7079 -1.3997
 4581TIP3    H213685   5.691   1.108   2.161 -0.7189  1.3740  2.3399
 4582TIP3   OH213686   6.061   3.180   3.640  0.2037  0.1235 -0.0589
 4582TIP3    H113687   6.064   3.262   3.591 -0.1892 -0.9837 -2.0462
 4582TIP3    H213688   5.971   3.173   3.669 -0.1859 -0.3696 -1.3267
 4583TIP3   OH213689   1.149   0.663   0.909  0.3391 -0.6076  0.1561
 4583TIP3    H113690   1.178   0.730   0.846  0.6396  0.0663  0.9841
 4583TIP3    H213691   1.076   0.704   0.955  0.9108 -0.5960  1.0819
 4584TIP3   OH213692   0.088   1.771   0.100  0.1636  0.7376 -0.0895
 4584TIP3    H113693   0.061   1.830   0.029 -0.2789  2.4693  1.4263
 4584TIP3    H213694   0.178   1.747   0.079 -0.5671 -0.4036 -2.2218
 4585TIP3   OH213695   7.946   4.183   0.457  0.4967 -0.6166  0.3503
 4585TIP3    H113696   7.867   4.133   0.436  0.0433  0.2964 -0.1921
 4585TIP3    H213697   8.013   4.117   0.475 -0.3945 -1.3988  0.8331
 4586TIP3   OH213698   1.094   6.213   3.087  0.1940  0.7537  0.4708
 4586TIP3    H113699   1.189   6.215   3.074  0.3996 -1.8947  1.1242
 4586TIP3    H213700   1.075   6.125   3.118 -2.6202  0.8667 -0.5895
 4587TIP3   OH213701   5.359   3.150   0.776  0.1834 -0.2476 -0.4172
 4587TIP3    H113702   5.292   3.144   0.707 -1.8454  0.2335  1.3890
 4587TIP3    H213703   5.366   3.060   0.810 -1.5380  0.1054  1.0649
 4588TIP3   OH213704   6.343   6.807   6.853  0.2515  0.0708 -0.2047
 4588TIP3    H113705   6.323   6.714   6.842 -0.5839  0.2850 -0.6521
 4588TIP3    H213706   6.421   6.822   6.799  0.5981 -0.4377  0.1540
 4589TIP3   OH213707   2.876   5.096   6.041 -0.2289 -0.0835 -0.8667
 4589TIP3    H113708   2.838   5.010   6.056 -1.3636  0.7707  1.6538
 4589TIP3    H213709   2.805   5.149   6.005 -0.4535  0.5877  0.5139
 4590TIP3   OH213710   1.366   2.168   5.848 -1.0102  0.0532  0.1971
 4590TIP3    H113711   1.448   2.119   5.850 -0.8167  0.3700  2.1883
 4590TIP3    H213712   1.298   2.102   5.861 -0.9457 -0.0133  0.1967
 4591TIP3   OH213713   5.179   3.357   3.576  0.2802  0.0053  0.2296
 4591TIP3    H113714   5.241   3.303   3.529 -0.1728  0.0117 -0.3929
 4591TIP3    H213715   5.094   3.315   3.562  0.2068 -0.3721  1.6027
 4592TIP3   OH213716   7.112   3.025   3.277 -0.0505 -0.2479 -0.2343
 4592TIP3    H113717   7.023   3.037   3.308  0.2803 -1.1827  1.1846
 4592TIP3    H213718   7.128   2.931   3.286  1.4559  0.0615  0.6913
 4593TIP3   OH213719   1.873   3.141   0.265 -0.3693  0.0168  0.5010
 4593TIP3    H113720   1.870   3.209   0.332  0.6019  0.2006  0.3801
 4593TIP3    H213721   1.966   3.136   0.241 -0.7390  0.1723 -1.0467
 4594TIP3   OH213722   1.427   0.669   5.655  0.0356 -0.7290 -0.5271
 4594TIP3    H113723   1.511   0.708   5.630 -1.1636  2.4594 -0.0100
 4594TIP3    H213724   1.388   0.642   5.572  0.6673 -0.2325 -1.0022
 4595TIP3   OH213725   4.171   6.259   1.826 -0.1323  0.5805  0.4410
 4595TIP3    H113726   4.255   6.278   1.867  0.2612  0.0106 -0.0859
 4595TIP3    H213727   4.158   6.332   1.765  1.3214 -0.6921 -1.4911
 4596TIP3   OH213728   2.318   6.569   3.661 -0.1409  0.0609 -0.2429
 4596TIP3    H113729   2.301   6.479   3.631  0.8422  0.1894 -1.2687
 4596TIP3    H213730   2.239   6.617   3.639 -0.3313 -0.3706 -0.5130
 4597TIP3   OH213731   7.802   7.561   5.187  0.3366  0.0370  0.1956
 4597TIP3    H113732   7.897   7.568   5.191  0.4435  1.4274 -2.3127
 4597TIP3    H213733   7.781   7.579   5.095 -2.3823  0.1460  0.7544
 4598TIP3   OH213734   7.841   6.725   2.173  0.0715 -0.2080 -0.3613
 4598TIP3    H113735   7.922   6.774   2.183  0.7051 -1.1106 -0.8916
 4598TIP3    H213736   7.840   6.664   2.247  0.7795 -1.4042 -1.2998
 4599TIP3   OH213737   6.221   0.800   4.215 -0.5530 -0.0312 -0.0095
 4599TIP3    H113738   6.310   0.830   4.199 -0.7747  0.8260  0.3452
 4599TIP3    H213739   6.177   0.811   4.130 -0.8109  1.2964  0.2803
 4600TIP3   OH213740   2.041   5.887   5.282 -0.0496 -0.2248  0.3469
 4600TIP3    H113741   1.998   5.806   5.310 -3.1243  0.4545 -1.9017
 4600TIP3    H213742   2.004   5.955   5.338 -2.1978  0.3863 -1.6846
 4601TIP3   OH213743   3.579   4.877   5.215  0.1305  0.4345 -0.5660
 4601TIP3    H113744   3.507   4.934   5.242  1.2133  2.3141 -1.4650
 4601TIP3    H213745   3.541   4.822   5.146 -0.6021  1.0114 -0.6354
 4602TIP3   OH213746   1.387   2.692   1.821  0.2732  0.3299  0.3151
 4602TIP3    H113747   1.372   2.624   1.755  2.0109  1.3112 -1.1893
 4602TIP3    H213748   1.338   2.768   1.789  1.4069  0.9207 -0.0900
 4603TIP3   OH213749   2.759   6.400   4.334  0.8940  0.1582 -0.5915
 4603TIP3    H113750   2.737   6.370   4.422  0.7880  0.1787 -0.6116
 4603TIP3    H213751   2.783   6.320   4.287 -0.2030 -0.0092 -0.8883
 4604TIP3   OH213752   3.060   0.586   3.236  0.0587 -0.1980 -0.0215
 4604TIP3    H113753   3.136   0.533   3.263 -0.2407 -0.8195 -0.3708
 4604TIP3    H213754   2.985   0.537   3.269 -0.1750  0.7771  0.9439
 4605TIP3   OH213755   7.131   1.725   6.223  0.5811 -0.1800 -0.4719
 4605TIP3    H113756   7.195   1.764   6.281  1.5431 -0.2218 -1.4773
 4605TIP3    H213757   7.133   1.780   6.144  2.1975 -2.3636 -2.0572
 4606TIP3   OH213758   1.530   4.858   2.200 -0.6090 -0.2374  0.1556
 4606TIP3    H113759   1.542   4.883   2.292 -2.5151  0.0024  0.3671
 4606TIP3    H213760   1.472   4.781   2.203 -0.0390 -0.7276 -0.8227
 4607TIP3   OH213761   3.332   7.856   5.472  0.1667 -0.0581  0.2054
 4607TIP3    H113762   3.257   7.804   5.444  0.9601  0.2406 -2.8327
 4607TIP3    H213763   3.365   7.897   5.391  2.8853  0.7621  1.5888
 4608TIP3   OH213764   5.934   1.731   3.988  0.2672  0.6848 -0.6472
 4608TIP3    H113765   5.988   1.757   3.913 -0.8929  0.4459 -1.6067
 4608TIP3    H213766   5.933   1.809   4.044  3.1610  0.0619  0.4010
 4609TIP3   OH213767   4.897   2.683   5.368  0.0361 -0.2344  0.3575
 4609TIP3    H113768   4.897   2.692   5.463 -0.9567  5.5340  0.1972
 4609TIP3    H213769   4.805   2.693   5.344  0.5434  1.0415 -1.2150
 4610TIP3   OH213770   4.083   7.833   0.632 -0.4742  0.1488 -0.0497
 4610TIP3    H113771   4.051   7.898   0.569  0.5538  1.8231  1.0778
 4610TIP3    H213772   4.057   7.749   0.595 -2.8009  1.2282 -1.0528
 4611TIP3   OH213773   0.807   1.544   2.760 -0.7767  0.1314 -0.2895
 4611TIP3    H113774   0.835   1.518   2.672  1.9830  0.2570  0.4644
 4611TIP3    H213775   0.873   1.606   2.789 -2.4435  1.2404  1.3577
 4612TIP3   OH213776   2.704   4.558   1.210  0.1136  0.2453 -0.3085
 4612TIP3    H113777   2.683   4.537   1.301  0.2943  0.2939 -0.2552
 4612TIP3    H213778   2.773   4.495   1.187 -1.9798 -1.8405 -1.3649
 4613TIP3   OH213779   4.203   1.538   5.546 -0.5466 -0.2278 -0.0525
 4613TIP3    H113780   4.119   1.546   5.503 -0.7744  0.5676  0.5094
 4613TIP3    H213781   4.247   1.622   5.530 -0.8285  0.2900  1.6021
 4614TIP3   OH213782   3.980   7.837   2.001 -0.0958 -0.1912 -0.3671
 4614TIP3    H113783   3.899   7.835   2.052  0.1053  1.6260  0.0976
 4614TIP3    H213784   4.009   7.928   2.006  2.0263 -0.8081 -0.4560
 4615TIP3   OH213785   3.725   5.588   0.163 -0.0278  0.0939 -0.5767
 4615TIP3    H113786   3.795   5.530   0.193 -1.2602 -0.9130  0.4644
 4615TIP3    H213787   3.751   5.613   0.074  2.6865  1.4764  0.4997
 4616TIP3   OH213788   4.639   2.721   4.017 -0.1353  0.0509 -0.1307
 4616TIP3    H113789   4.662   2.644   3.965  0.0098 -0.7213  1.0373
 4616TIP3    H213790   4.648   2.794   3.956 -0.1901 -0.8350 -1.2499
 4617TIP3   OH213791   4.667   1.291   4.882 -0.2008  0.2695 -0.4253
 4617TIP3    H113792   4.693   1.199   4.892  2.1481  1.0613  1.5991
 4617TIP3    H213793   4.573   1.286   4.860 -1.1240 -2.5887  3.0623
 4618TIP3   OH213794   2.362   4.599   2.554  0.0100  0.3138  0.5810
 4618TIP3    H113795   2.388   4.624   2.466 -0.4908 -0.9044  0.0762
 4618TIP3    H213796   2.268   4.618   2.558  0.0451  0.4421  0.8921
 4619TIP3   OH213797   7.500   3.249   5.851  0.5588 -0.3866  0.0797
 4619TIP3    H113798   7.458   3.250   5.937  0.5252  1.2149  0.0788
 4619TIP3    H213799   7.513   3.156   5.831  0.7796 -0.7804  1.9106
 4620TIP3   OH213800   7.742   3.353   1.215 -0.7379 -0.0194  0.1088
 4620TIP3    H113801   7.749   3.274   1.162  0.6907  0.0034  0.2294
 4620TIP3    H213802   7.830   3.365   1.252 -1.0587  1.3448  0.4807
 4621TIP3   OH213803   3.474   0.701   6.839  0.2210 -0.2274  0.2274
 4621TIP3    H113804   3.553   0.749   6.813  0.7281  0.1710  2.3338
 4621TIP3    H213805   3.461   0.723   6.931  1.6288 -5.5588  2.0722
 4622TIP3   OH213806   2.614   7.293   2.512  0.4781  0.0045  0.2868
 4622TIP3    H113807   2.706   7.303   2.491  0.6736 -0.2045  1.0039
 4622TIP3    H213808   2.613   7.233   2.586 -0.2043  0.3512  0.5682
 4623TIP3   OH213809   3.020   6.713   1.301  0.8559 -0.4819 -0.6193
 4623TIP3    H113810   3.008   6.795   1.349  2.5964 -0.0488 -0.8632
 4623TIP3    H213811   2.976   6.728   1.218 -0.1510 -0.3734 -0.0804
 4624TIP3   OH213812   5.273   1.382   6.364 -0.1636 -0.1060 -0.3805
 4624TIP3    H113813   5.292   1.466   6.405 -0.5336 -0.4690  0.5741
 4624TIP3    H213814   5.260   1.403   6.271 -1.2167  1.0519 -0.0136
 4625TIP3   OH213815   7.206   5.567   6.498  0.1850  0.6872 -0.5910
 4625TIP3    H113816   7.241   5.605   6.579  0.5049 -0.6781 -0.0473
 4625TIP3    H213817   7.122   5.609   6.485  0.7775  1.9816 -0.3481
 4626TIP3   OH213818   2.867   7.224   3.697 -0.1542 -0.1540 -0.8200
 4626TIP3    H113819   2.936   7.263   3.751 -1.2399  0.0829  0.4434
 4626TIP3    H213820   2.828   7.157   3.753 -0.3077 -0.9814 -1.8853
 4627TIP3   OH213821   4.583   2.961   5.611  0.3591  0.0598 -0.0751
 4627TIP3    H113822   4.677   2.976   5.598  0.6827 -3.0890 -2.6351
 4627TIP3    H213823   4.575   2.866   5.621 -2.6897  0.0097 -1.7873
 4628TIP3   OH213824   2.505   2.943   4.383 -0.0969  0.3280 -0.8079
 4628TIP3    H113825   2.577   2.957   4.444 -0.0884  2.5932 -1.2406
 4628TIP3    H213826   2.548   2.920   4.300  0.1158  1.0471 -0.9038
 4629TIP3   OH213827   0.725   1.646   3.423 -0.2395 -0.1579  0.3827
 4629TIP3    H113828   0.679   1.649   3.339 -1.8060  0.0157  1.2102
 4629TIP3    H213829   0.675   1.585   3.476 -0.1082  0.7935  1.6572
 4630TIP3   OH213830   5.879   2.550   5.803 -0.9272 -0.4489  0.1487
 4630TIP3    H113831   5.934   2.625   5.826 -1.1778 -0.0211 -0.6157
 4630TIP3    H213832   5.865   2.504   5.886 -1.2829  0.6897  0.7416
 4631TIP3   OH213833   5.012   6.726   0.543  0.5161 -0.2233 -0.0851
 4631TIP3    H113834   4.952   6.663   0.504 -0.0998  0.6472 -0.5792
 4631TIP3    H213835   4.976   6.812   0.519 -0.2085  0.3934  2.8239
 4632TIP3   OH213836   2.031   6.249   0.936  0.0975  0.1886 -0.4136
 4632TIP3    H113837   1.984   6.331   0.919 -1.8437 -0.9541 -0.9487
 4632TIP3    H213838   1.974   6.202   0.998  1.3784 -0.5785  0.2142
 4633TIP3   OH213839   1.488   3.750   4.403 -0.1273 -0.3345 -0.0380
 4633TIP3    H113840   1.394   3.731   4.400 -0.5015 -0.2575  4.3733
 4633TIP3    H213841   1.495   3.839   4.369 -2.0971  0.5369  1.5837
 4634TIP3   OH213842   3.851   5.648   2.492  0.3087  0.0031 -0.1074
 4634TIP3    H113843   3.860   5.565   2.538 -0.2569 -0.1824 -0.3216
 4634TIP3    H213844   3.797   5.628   2.416 -2.1311  1.0892  1.2275
 4635TIP3   OH213845   7.512   1.736   1.069  0.4158 -0.1672  0.4336
 4635TIP3    H113846   7.492   1.807   1.130  4.2740  1.6440 -0.0814
 4635TIP3    H213847   7.467   1.762   0.988  1.3040  1.4861  0.4158
 4636TIP3   OH213848   6.625   6.985   6.409  0.7196 -0.0785  0.0265
 4636TIP3    H113849   6.537   6.949   6.396 -0.1835  1.7960  0.6091
 4636TIP3    H213850   6.683   6.921   6.368 -0.9120 -1.3088 -0.4814
 4637TIP3   OH213851   6.150   7.450   4.649 -0.3116 -1.0628 -0.2895
 4637TIP3    H113852   6.189   7.522   4.699  0.0735  0.4599 -2.6541
 4637TIP3    H213853   6.063   7.439   4.688  0.1835 -0.3744  1.0927
 4638TIP3   OH213854   1.827   1.081   5.475 -0.1605 -0.0200 -0.1766
 4638TIP3    H113855   1.774   1.060   5.398  0.8173  0.0231 -0.8790
 4638TIP3    H213856   1.873   0.999   5.494  1.2713  0.5574 -1.0043
 4639TIP3   OH213857   4.124   5.133   3.834 -0.2619 -0.2619 -0.3821
 4639TIP3    H113858   4.156   5.159   3.748 -0.1423  1.4371  0.1336
 4639TIP3    H213859   4.197   5.152   3.893  0.1039 -2.4980  0.0019
 4640TIP3   OH213860   0.738   6.188   4.354  1.1165  0.0970  0.0509
 4640TIP3    H113861   0.700   6.216   4.437 -1.6238 -2.1728 -0.2662
 4640TIP3    H213862   0.764   6.269   4.310  0.7466  1.4711  2.2395
 4641TIP3   OH213863   0.709   5.514   4.214 -0.2074  0.0474  0.1316
 4641TIP3    H113864   0.687   5.529   4.123 -0.2244  1.6816  0.3805
 4641TIP3    H213865   0.635   5.464   4.249 -0.1811 -0.6217 -0.7480
 4642TIP3   OH213866   6.340   7.119   4.034 -0.2761 -0.0678 -0.5834
 4642TIP3    H113867   6.274   7.171   4.080 -1.3510 -1.8609  0.0518
 4642TIP3    H213868   6.423   7.149   4.068 -0.9344  0.3560  0.7195
 4643TIP3   OH213869   8.350   1.944   4.128  0.5201 -0.0915 -0.2553
 4643TIP3    H113870   8.258   1.959   4.149  0.4702  0.7523 -1.0044
 4643TIP3    H213871   8.383   2.030   4.104  1.6090 -0.3201  0.3615
 4644TIP3   OH213872   6.690   3.079   6.691 -0.1510  0.4221 -0.2121
 4644TIP3    H113873   6.613   3.025   6.708 -0.0803  0.7506  1.3641
 4644TIP3    H213874   6.750   3.059   6.764  0.6578  1.2094 -0.6402
 4645TIP3   OH213875   7.270   7.501   0.973 -0.3117  0.4614  0.0258
 4645TIP3    H113876   7.282   7.427   1.031  0.4181 -0.6074 -1.4260
 4645TIP3    H213877   7.357   7.518   0.937 -0.6576  1.3789 -0.4228
 4646TIP3   OH213878   7.166   5.346   5.090  0.0818 -0.0451 -0.2198
 4646TIP3    H113879   7.168   5.260   5.048  1.7242 -0.5443  0.7631
 4646TIP3    H213880   7.257   5.361   5.116 -0.4764  1.2640  1.0780
 4647TIP3   OH213881   2.657   0.064   6.107  0.1170 -0.4271  1.0674
 4647TIP3    H113882   2.594   0.052   6.178 -0.5066 -0.6053  0.5001
 4647TIP3    H213883   2.633   0.147   6.067 -0.1048 -0.7493  0.5155
 4648TIP3   OH213884   3.612   1.929   5.580  0.1673  0.2610  0.2330
 4648TIP3    H113885   3.525   1.914   5.545  0.5034 -0.6706 -0.2398
 4648TIP3    H213886   3.667   1.863   5.537  1.1138  0.8697  0.4754
 4649TIP3   OH213887   4.639   1.499   5.122 -0.5650 -0.2075 -0.5999
 4649TIP3    H113888   4.630   1.535   5.034  0.4127  0.8076 -0.3046
 4649TIP3    H213889   4.664   1.407   5.108  0.8593  0.2752 -1.3995
 4650TIP3   OH213890   1.124   0.569   2.253 -0.2000 -0.0202 -0.4016
 4650TIP3    H113891   1.165   0.483   2.257 -0.4795 -0.1319  0.2421
 4650TIP3    H213892   1.043   0.555   2.205 -0.2456 -0.1197 -0.2967
 4651TIP3   OH213893   3.304   7.398   5.708  0.2195  0.7600 -0.0355
 4651TIP3    H113894   3.366   7.431   5.642  0.9227 -0.5100 -0.0628
 4651TIP3    H213895   3.224   7.447   5.693  1.0894  2.1476 -0.2955
 4652TIP3   OH213896   7.067   6.633   4.264  0.1611 -0.2447  0.1612
 4652TIP3    H113897   7.045   6.563   4.203 -1.1817 -0.3954  0.7924
 4652TIP3    H213898   6.994   6.695   4.257  0.4090  0.1583  1.0050
 4653TIP3   OH213899   6.045   1.755   5.400 -0.2288 -0.3503 -0.3157
 4653TIP3    H113900   5.972   1.796   5.446  0.3184  1.3526 -0.8807
 4653TIP3    H213901   6.011   1.734   5.313  0.0697  0.9158 -0.7539
 4654TIP3   OH213902   4.492   4.046   2.080 -0.3867  0.2525 -0.3188
 4654TIP3    H113903   4.524   4.129   2.046 -2.2274  0.9710 -0.4026
 4654TIP3    H213904   4.488   3.988   2.004  2.1946 -0.3997 -0.0336
 4655TIP3   OH213905   5.271   4.196   1.545 -0.4085 -0.0521 -0.2704
 4655TIP3    H113906   5.314   4.151   1.617 -0.6611 -1.1120 -0.7678
 4655TIP3    H213907   5.178   4.175   1.554 -0.4612 -0.0738 -0.8072
 4656TIP3   OH213908   8.258   7.304   5.380  0.1922 -0.2272  0.2673
 4656TIP3    H113909   8.173   7.262   5.379  0.2671 -0.4075 -1.0235
 4656TIP3    H213910   8.246   7.384   5.329  0.8573 -0.4074 -0.1898
 4657TIP3   OH213911   1.929   4.769   0.969 -0.3204  0.6291  0.1583
 4657TIP3    H113912   1.862   4.823   0.927  2.6208  1.8380 -3.5270
 4657TIP3    H213913   1.957   4.821   1.044 -1.4214  1.4795  0.0117
 4658TIP3   OH213914   2.834   5.224   3.828  0.2616  0.3737  0.0839
 4658TIP3    H113915   2.761   5.283   3.844 -0.0783  0.5935 -1.9318
 4658TIP3    H213916   2.887   5.269   3.762  1.3472 -0.4997  0.3167
 4659TIP3   OH213917   3.382   3.427   3.432  0.6467  0.7142 -0.6347
 4659TIP3    H113918   3.430   3.454   3.354  0.6755  0.9339 -0.5408
 4659TIP3    H213919   3.331   3.504   3.457  0.4749  0.5776 -0.5587
 4660TIP3   OH213920   1.933   1.290   5.604  0.3854 -0.3253  0.3887
 4660TIP3    H113921   1.895   1.230   5.540  0.0112 -0.3131  0.5959
 4660TIP3    H213922   1.881   1.277   5.683  0.7155 -0.1942  0.6303
 4661TIP3   OH213923   2.737   2.222   6.828 -0.2500 -0.4561 -0.1205
 4661TIP3    H113924   2.824   2.233   6.790 -0.6297  0.2706 -0.8218
 4661TIP3    H213925   2.723   2.302   6.879 -0.5786 -0.4890 -0.1566
 4662TIP3   OH213926   6.830   1.104   5.468  0.3110  0.0477  0.0157
 4662TIP3    H113927   6.740   1.074   5.454  0.2091 -0.0323  0.7921
 4662TIP3    H213928   6.876   1.027   5.501  0.3011  0.4451  1.0152
 4663TIP3   OH213929   7.813   5.715   6.671 -0.7358  0.0818 -0.0677
 4663TIP3    H113930   7.829   5.630   6.713 -1.3336 -0.2810 -0.5509
 4663TIP3    H213931   7.824   5.697   6.578  0.9324  0.9554 -0.0681
 4664TIP3   OH213932   3.389   6.775   0.492 -0.2566  0.2594  0.4067
 4664TIP3    H113933   3.318   6.834   0.516  0.2534  0.1240  2.5415
 4664TIP3    H213934   3.346   6.702   0.447 -1.1189  1.3592 -0.5801
 4665TIP3   OH213935   3.338   3.230   4.039  0.7192  0.3912 -0.3081
 4665TIP3    H113936   3.392   3.209   3.963  0.3347  2.4887 -1.2474
 4665TIP3    H213937   3.360   3.321   4.059 -0.8418  0.5907  0.6771
 4666TIP3   OH213938   1.081   3.581   2.095  0.2453 -0.5204  0.4263
 4666TIP3    H113939   1.009   3.619   2.045  0.9651 -0.6067 -0.7314
 4666TIP3    H213940   1.042   3.553   2.177 -0.9015  0.0114  0.0845
 4667TIP3   OH213941   4.535   0.311   3.893 -0.0034  0.5034  0.3084
 4667TIP3    H113942   4.550   0.372   3.964 -0.6521  0.2001  0.7171
 4667TIP3    H213943   4.611   0.321   3.836 -0.2639  1.9459  0.1767
 4668TIP3   OH213944   1.591   3.848   5.079  0.0322  0.5139 -0.0772
 4668TIP3    H113945   1.574   3.755   5.067 -0.0335  0.5555 -0.2968
 4668TIP3    H213946   1.685   3.853   5.096 -0.1202  0.3096  0.8959
 4669TIP3   OH213947   0.903   4.634   2.328 -0.0196  0.0620  0.3343
 4669TIP3    H113948   0.906   4.675   2.241  1.3752 -0.2323  0.2218
 4669TIP3    H213949   0.863   4.548   2.313  2.4190 -1.0247 -0.5164
 4670TIP3   OH213950   6.293   2.017   6.142  0.2980 -0.0726  0.1218
 4670TIP3    H113951   6.322   1.986   6.228  1.7484  0.0930 -0.2747
 4670TIP3    H213952   6.201   2.040   6.154  0.5338  0.1482  1.6862
 4671TIP3   OH213953   8.113   3.935   1.087  0.1157  0.4570  0.8627
 4671TIP3    H113954   8.079   4.004   1.144  1.1251  1.3813  0.3890
 4671TIP3    H213955   8.059   3.859   1.107 -1.7735  1.6494  0.6255
 4672TIP3   OH213956   6.763   0.070   4.803 -0.6344 -0.1801 -0.2115
 4672TIP3    H113957   6.677   0.051   4.766 -0.4132 -1.5058 -0.0895
 4672TIP3    H213958   6.824   0.057   4.730 -0.5050  0.3907 -0.2040
 4673TIP3   OH213959   0.165   1.095   2.005 -0.0671  0.0918  0.1119
 4673TIP3    H113960   0.250   1.091   2.048  0.4293  1.1609 -0.7148
 4673TIP3    H213961   0.166   1.022   1.943 -0.3614 -0.7947  1.1126
 4674TIP3   OH213962   5.503   6.009   2.352  0.1231  0.0577 -0.1120
 4674TIP3    H113963   5.455   5.978   2.276  1.6245 -1.1661 -0.6149
 4674TIP3    H213964   5.466   5.959   2.425 -0.7911  0.6751 -0.1380
 4675TIP3   OH213965   3.555   6.415   3.867 -0.0459 -0.3451 -0.0186
 4675TIP3    H113966   3.607   6.449   3.939  2.3464 -0.7448 -1.4634
 4675TIP3    H213967   3.544   6.322   3.886  2.3160 -0.8929 -1.0783
 4676TIP3   OH213968   3.982   5.436   4.346 -0.2064 -0.1556  0.3047
 4676TIP3    H113969   4.054   5.492   4.376 -1.2436  0.9034  0.9340
 4676TIP3    H213970   3.926   5.427   4.423 -1.9086  0.9299 -0.7557
 4677TIP3   OH213971   5.764   6.978   2.410 -0.1048 -0.4469 -0.0026
 4677TIP3    H113972   5.681   6.959   2.456 -1.6060 -1.5615 -2.9087
 4677TIP3    H213973   5.785   7.068   2.434 -2.3946  0.0064  0.5321
 4678TIP3   OH213974   3.805   1.728   1.953 -0.0386 -0.1622  0.1312
 4678TIP3    H113975   3.821   1.772   2.037 -1.4034  0.4339  0.1005
 4678TIP3    H213976   3.884   1.746   1.902  1.3230 -1.5088  1.6606
 4679TIP3   OH213977   3.240   4.383   5.055 -0.2718 -0.1715  0.2056
 4679TIP3    H113978   3.257   4.313   5.117  0.3230 -0.4162 -0.2245
 4679TIP3    H213979   3.176   4.440   5.099  2.2291  1.2391  2.2894
 4680TIP3   OH213980   4.183   2.772   1.776 -0.0858  0.0705 -0.1131
 4680TIP3    H113981   4.264   2.722   1.768 -0.2209  0.1436 -2.8423
 4680TIP3    H213982   4.117   2.717   1.734 -0.8481  1.2285 -0.4833
 4681TIP3   OH213983   2.816   6.208   5.343  0.3707 -0.5312 -0.0361
 4681TIP3    H113984   2.775   6.250   5.268 -0.9963 -1.7119 -0.0064
 4681TIP3    H213985   2.908   6.236   5.340 -0.5439  2.9750  0.4281
 4682TIP3   OH213986   6.666   5.711   1.057  0.3746 -0.1834 -0.2395
 4682TIP3    H113987   6.688   5.802   1.036  1.5528 -0.1739  0.8906
 4682TIP3    H213988   6.736   5.683   1.117  1.4380 -2.5968 -2.4068
 4683TIP3   OH213989   0.454   6.331   1.899  0.2596 -0.2741 -0.1609
 4683TIP3    H113990   0.481   6.361   1.986  1.4987 -0.6932 -0.3905
 4683TIP3    H213991   0.360   6.352   1.896  0.6502  1.8190  0.4021
 4684TIP3   OH213992   0.615   1.225   1.944 -0.2302 -0.1202  0.3939
 4684TIP3    H113993   0.628   1.256   1.855 -0.6219 -2.0547 -0.3681
 4684TIP3    H213994   0.546   1.281   1.979 -0.8181 -0.0252 -0.8734
 4685TIP3   OH213995   7.980   5.670   6.145  0.7133  0.1455  0.3177
 4685TIP3    H113996   8.036   5.712   6.079  0.6796 -2.3458 -1.4142
 4685TIP3    H213997   8.027   5.591   6.171 -0.8028 -0.6551  0.7774
 4686TIP3   OH213998   6.078   7.587   1.828 -0.0023  0.2091 -0.4650
 4686TIP3    H113999   6.071   7.654   1.760  0.6851 -1.5289 -2.3617
 4686TIP3    H214000   6.158   7.539   1.806 -1.2755 -2.2043 -0.1279
 4687TIP3   OH214001   7.884   5.527   5.543 -0.0008  0.3720  0.7867
 4687TIP3    H114002   7.880   5.455   5.605  1.5887  0.2767  0.8291
 4687TIP3    H214003   7.977   5.552   5.542  0.5940 -1.2372 -3.3279
 4688TIP3   OH214004   8.256   7.189   6.846  0.0435  0.0786  0.6859
 4688TIP3    H114005   8.276   7.147   6.763  3.2924 -0.0179  1.4131
 4688TIP3    H214006   8.213   7.121   6.898 -1.0101 -0.1823 -0.4737
 4689TIP3   OH214007   0.031   0.130   2.274 -0.0449 -0.0496 -0.3585
 4689TIP3    H114008  -0.008   0.115   2.188 -0.0540  1.8858 -0.7346
 4689TIP3    H214009   0.085   0.052   2.289  0.1049 -0.3630 -2.2002
 4690TIP3   OH214010   7.325   0.253   3.924 -0.1516 -0.5341  0.1593
 4690TIP3    H114011   7.232   0.257   3.947 -0.1893 -1.9407  0.3914
 4690TIP3    H214012   7.336   0.314   3.852 -1.0798  0.2606  0.6770
 4691TIP3   OH214013   0.663   2.640   5.200 -0.5403  0.6769  0.2070
 4691TIP3    H114014   0.727   2.615   5.268  0.2406 -0.4164 -0.8842
 4691TIP3    H214015   0.585   2.589   5.222 -0.0511 -0.2358 -0.0980
 4692TIP3   OH214016   4.904   2.523   4.123  0.3513 -0.0149 -0.3631
 4692TIP3    H114017   4.834   2.466   4.091  0.5027 -0.5454  0.2308
 4692TIP3    H214018   4.885   2.608   4.084 -0.4563 -0.2226 -0.4490
 4693TIP3   OH214019   5.991   0.900   6.377 -0.0312 -0.0879 -0.0128
 4693TIP3    H114020   6.068   0.958   6.378 -1.0863  1.3658  0.5470
 4693TIP3    H214021   6.027   0.813   6.388  1.7198  0.3126 -1.8721
 4694TIP3   OH214022   2.758   1.916   3.150  0.4029  0.3204 -0.6719
 4694TIP3    H114023   2.668   1.884   3.150  0.9839 -1.4137  0.1027
 4694TIP3    H214024   2.796   1.883   3.069  0.1869  1.6237 -1.3356
 4695TIP3   OH214025   2.154   3.000   5.387  0.1599 -0.6233 -0.5723
 4695TIP3    H114026   2.087   3.045   5.337 -0.5524 -0.0487  0.8649
 4695TIP3    H214027   2.191   3.067   5.444  1.1961 -1.1922 -0.5395
 4696TIP3   OH214028   6.948   0.534   0.582  0.2880  0.0005  0.3746
 4696TIP3    H114029   6.877   0.516   0.645 -0.7305 -1.2247 -1.0561
 4696TIP3    H214030   6.968   0.627   0.595 -2.6260  0.8015 -0.1533
 4697TIP3   OH214031   6.606   1.362   6.696 -0.1770  0.2212  0.4010
 4697TIP3    H114032   6.650   1.434   6.650 -0.3641 -0.8386 -1.5581
 4697TIP3    H214033   6.677   1.314   6.739  0.7693 -1.4230 -2.6604
 4698TIP3   OH214034   1.083   7.965   5.337 -0.3507  0.3579 -0.3390
 4698TIP3    H114035   1.142   7.909   5.287 -1.2210 -0.6816 -0.2230
 4698TIP3    H214036   1.039   7.906   5.398 -1.4073  1.1366 -0.3304
 4699TIP3   OH214037   3.203   4.355   0.929 -0.3959 -0.4265 -0.8578
 4699TIP3    H114038   3.288   4.367   0.886  0.4280 -1.0090  0.5647
 4699TIP3    H214039   3.184   4.440   0.968  0.5250 -0.8193  0.5203
 4700TIP3   OH214040   8.249   3.174   2.311 -0.1092  0.4147 -0.4377
 4700TIP3    H114041   8.206   3.103   2.358  0.0939  0.1744 -0.6139
 4700TIP3    H214042   8.179   3.214   2.258 -0.5996  1.4107  0.9099
 4701TIP3   OH214043   4.467   6.520   6.412  0.5218  0.3322 -0.1710
 4701TIP3    H114044   4.418   6.452   6.366  0.3201 -0.3144  0.9723
 4701TIP3    H214045   4.537   6.544   6.351 -1.1310  1.2679 -1.8559
 4702TIP3   OH214046   5.913   6.300   3.834 -0.1137 -0.8033 -0.5879
 4702TIP3    H114047   5.844   6.361   3.810  0.0715  0.6508  2.1893
 4702TIP3    H214048   5.871   6.214   3.834 -1.1050 -0.3415 -1.8378
 4703TIP3   OH214049   7.935   4.038   2.155  0.0846  0.3091  0.6728
 4703TIP3    H114050   7.977   3.955   2.135 -1.7260 -0.6817  0.7484
 4703TIP3    H214051   7.946   4.091   2.075 -0.9275 -0.9761 -0.3732
 4704TIP3   OH214052   2.326   2.325   6.002 -0.2961 -0.5100 -0.0008
 4704TIP3    H114053   2.389   2.336   6.073 -0.1681  0.7046 -0.2891
 4704TIP3    H214054   2.252   2.279   6.042 -0.0187 -0.2808  0.7879
 4705TIP3   OH214055   3.397   3.711   6.814  0.4078  1.0006  0.5895
 4705TIP3    H114056   3.340   3.723   6.889  1.5258 -0.1370  1.6706
 4705TIP3    H214057   3.342   3.732   6.738 -2.0772 -1.8159  1.3933
 4706TIP3   OH214058   7.813   0.855   2.644  0.8056 -0.3328  0.3631
 4706TIP3    H114059   7.872   0.780   2.643  0.6860 -0.4701 -1.9623
 4706TIP3    H214060   7.851   0.915   2.708  0.4882 -2.6239  2.8102
 4707TIP3   OH214061   2.542   7.144   0.117  0.3499 -0.2158  0.1477
 4707TIP3    H114062   2.627   7.126   0.157  0.4719 -1.1092 -0.4760
 4707TIP3    H214063   2.562   7.199   0.041  0.2871  0.1674  0.4052
 4708TIP3   OH214064   0.818   7.429   3.061  0.0480 -0.5019  1.0769
 4708TIP3    H114065   0.828   7.505   3.003 -1.7260 -2.0343 -1.4042
 4708TIP3    H214066   0.907   7.395   3.071  0.7748  1.4408  1.6760
 4709TIP3   OH214067   8.350   7.414   1.842  0.3200 -0.0613  0.3224
 4709TIP3    H114068   8.339   7.348   1.910  0.4962 -1.3575 -0.8511
 4709TIP3    H214069   8.370   7.363   1.763 -0.3372  1.3515 -0.7994
 4710TIP3   OH214070   3.280   5.140   6.436 -0.0479 -0.4031 -0.0655
 4710TIP3    H114071   3.191   5.113   6.415 -0.2289  1.4883 -2.1512
 4710TIP3    H214072   3.333   5.107   6.364  1.1067 -2.0131  1.4469
 4711TIP3   OH214073   8.122   7.511   1.059 -0.3655  0.1751 -0.3196
 4711TIP3    H114074   8.125   7.605   1.075  1.2411  0.1479 -0.3216
 4711TIP3    H214075   8.072   7.502   0.977 -1.2775  0.9443  0.1369
 4712TIP3   OH214076   5.211   0.068   5.632 -0.6553  0.5851 -0.6103
 4712TIP3    H114077   5.304   0.085   5.646 -0.3900 -0.4364 -1.0509
 4712TIP3    H214078   5.178   0.041   5.718  0.1262 -1.9161 -1.0178
 4713TIP3   OH214079   6.022   3.233   1.160  0.2002  0.1883 -0.2081
 4713TIP3    H114080   6.044   3.324   1.142  3.1056  0.1607  2.4086
 4713TIP3    H214081   5.963   3.236   1.236  0.9875 -0.0854  0.4318
 4714TIP3   OH214082   7.009   5.877   4.442 -0.0889 -0.1894 -0.2481
 4714TIP3    H114083   7.036   5.966   4.466 -0.1617 -0.1672 -0.2469
 4714TIP3    H214084   6.923   5.866   4.483  0.1006 -0.4078  0.0941
 4715TIP3   OH214085   5.645   2.409   2.557 -0.6531  0.3982  0.4289
 4715TIP3    H114086   5.615   2.399   2.647 -0.6216  2.3814  0.7061
 4715TIP3    H214087   5.672   2.500   2.550  1.8056 -0.3181 -0.8723
 4716TIP3   OH214088   6.266   0.367   3.558 -0.3520  0.1198 -0.0349
 4716TIP3    H114089   6.173   0.343   3.553  0.0927 -1.4867 -1.5314
 4716TIP3    H214090   6.272   0.451   3.512 -1.0001  0.0418 -0.2683
 4717TIP3   OH214091   2.213   2.591   0.230  0.3450 -0.2035  0.2307
 4717TIP3    H114092   2.128   2.549   0.224 -0.4135  1.2412  0.3738
 4717TIP3    H214093   2.224   2.611   0.323 -1.0764  3.2405 -0.1968
 4718TIP3   OH214094   4.289   3.691   3.570 -1.0205  0.4891  0.7009
 4718TIP3    H114095   4.300   3.768   3.514  3.6353  1.2075  2.1825
 4718TIP3    H214096   4.252   3.625   3.512  2.7039  1.3795 -3.2242
 4719TIP3   OH214097   5.776   5.727   0.106 -0.1978  0.0196  0.0621
 4719TIP3    H114098   5.847   5.675   0.070 -0.1414  1.5836 -2.3355
 4719TIP3    H214099   5.698   5.698   0.058 -0.1124  2.2446 -1.5362
 4720TIP3   OH214100   2.379   6.847   0.595 -0.4270  0.3437 -0.0470
 4720TIP3    H114101   2.407   6.802   0.515  2.0668  0.6658  0.5512
 4720TIP3    H214102   2.305   6.901   0.567 -0.2732 -0.3096 -1.8956
 4721TIP3   OH214103   0.178   1.922   5.724 -0.5071 -0.7805 -0.4443
 4721TIP3    H114104   0.188   1.938   5.630 -0.7320 -0.4550 -0.4155
 4721TIP3    H214105   0.161   1.828   5.731  2.0844 -1.3208 -0.5134
 4722TIP3   OH214106   4.685   4.763   4.974 -0.1093  0.0439 -0.1925
 4722TIP3    H114107   4.612   4.809   5.015 -1.2446 -1.6652 -0.2222
 4722TIP3    H214108   4.705   4.690   5.033  0.5186 -0.4384 -0.9745
 4723TIP3   OH214109   2.264   6.967   1.223 -0.7455 -0.1974 -0.5054
 4723TIP3    H114110   2.350   7.009   1.226 -0.1782 -1.3530 -0.2953
 4723TIP3    H214111   2.244   6.945   1.313 -1.6113  0.6938 -0.4500
 4724TIP3   OH214112   0.234   6.264   5.407  0.4963 -0.1873 -0.5445
 4724TIP3    H114113   0.225   6.211   5.486 -1.3001  0.5982 -0.1536
 4724TIP3    H214114   0.144   6.290   5.386  1.0232  0.2618 -2.4038
 4725TIP3   OH214115   7.734   4.889   0.796  0.0277 -0.3950 -0.0271
 4725TIP3    H114116   7.819   4.897   0.753 -0.2932 -1.7816 -1.0029
 4725TIP3    H214117   7.708   4.979   0.815  0.2719  0.3098 -2.6464
 4726TIP3   OH214118   1.415   1.199   5.786 -0.6048 -0.3191  0.1688
 4726TIP3    H114119   1.377   1.263   5.726  0.3888 -0.5122 -0.7053
 4726TIP3    H214120   1.408   1.115   5.740  1.8729 -0.2051 -0.5744
 4727TIP3   OH214121   2.635   3.070   0.036  0.0861 -0.3116 -0.0719
 4727TIP3    H114122   2.578   3.097  -0.036 -0.5350  0.4434  0.6832
 4727TIP3    H214123   2.673   2.987   0.007 -2.5361 -1.6488 -0.0209
 4728TIP3   OH214124   2.542   5.743   3.495  0.0224 -0.1665  0.0624
 4728TIP3    H114125   2.506   5.828   3.518 -0.5042 -0.0430 -1.1574
 4728TIP3    H214126   2.539   5.740   3.399  0.5430 -1.3324  0.0621
 4729TIP3   OH214127   5.411   3.631   5.297  0.0175  0.0904 -0.0122
 4729TIP3    H114128   5.318   3.642   5.318 -0.3975  0.6816 -1.9495
 4729TIP3    H214129   5.415   3.639   5.202  2.0803  0.1342  0.0369
 4730TIP3   OH214130   2.688   6.735   3.647  0.2830  0.2341 -0.2291
 4730TIP3    H114131   2.641   6.672   3.701 -1.4334  1.2553 -0.4537
 4730TIP3    H214132   2.742   6.682   3.589 -1.0264 -1.0317 -0.3404
 4731TIP3   OH214133   0.914   7.094   4.000  0.0316  0.0619 -0.2139
 4731TIP3    H114134   0.945   7.068   3.914 -0.2988 -2.1249  0.2724
 4731TIP3    H214135   0.841   7.035   4.019  1.0082 -0.5432  2.1231
 4732TIP3   OH214136   6.067   6.728   5.973  0.4639  0.5684  0.0877
 4732TIP3    H114137   6.105   6.748   5.887  0.9938 -0.4799  0.0659
 4732TIP3    H214138   6.039   6.813   6.006  0.3667  1.0111 -1.0655
 4733TIP3   OH214139   5.078   7.452   4.224 -0.2941 -0.0372 -0.4411
 4733TIP3    H114140   5.162   7.473   4.265 -0.0932  0.6007 -1.1511
 4733TIP3    H214141   5.059   7.363   4.253  0.5489 -0.1354 -0.1462
 4734TIP3   OH214142   1.340   2.941   2.620 -0.3998 -0.0639  0.4381
 4734TIP3    H114143   1.272   2.992   2.665  0.3864  1.5720 -0.1215
 4734TIP3    H214144   1.362   2.871   2.681 -2.2215 -0.3363  0.8383
 4735TIP3   OH214145   6.547   0.109   6.514 -0.0531  0.1339 -0.4828
 4735TIP3    H114146   6.538   0.017   6.539 -0.6776 -0.1073 -1.5283
 4735TIP3    H214147   6.598   0.148   6.585  0.1087 -0.9846  0.0448
 4736TIP3   OH214148   4.640   0.958   3.569 -0.0961  0.0950  0.1081
 4736TIP3    H114149   4.558   0.964   3.521  0.0649 -2.4865 -0.6287
 4736TIP3    H214150   4.615   0.976   3.660 -1.3213  0.2501 -0.2384
 4737TIP3   OH214151   7.007   3.739   5.524 -0.5282  0.1497  0.1933
 4737TIP3    H114152   6.947   3.664   5.520 -0.8523  0.4583 -2.1541
 4737TIP3    H214153   7.080   3.715   5.467 -0.2727  1.3146  0.0053
 4738TIP3   OH214154   3.301   2.008   5.715 -0.1134 -0.3905 -0.0754
 4738TIP3    H114155   3.320   1.915   5.723 -1.7399 -0.7913 -0.5363
 4738TIP3    H214156   3.227   2.023   5.774  0.0917  0.6008 -0.0477
 4739TIP3   OH214157   0.576   5.688   3.327 -0.2325 -0.3830 -0.1808
 4739TIP3    H114158   0.533   5.616   3.280  0.0799 -0.3598 -0.5122
 4739TIP3    H214159   0.619   5.645   3.402 -0.2108 -0.5131 -0.2679
 4740TIP3   OH214160   7.839   7.745   5.964  0.4328 -0.0185  0.0276
 4740TIP3    H114161   7.745   7.725   5.968  0.1801  0.7267 -1.3900
 4740TIP3    H214162   7.849   7.824   6.016  0.5167 -0.7875  1.2233
 4741TIP3   OH214163   6.660   2.822   0.716 -0.1447 -0.0220  0.1687
 4741TIP3    H114164   6.722   2.863   0.776 -0.6317  0.1321  0.5653
 4741TIP3    H214165   6.587   2.884   0.710  0.4601  0.6083 -1.6134
 4742TIP3   OH214166   4.901   0.847   6.460  0.6315 -0.0745 -0.5484
 4742TIP3    H114167   4.876   0.920   6.404 -0.1647 -0.1648 -0.3244
 4742TIP3    H214168   4.983   0.815   6.423  1.0747  1.0221 -0.5575
 4743TIP3   OH214169   4.465   0.193   6.308  0.4818 -0.4369 -0.1126
 4743TIP3    H114170   4.489   0.102   6.292 -0.6042 -0.7332 -0.1156
 4743TIP3    H214171   4.549   0.240   6.310  1.0348 -1.3925 -0.3369
 4744TIP3   OH214172   3.729   2.940   2.366 -0.1752  0.6314 -0.1422
 4744TIP3    H114173   3.745   3.005   2.435  0.7847  0.2263  0.0414
 4744TIP3    H214174   3.807   2.884   2.369 -1.3632 -1.0506  0.2684
 4745TIP3   OH214175   3.520   3.665   2.455  0.4506 -0.0571  0.0030
 4745TIP3    H114176   3.482   3.718   2.385  1.0005  0.8981  0.4240
 4745TIP3    H214177   3.468   3.584   2.453 -0.8595  0.7449 -0.1876
 4746TIP3   OH214178   7.115   5.037   1.603  0.3015  0.2018  0.1196
 4746TIP3    H114179   7.076   4.955   1.573 -0.1272  0.4626 -0.0525
 4746TIP3    H214180   7.133   5.022   1.696 -1.7055  0.5919  0.6337
 4747TIP3   OH214181   7.528   2.171   2.334  0.2177 -0.3130 -1.0146
 4747TIP3    H114182   7.510   2.186   2.426 -1.8778 -0.2636 -1.3771
 4747TIP3    H214183   7.576   2.088   2.331  0.1710 -0.3828  0.0845
 4748TIP3   OH214184   4.409   4.432   4.867 -0.0673 -0.3673 -0.2683
 4748TIP3    H114185   4.439   4.419   4.957  1.9389  2.7720 -0.2990
 4748TIP3    H214186   4.487   4.415   4.814 -0.6657 -0.2157 -1.2026
 4749TIP3   OH214187   5.250   6.580   2.274  0.0104 -0.5053  0.3997
 4749TIP3    H114188   5.237   6.657   2.329 -0.8991 -1.1416  1.1173
 4749TIP3    H214189   5.325   6.601   2.219  1.0549  0.0947  2.0063
 4750TIP3   OH214190   8.141   6.740   2.288 -0.0046 -0.5338  0.3624
 4750TIP3    H114191   8.161   6.817   2.342 -0.9266 -0.4166  0.5541
 4750TIP3    H214192   8.108   6.675   2.350  2.9130 -1.9671  0.5783
 4751TIP3   OH214193   6.755   0.501   1.104 -0.6413  0.0920  0.1576
 4751TIP3    H114194   6.716   0.584   1.129 -0.6774  0.5945 -1.4701
 4751TIP3    H214195   6.738   0.493   1.010 -0.3738 -1.6098  0.2083
 4752TIP3   OH214196   6.704   1.091   5.069  0.0229 -0.1915 -0.5375
 4752TIP3    H114197   6.763   1.166   5.065  0.7528 -0.5170  2.0037
 4752TIP3    H214198   6.617   1.129   5.079  0.3269  0.3231  0.2152
 4753TIP3   OH214199   6.234   6.270   0.396 -0.1199 -0.1931  0.1438
 4753TIP3    H114200   6.328   6.280   0.409  0.0100 -1.2585  0.1692
 4753TIP3    H214201   6.194   6.323   0.465  0.4375  0.9420 -0.3868
 4754TIP3   OH214202   2.194   5.971   0.226  0.1655  0.3750  0.2665
 4754TIP3    H114203   2.265   5.913   0.199  0.5113  1.4411 -1.2234
 4754TIP3    H214204   2.117   5.938   0.180  0.4603  1.3255 -0.9733
 4755TIP3   OH214205   1.151   2.086   0.297 -0.3810 -0.0888 -0.8245
 4755TIP3    H114206   1.247   2.079   0.292 -0.4526 -0.6045 -1.8593
 4755TIP3    H214207   1.135   2.170   0.340  0.5255 -1.6335  2.8513
 4756TIP3   OH214208   3.509   7.801   6.611 -0.3038  0.2819  0.0671
 4756TIP3    H114209   3.575   7.825   6.676 -0.5913 -0.3318  0.5961
 4756TIP3    H214210   3.559   7.765   6.538  0.0224  0.9961 -0.0739
 4757TIP3   OH214211   4.146   3.318   2.377  0.1571  0.1897 -0.0997
 4757TIP3    H114212   4.076   3.287   2.434  0.9947  0.9681  1.4306
 4757TIP3    H214213   4.110   3.395   2.333  0.1558  0.8806  1.0497
 4758TIP3   OH214214   6.686   4.478   6.441 -0.2565  0.0552 -0.2636
 4758TIP3    H114215   6.593   4.488   6.421 -0.4280  0.6861  0.8008
 4758TIP3    H214216   6.695   4.386   6.468 -0.3283 -0.3397 -1.4945
 4759TIP3   OH214217   6.839   4.197   3.238  0.9672  0.1876 -0.3176
 4759TIP3    H114218   6.872   4.179   3.150 -0.2526  1.0717 -0.9752
 4759TIP3    H214219   6.746   4.174   3.234  0.5477  1.7022  0.2772
 4760TIP3   OH214220   4.140   1.142   0.113 -0.0487 -0.1987 -0.1145
 4760TIP3    H114221   4.165   1.126   0.204  1.0948 -1.3267 -0.6069
 4760TIP3    H214222   4.223   1.149   0.066 -0.5507  2.1342 -0.8313
 4761TIP3   OH214223   5.261   7.223   4.661  0.1385 -0.1161  0.2324
 4761TIP3    H114224   5.316   7.298   4.681  0.4010 -0.4447  0.7530
 4761TIP3    H214225   5.322   7.150   4.652 -0.1808 -0.4151  0.4776
 4762TIP3   OH214226   5.368   2.796   1.597  0.5679  0.4535 -0.3115
 4762TIP3    H114227   5.383   2.885   1.627 -1.1024  0.7358 -0.1849
 4762TIP3    H214228   5.344   2.747   1.676  0.4804  0.1379 -0.5308
 4763TIP3   OH214229   0.347   0.509   6.028  0.8434 -0.3576  0.0275
 4763TIP3    H114230   0.348   0.549   5.941 -1.5384  1.6835  0.8145
 4763TIP3    H214231   0.286   0.436   6.021  0.2958  0.0866  0.0428
 4764TIP3   OH214232   0.031   1.236   4.245  0.6545 -0.1351  0.0939
 4764TIP3    H114233   0.054   1.261   4.334 -0.0611 -0.8544  0.4935
 4764TIP3    H214234   0.051   1.313   4.192  1.0480  0.3072  0.8785
 4765TIP3   OH214235   4.169   2.028   4.052  0.0526  0.3310 -0.6176
 4765TIP3    H114236   4.088   2.039   4.002 -0.7619 -1.7525  0.1681
 4765TIP3    H214237   4.236   2.012   3.985 -0.7381 -0.8713 -1.1530
 4766TIP3   OH214238   5.892   0.508   0.317  0.6179 -0.2917  0.4190
 4766TIP3    H114239   5.851   0.594   0.327  0.7704 -0.2375  0.5708
 4766TIP3    H214240   5.952   0.518   0.243 -0.2611 -0.6006 -0.3563
 4767TIP3   OH214241   2.149   1.286   5.446  0.0867 -0.1078  0.7302
 4767TIP3    H114242   2.095   1.295   5.524  0.9750 -0.4842  1.4085
 4767TIP3    H214243   2.113   1.209   5.402 -1.4680  1.0573 -0.1254
 4768TIP3   OH214244   2.779   6.019   4.891 -0.1343  0.3867 -0.1062
 4768TIP3    H114245   2.697   5.977   4.865 -0.0554 -0.6301  1.1944
 4768TIP3    H214246   2.837   5.946   4.913  0.4967  1.1411  0.7805
 4769TIP3   OH214247   6.831   4.997   4.510  0.1656  0.6547 -0.2506
 4769TIP3    H114248   6.845   4.918   4.563  0.4210 -0.3675 -1.7871
 4769TIP3    H214249   6.900   5.057   4.538 -0.6509  0.7687  1.6675
 4770TIP3   OH214250   8.308   7.766   3.996 -0.1227  0.3116  0.2622
 4770TIP3    H114251   8.248   7.830   4.033 -0.1789  0.7132 -0.4961
 4770TIP3    H214252   8.355   7.814   3.927  0.0315 -0.3853 -0.1291
 4771TIP3   OH214253   1.296   6.275   0.688 -0.1720 -0.1915  0.2689
 4771TIP3    H114254   1.214   6.321   0.671 -0.5860 -1.3290 -0.9300
 4771TIP3    H214255   1.280   6.225   0.767 -1.0106 -1.2092 -0.5188
 4772TIP3   OH214256   2.316   6.715   4.815  0.2895 -0.6463 -0.4426
 4772TIP3    H114257   2.297   6.648   4.749 -1.0137 -0.4680 -0.2897
 4772TIP3    H214258   2.393   6.761   4.782  0.4889 -1.4511 -1.1394
 4773TIP3   OH214259   8.279   3.978   2.110  0.4135 -0.0224  0.1922
 4773TIP3    H114260   8.223   3.914   2.154  0.9511  0.0661  1.0358
 4773TIP3    H214261   8.258   4.061   2.153  0.6656  0.1352  0.0131
 4774TIP3   OH214262   1.116   5.995   3.464  0.0637  0.7641  0.6734
 4774TIP3    H114263   1.071   6.010   3.381  0.6968  3.1935  0.7034
 4774TIP3    H214264   1.129   5.900   3.467 -0.6624  0.5287 -1.6260
 4775TIP3   OH214265   5.901   4.251   2.616 -0.4777  0.7100  0.3757
 4775TIP3    H114266   5.843   4.188   2.573 -1.8396  0.5411  2.3293
 4775TIP3    H214267   5.976   4.199   2.644 -0.9070  0.2302  0.6716
 4776TIP3   OH214268   4.740   1.880   4.079 -0.0760  0.0638 -0.0756
 4776TIP3    H114269   4.656   1.874   4.033 -0.6546 -1.4097  1.1111
 4776TIP3    H214270   4.805   1.880   4.010 -0.9877 -0.3604 -0.9584
 4777TIP3   OH214271   7.153   1.670   5.330 -0.0577  0.2170 -0.3641
 4777TIP3    H114272   7.105   1.752   5.318  1.2105  0.8562 -1.2781
 4777TIP3    H214273   7.088   1.609   5.366 -0.9220  1.7227  0.7206
 4778TIP3   OH214274   4.008   7.635   5.765 -0.5703  0.6509  0.4934
 4778TIP3    H114275   3.995   7.729   5.771 -1.1548  0.6702 -0.7573
 4778TIP3    H214276   4.042   7.620   5.676 -1.9665 -0.4344  0.0871
 4779TIP3   OH214277   7.768   6.791   5.852  0.3696 -0.0813  0.1084
 4779TIP3    H114278   7.767   6.696   5.864  1.1164 -0.3373 -1.5105
 4779TIP3    H214279   7.695   6.824   5.905 -1.2336 -1.7777 -0.9400
 4780TIP3   OH214280   0.600   0.337   6.041  0.2138 -0.1721  0.2774
 4780TIP3    H114281   0.541   0.264   6.060  0.6618 -1.4284 -2.5902
 4780TIP3    H214282   0.546   0.401   5.996  0.1348  0.7362  1.5867
 4781TIP3   OH214283   3.638   0.919   2.985 -0.1887 -0.1116  0.0206
 4781TIP3    H114284   3.688   0.854   3.033 -1.0088 -0.6888  0.1055
 4781TIP3    H214285   3.571   0.869   2.939 -0.8178  0.6696  0.0674
 4782TIP3   OH214286   5.045   6.099   6.652 -0.0677  0.2442  0.2676
 4782TIP3    H114287   5.070   6.187   6.678  0.3737  0.0335  0.5701
 4782TIP3    H214288   4.955   6.089   6.682 -0.2599  0.7386 -0.1365
 4783TIP3   OH214289   4.797   6.485   0.544 -0.8887 -0.5022 -0.1046
 4783TIP3    H114290   4.827   6.394   0.539  0.8267 -0.0053  0.4767
 4783TIP3    H214291   4.801   6.516   0.453 -0.1708 -0.6331 -0.1262
 4784TIP3   OH214292   3.406   2.865   0.992  0.0318 -0.2474  0.1255
 4784TIP3    H114293   3.359   2.866   1.075 -0.4729 -1.3576 -0.1307
 4784TIP3    H214294   3.343   2.898   0.928  0.2194  0.0327  0.0821
 4785TIP3   OH214295   4.434   0.976   2.938  0.1740  0.0742  0.0350
 4785TIP3    H114296   4.490   1.025   2.879 -0.2807  0.3100 -0.2113
 4785TIP3    H214297   4.491   0.947   3.009  0.4282  1.0240  0.2245
 4786TIP3   OH214298   5.010   1.394   2.342 -0.2096 -0.2994  0.2989
 4786TIP3    H114299   5.097   1.434   2.348  0.6540 -2.1748  1.3989
 4786TIP3    H214300   4.949   1.465   2.363  1.2771  0.3988  2.7116
 4787TIP3   OH214301   6.645   1.485   4.974  0.1389 -1.1055  0.3615
 4787TIP3    H114302   6.675   1.575   4.964  1.1213 -1.4119  0.4303
 4787TIP3    H214303   6.719   1.440   5.015 -0.5768 -1.7994  0.9189
 4788TIP3   OH214304   4.068   6.168   5.427  0.1367 -0.0060  0.1902
 4788TIP3    H114305   4.076   6.076   5.401  0.6854  0.3665 -1.0688
 4788TIP3    H214306   3.985   6.173   5.474  0.6910 -1.3748  1.4031
 4789TIP3   OH214307   7.761   2.095   0.175 -0.4655 -0.6239 -0.4964
 4789TIP3    H114308   7.816   2.030   0.218 -0.5278 -0.1705  0.2747
 4789TIP3    H214309   7.820   2.138   0.112 -0.0609 -0.4600 -0.0086
 4790TIP3   OH214310   1.833   0.569   6.683  0.2798 -0.1870  0.1372
 4790TIP3    H114311   1.878   0.505   6.739  1.1853 -0.6616 -1.0692
 4790TIP3    H214312   1.895   0.641   6.674 -0.4182  0.5075  0.8499
 4791TIP3   OH214313   5.423   2.899   5.544 -0.0287 -0.2045 -0.4235
 4791TIP3    H114314   5.466   2.961   5.602 -0.3835  2.0088 -2.3866
 4791TIP3    H214315   5.486   2.885   5.473 -0.1042 -1.8317 -0.2002
 4792TIP3   OH214316   7.344   6.261   5.357  0.3554 -0.0483 -0.1400
 4792TIP3    H114317   7.415   6.206   5.325 -1.1477 -1.8897 -0.4589
 4792TIP3    H214318   7.280   6.261   5.286 -0.5487  0.5034  0.6477
 4793TIP3   OH214319   4.375   5.257   4.657 -0.6169 -0.1816 -0.0605
 4793TIP3    H114320   4.335   5.342   4.639 -1.2426  0.1118  2.3353
 4793TIP3    H214321   4.300   5.197   4.665 -0.3117 -0.5276  0.2262
 4794TIP3   OH214322   6.591   6.505   6.260 -0.3573  0.4617 -0.0471
 4794TIP3    H114323   6.674   6.462   6.279 -0.8891 -0.4732  0.2016
 4794TIP3    H214324   6.613   6.571   6.194  0.4576 -0.2556 -0.5110
 4795TIP3   OH214325   2.592   3.986   0.230  0.3600  0.2512  0.4339
 4795TIP3    H114326   2.529   3.925   0.267  1.2281 -0.0728  1.4472
 4795TIP3    H214327   2.571   4.070   0.272  0.0575  0.3360  0.1128
 4796TIP3   OH214328   1.498   6.874   5.084  0.0590  1.0999 -0.1725
 4796TIP3    H114329   1.593   6.867   5.093 -0.1058  0.2091  1.0923
 4796TIP3    H214330   1.465   6.788   5.109 -1.0914  1.4628 -0.4086
 4797TIP3   OH214331   2.694   7.492   5.101  0.6755 -0.3242  0.4771
 4797TIP3    H114332   2.680   7.398   5.095  0.5209 -0.3536  1.1573
 4797TIP3    H214333   2.620   7.523   5.153 -0.5259  0.5023 -1.5996
 4798TIP3   OH214334   3.471   6.940   3.766 -0.1123 -0.0904  0.4224
 4798TIP3    H114335   3.391   6.898   3.736  0.8017 -2.0428  0.5829
 4798TIP3    H214336   3.487   6.904   3.853 -0.0966  1.7957  1.2538
 4799TIP3   OH214337   4.182   2.774   6.220 -0.4345 -0.0590 -0.0062
 4799TIP3    H114338   4.109   2.714   6.204 -1.0673  1.0240 -1.4258
 4799TIP3    H214339   4.228   2.779   6.136  1.5783 -1.0223  0.9472
 4800TIP3   OH214340   6.913   1.557   0.862  0.2413 -0.3299 -0.1309
 4800TIP3    H114341   6.885   1.574   0.952 -0.6411  1.2414 -0.6738
 4800TIP3    H214342   7.005   1.582   0.860 -0.0043  0.6383  0.0962
 4801TIP3   OH214343   4.752   3.029   5.021 -0.1291 -0.3915  0.0483
 4801TIP3    H114344   4.797   3.112   5.038 -0.9591 -0.3681  2.5592
 4801TIP3    H214345   4.665   3.054   4.992 -1.0241 -0.2519  2.6007
 4802TIP3   OH214346   1.058   5.638   3.722 -0.1232 -0.3875 -0.2934
 4802TIP3    H114347   1.129   5.576   3.706  2.7925  2.3680  0.7427
 4802TIP3    H214348   1.025   5.616   3.809  0.2202 -1.0153 -0.3170
 4803TIP3   OH214349   1.683   4.911   0.904  0.0744 -0.0821  0.5012
 4803TIP3    H114350   1.693   4.928   0.810 -2.3896  0.9669  0.3622
 4803TIP3    H214351   1.667   4.997   0.942  1.9296 -0.3636  2.0783
 4804TIP3   OH214352   1.812   0.621   1.676 -0.3809 -0.2048  0.1776
 4804TIP3    H114353   1.875   0.676   1.724  0.0159 -0.9926  0.5766
 4804TIP3    H214354   1.860   0.540   1.659 -0.5895 -0.0139 -1.3972
 4805TIP3   OH214355   4.602   1.565   0.900 -0.4338 -0.1071  0.5810
 4805TIP3    H114356   4.659   1.488   0.890  1.1425  0.9832  0.8126
 4805TIP3    H214357   4.549   1.546   0.978 -2.2771 -2.2332 -1.0360
 4806TIP3   OH214358   7.381   1.630   2.937  0.2677 -0.3390 -0.5263
 4806TIP3    H114359   7.348   1.541   2.923  2.1284 -1.3383  0.9303
 4806TIP3    H214360   7.328   1.665   3.008 -1.2281  0.2081 -1.8497
 4807TIP3   OH214361   2.252   5.100   4.997  0.2493  0.2082  0.1129
 4807TIP3    H114362   2.325   5.041   5.016  0.8376  0.9871  0.3118
 4807TIP3    H214363   2.257   5.115   4.902 -1.1936 -1.7201 -0.3263
 4808TIP3   OH214364   8.108   2.734   2.035  0.4590 -0.1642  0.0055
 4808TIP3    H114365   8.193   2.735   1.991 -0.8338  2.1812 -2.8198
 4808TIP3    H214366   8.052   2.682   1.978 -0.6396  0.6402  0.3143
 4809TIP3   OH214367   1.005   2.963   2.054 -0.3449 -0.1485 -0.3469
 4809TIP3    H114368   0.930   2.948   2.113  1.1652 -3.4238  0.9745
 4809TIP3    H214369   1.035   3.051   2.077 -0.4948 -0.8467  3.1296
 4810TIP3   OH214370   6.092   1.189   3.414 -0.0229  0.4594 -0.3859
 4810TIP3    H114371   6.068   1.175   3.505 -1.2681 -0.5166 -0.8387
 4810TIP3    H214372   6.178   1.149   3.405 -1.1077 -2.0835 -0.2981
 4811TIP3   OH214373   0.476   1.569   4.406  0.2419 -0.3035 -0.2618
 4811TIP3    H114374   0.554   1.570   4.350  0.9434  1.5445  0.6687
 4811TIP3    H214375   0.480   1.485   4.451  1.0911 -0.6892 -1.0271
 4812TIP3   OH214376   4.686   1.753   3.366  0.4772 -0.1494 -0.2342
 4812TIP3    H114377   4.591   1.757   3.353  0.7220  0.0073 -2.1413
 4812TIP3    H214378   4.696   1.728   3.458 -1.4062 -0.4852 -0.0829
 4813TIP3   OH214379   5.586   7.537   4.820  0.3309 -0.0687 -0.0675
 4813TIP3    H114380   5.602   7.623   4.781 -1.0589  0.4885  0.5097
 4813TIP3    H214381   5.511   7.551   4.878  0.9678 -1.3563  1.1262
 4814TIP3   OH214382   0.511   1.725   5.658 -0.1068 -0.9201 -0.2968
 4814TIP3    H114383   0.490   1.733   5.565 -2.5325 -0.4979  0.2086
 4814TIP3    H214384   0.591   1.777   5.669 -0.4611  0.0537 -1.9394
 4815TIP3   OH214385   6.613   5.598   3.462 -0.4839  0.6928 -0.3752
 4815TIP3    H114386   6.522   5.579   3.486 -0.5442 -0.8191 -1.6145
 4815TIP3    H214387   6.606   5.664   3.393 -0.8231 -0.7111 -1.7706
 4816TIP3   OH214388   2.163   0.989   3.303 -0.3639  0.0319  0.2214
 4816TIP3    H114389   2.164   0.948   3.390  4.0851  1.8567  1.3617
 4816TIP3    H214390   2.114   1.070   3.315 -2.2401 -1.0353  0.1369
 4817TIP3   OH214391   8.338   7.605   2.532 -0.2635 -0.4318  0.5442
 4817TIP3    H114392   8.263   7.608   2.591  0.5330 -1.1192  1.6600
 4817TIP3    H214393   8.414   7.606   2.591  0.7142  2.6853 -0.6078
 4818TIP3   OH214394   2.275   6.439   4.026 -0.0178  0.0103 -0.2723
 4818TIP3    H114395   2.357   6.395   4.050 -1.0453 -1.2320  1.1027
 4818TIP3    H214396   2.299   6.532   4.022  1.8218 -0.4473 -1.5854
 4819TIP3   OH214397   6.872   3.100   0.964 -0.2355  0.2340 -0.2156
 4819TIP3    H114398   6.892   3.151   1.042 -1.0882  0.6002 -0.2330
 4819TIP3    H214399   6.917   3.146   0.893  0.7488 -0.2388  0.0828
 4820TIP3   OH214400   5.010   4.331   4.671  0.2346  0.0689 -0.0665
 4820TIP3    H114401   5.103   4.315   4.685  0.2187 -1.4878 -1.4201
 4820TIP3    H214402   4.973   4.336   4.760  1.3552 -0.9078  0.4862
 4821TIP3   OH214403   4.044   4.450   0.340 -0.2560 -0.5976  0.3573
 4821TIP3    H114404   4.136   4.477   0.340 -0.2205 -0.7140 -0.0632
 4821TIP3    H214405   3.999   4.518   0.389 -0.3662  0.9327 -1.7330
 4822TIP3   OH214406   7.167   3.157   6.703  0.2487 -0.0539 -0.4475
 4822TIP3    H114407   7.190   3.178   6.793  1.3768  1.0732 -0.9703
 4822TIP3    H214408   7.146   3.241   6.663 -2.1039 -0.7167 -0.7912
 4823TIP3   OH214409   0.007   6.554   5.490 -0.0853  0.0435 -0.0396
 4823TIP3    H114410   0.092   6.578   5.452  0.4815 -0.4953  0.8283
 4823TIP3    H214411  -0.052   6.624   5.464  0.4628  0.0993 -1.2180
 4824TIP3   OH214412   7.574   2.067   3.595  0.3493  0.7216  0.0431
 4824TIP3    H114413   7.634   2.016   3.541  0.7712  0.6653  0.5521
 4824TIP3    H214414   7.504   2.093   3.535 -0.4122 -1.2938 -0.0459
 4825TIP3   OH214415   2.718   1.527   1.943 -0.0735  0.1236  0.3427
 4825TIP3    H114416   2.669   1.447   1.924  1.2454 -0.2700 -1.6100
 4825TIP3    H214417   2.664   1.597   1.906  0.2210 -0.1842 -0.6905
 4826TIP3   OH214418   0.824   5.573   3.086 -0.7877 -0.2581 -0.1211
 4826TIP3    H114419   0.788   5.661   3.070 -2.2595 -0.4492  1.7763
 4826TIP3    H214420   0.790   5.520   3.015 -1.4234  0.3233 -0.2585
 4827TIP3   OH214421   5.890   0.569   1.893 -0.4321  0.0707 -0.3462
 4827TIP3    H114422   5.917   0.639   1.834 -0.4834  1.0297  0.7454
 4827TIP3    H214423   5.941   0.583   1.973  0.0277 -1.5276 -0.3332
 4828TIP3   OH214424   2.121   0.673   4.430 -0.4419 -0.2291 -0.3717
 4828TIP3    H114425   2.070   0.597   4.403  1.2125 -1.4290 -0.2730
 4828TIP3    H214426   2.177   0.641   4.501  1.4278  0.6178 -1.3822
 4829TIP3   OH214427   2.175   7.767   6.099 -0.4319  0.0131  0.3575
 4829TIP3    H114428   2.265   7.794   6.081 -0.2190 -0.6245  0.4350
 4829TIP3    H214429   2.140   7.837   6.154 -0.5488  1.1400 -1.0847
 4830TIP3   OH214430   6.536   4.732   1.971 -0.4636 -0.0903  0.1259
 4830TIP3    H114431   6.607   4.779   1.927 -2.7306  1.6146 -2.0295
 4830TIP3    H214432   6.461   4.742   1.912 -1.4755 -5.9021 -0.1839
 4831TIP3   OH214433   0.513   0.374   5.303  0.1940  0.5037  0.8904
 4831TIP3    H114434   0.535   0.467   5.299  0.5252  0.3795 -1.5049
 4831TIP3    H214435   0.588   0.330   5.263 -1.8542 -0.3646 -2.3900
 4832TIP3   OH214436   7.734   7.510   0.537 -0.6400 -0.1755 -0.2003
 4832TIP3    H114437   7.667   7.566   0.498 -0.5419  1.4200  1.7601
 4832TIP3    H214438   7.693   7.475   0.616 -0.2435 -1.8650 -0.7121
 4833TIP3   OH214439   0.867   4.431   6.698  0.4138  0.1775 -0.3841
 4833TIP3    H114440   0.889   4.339   6.696  2.1804  0.5843 -1.3305
 4833TIP3    H214441   0.925   4.469   6.764 -0.5214  0.5888  0.2339
 4834TIP3   OH214442   2.556   2.508   4.268 -0.4160 -0.5860  0.6325
 4834TIP3    H114443   2.649   2.526   4.252 -0.3026 -0.9155  0.8854
 4834TIP3    H214444   2.543   2.530   4.360 -1.1686  1.7338  0.0305
 4835TIP3   OH214445   7.087   6.744   0.442 -0.1331 -0.5130  0.4458
 4835TIP3    H114446   7.114   6.770   0.353  0.1565 -1.2802  0.3039
 4835TIP3    H214447   7.103   6.650   0.446  0.6362 -0.3592  1.5833
 4836TIP3   OH214448   1.722   2.420   6.347  0.1172 -0.1292 -0.2263
 4836TIP3    H114449   1.729   2.510   6.315  0.5199 -0.2492 -0.4770
 4836TIP3    H214450   1.633   2.415   6.383  0.4720  0.7146  0.8391
 4837TIP3   OH214451   6.550   5.882   4.683 -0.2156  0.2010 -0.0448
 4837TIP3    H114452   6.539   5.976   4.698 -1.1881  0.1446 -0.3578
 4837TIP3    H214453   6.471   5.843   4.721  0.7683 -0.6178  1.2371
 4838TIP3   OH214454   4.246   2.546   2.174 -0.3456 -0.5382  0.7407
 4838TIP3    H114455   4.182   2.525   2.106 -2.1439  3.4324  0.9596
 4838TIP3    H214456   4.330   2.522   2.136 -1.3928  0.3842 -2.4564
 4839TIP3   OH214457   0.127   2.513   1.294  0.8099 -0.0390 -0.3211
 4839TIP3    H114458   0.140   2.447   1.226 -0.6712  1.3004 -2.0159
 4839TIP3    H214459   0.189   2.583   1.272  1.9089 -0.5534  1.0667
 4840TIP3   OH214460   0.727   3.499   1.708 -0.4426  0.1902  0.0332
 4840TIP3    H114461   0.788   3.572   1.698  0.0754 -0.0959  1.0250
 4840TIP3    H214462   0.704   3.499   1.801  0.5135 -1.6573  0.3042
 4841TIP3   OH214463   2.056   0.830   3.074  0.2338 -0.0661 -0.4931
 4841TIP3    H114464   2.081   0.778   2.998 -0.9594 -0.1762 -0.8253
 4841TIP3    H214465   2.139   0.859   3.111  0.8573 -0.6801 -1.3660
 4842TIP3   OH214466   3.105   3.376   5.453  0.0206 -0.0633 -0.5154
 4842TIP3    H114467   3.199   3.391   5.469  0.6060 -2.9076 -0.7529
 4842TIP3    H214468   3.068   3.365   5.541  0.3607 -1.0312 -0.4760
 4843TIP3   OH214469   6.563   7.785   0.119 -0.6021  0.0004  0.3235
 4843TIP3    H114470   6.485   7.782   0.063  0.3382  1.0954 -1.1045
 4843TIP3    H214471   6.636   7.768   0.060  0.3347 -0.0307  1.4499
 4844TIP3   OH214472   1.081   6.507   3.170  0.1437  0.0704  0.0894
 4844TIP3    H114473   1.034   6.573   3.119  0.5819  0.8726  0.6888
 4844TIP3    H214474   1.065   6.425   3.124  0.4975  0.7551 -1.3095
 4845TIP3   OH214475   3.302   2.872   2.950 -0.1169  0.5437 -0.1842
 4845TIP3    H114476   3.223   2.852   3.000  0.1978  1.2377  0.6223
 4845TIP3    H214477   3.348   2.789   2.943 -0.7170  0.2185 -0.3080
 4846TIP3   OH214478   4.329   5.199   6.717 -0.2581 -0.0929 -0.3051
 4846TIP3    H114479   4.380   5.169   6.792 -1.4799  2.5901  1.7555
 4846TIP3    H214480   4.255   5.139   6.713 -0.1249 -0.3320  0.5810
 4847TIP3   OH214481   0.129   5.537   4.416  0.4773  0.1350  0.2469
 4847TIP3    H114482   0.176   5.534   4.499  0.0922 -0.3550  0.4457
 4847TIP3    H214483   0.041   5.565   4.439  0.2503 -0.4102  0.0577
 4848TIP3   OH214484   4.507   2.167   2.178  0.3985  0.6812 -0.3072
 4848TIP3    H114485   4.590   2.134   2.141 -0.2098  0.7092 -1.7881
 4848TIP3    H214486   4.530   2.251   2.217  1.0136  0.8769 -1.0631
 4849TIP3   OH214487   3.228   0.198   3.638 -0.0822 -0.4095  0.6845
 4849TIP3    H114488   3.291   0.173   3.571 -0.8874  2.4425 -1.3480
 4849TIP3    H214489   3.156   0.137   3.628  0.8870 -1.6123  0.7708
 4850TIP3   OH214490   5.655   1.589   1.906  0.0942 -0.1963  0.1257
 4850TIP3    H114491   5.646   1.609   1.999 -0.5659  0.1017  0.0007
 4850TIP3    H214492   5.657   1.674   1.862  1.1321 -0.3067 -0.0829
 4851TIP3   OH214493   7.519   0.674   5.607 -0.0408  0.6854 -0.0074
 4851TIP3    H114494   7.502   0.623   5.686 -1.0410  0.1490 -0.5516
 4851TIP3    H214495   7.613   0.691   5.610  0.1762 -0.5022  0.5972
 4852TIP3   OH214496   3.467   4.537   3.329 -0.4526  0.3660  0.5351
 4852TIP3    H114497   3.418   4.532   3.247  1.5527 -0.3903 -0.6892
 4852TIP3    H214498   3.489   4.630   3.339  0.3448  0.2928 -0.4551
 4853TIP3   OH214499   7.812   0.382   4.165  0.2050 -0.5506  0.5915
 4853TIP3    H114500   7.776   0.394   4.077  3.5997 -0.6024 -0.9568
 4853TIP3    H214501   7.822   0.471   4.199 -3.0895 -0.5510  1.9946
 4854TIP3   OH214502   8.015   4.031   1.316 -0.4569 -0.0993 -0.2416
 4854TIP3    H114503   8.030   4.015   1.409  0.4713  0.0034 -0.3644
 4854TIP3    H214504   7.921   4.018   1.304 -0.2132 -2.6653  0.2044
 4855TIP3   OH214505   8.355   2.255   2.018  0.2552  0.1611 -0.2708
 4855TIP3    H114506   8.389   2.252   2.107  0.8912 -2.2253 -0.5357
 4855TIP3    H214507   8.260   2.258   2.029  0.3578  1.2187  0.4598
 4856TIP3   OH214508   2.779   0.148   2.034  0.0652  0.0357 -0.2944
 4856TIP3    H114509   2.726   0.158   2.113 -0.5559 -0.4188 -0.6443
 4856TIP3    H214510   2.841   0.221   2.038  0.4748 -0.3517  0.9402
 4857TIP3   OH214511   7.482   1.646   2.234  0.0380 -0.2699 -0.2520
 4857TIP3    H114512   7.419   1.662   2.303  0.8094 -0.7236  0.5826
 4857TIP3    H214513   7.515   1.732   2.209  0.5153 -0.1703  0.6915
 4858TIP3   OH214514   1.306   7.917   5.524  0.2795  0.5345  0.2117
 4858TIP3    H114515   1.310   7.841   5.466 -0.5446  1.1955 -0.7413
 4858TIP3    H214516   1.320   7.992   5.466  0.3001  1.1659  1.0150
 4859TIP3   OH214517   7.271   3.377   2.951  0.0524 -0.1545  0.1485
 4859TIP3    H114518   7.198   3.439   2.949  0.3230  0.2440  1.6266
 4859TIP3    H214519   7.300   3.377   3.042  1.7638 -0.4639 -0.3579
 4860TIP3   OH214520   2.155   0.239   4.392  0.2376 -0.3238 -0.6079
 4860TIP3    H114521   2.117   0.244   4.480 -1.1247  0.6371 -1.2102
 4860TIP3    H214522   2.140   0.326   4.355  0.8371 -0.6962 -1.7715
 4861TIP3   OH214523   4.957   3.716   1.225 -0.0806 -0.6038  0.5134
 4861TIP3    H114524   4.939   3.679   1.312 -1.3578 -0.7364  0.2111
 4861TIP3    H214525   4.882   3.691   1.172  0.8343 -0.8071 -0.7407
 4862TIP3   OH214526   0.412   2.361   0.233  0.0826  0.3432  0.5477
 4862TIP3    H114527   0.492   2.414   0.237  0.9939 -1.0462  1.6080
 4862TIP3    H214528   0.399   2.345   0.140  0.2083  1.7728  0.2519
 4863TIP3   OH214529   2.027   4.928   3.282 -0.1898  0.4247  0.0454
 4863TIP3    H114530   2.103   4.981   3.306 -1.0832  2.6224 -1.6102
 4863TIP3    H214531   2.060   4.838   3.281  1.2517  0.7524  3.5637
 4864TIP3   OH214532   7.078   4.439   0.503  0.2578 -0.0604 -0.2174
 4864TIP3    H114533   7.020   4.491   0.447 -0.3670 -0.1851  0.3069
 4864TIP3    H214534   7.033   4.356   0.514  1.9210 -1.3292 -2.2587
 4865TIP3   OH214535   6.818   7.220   4.382  0.0648  0.3248  0.0554
 4865TIP3    H114536   6.796   7.216   4.475  0.4647 -1.5289  0.1170
 4865TIP3    H214537   6.914   7.220   4.381  0.1080 -1.7284 -0.3443
 4866TIP3   OH214538   4.062   6.431   1.607 -0.2563  0.3952  0.3420
 4866TIP3    H114539   4.057   6.468   1.519  1.5155 -1.5084 -0.6524
 4866TIP3    H214540   4.081   6.506   1.664  0.3632  1.4230 -1.1509
 4867TIP3   OH214541   0.120   5.865   0.353 -0.2195 -0.1924  0.4759
 4867TIP3    H114542   0.029   5.884   0.372 -0.6505 -1.1463 -0.5197
 4867TIP3    H214543   0.119   5.775   0.320  0.9066  0.2028 -0.7234
 4868TIP3   OH214544   3.954   0.057   4.486  0.0076 -0.0911 -0.3637
 4868TIP3    H114545   3.921   0.112   4.556  0.4306 -1.7144  1.2006
 4868TIP3    H214546   4.049   0.051   4.502  0.2924  0.3965 -1.7391
 4869TIP3   OH214547   4.711   2.886   3.824  0.4403 -0.7024  0.1897
 4869TIP3    H114548   4.631   2.938   3.836  0.0043 -1.1253 -0.8091
 4869TIP3    H214549   4.735   2.899   3.732  2.5586  0.8695  0.8825
 4870TIP3   OH214550   3.106   6.282   5.338  0.7203 -0.3868 -0.5221
 4870TIP3    H114551   3.083   6.349   5.273 -1.2498 -1.3147 -0.8638
 4870TIP3    H214552   3.184   6.240   5.302  0.4376 -0.0112 -1.6195
 4871TIP3   OH214553   0.462   5.720   0.758 -0.1518  0.7218  0.2903
 4871TIP3    H114554   0.370   5.707   0.733  0.0652 -0.2008 -0.0481
 4871TIP3    H214555   0.478   5.813   0.739 -0.3467  0.3665 -1.8756
 4872TIP3   OH214556   2.549   0.846   5.269 -0.2869 -0.0684 -0.0050
 4872TIP3    H114557   2.518   0.829   5.180  1.2621  0.9550 -0.7919
 4872TIP3    H214558   2.618   0.781   5.282  0.6057  0.8150 -0.2019
 4873TIP3   OH214559   5.228   1.895   3.448 -0.6276 -0.0898 -0.0647
 4873TIP3    H114560   5.296   1.945   3.404 -1.3043  1.3514  0.4417
 4873TIP3    H214561   5.263   1.877   3.536 -1.1884  1.3928  0.4925
 4874TIP3   OH214562   3.789   7.853   5.496  0.1491  0.4432  0.0633
 4874TIP3    H114563   3.848   7.920   5.531 -0.4872  1.3099 -0.4659
 4874TIP3    H214564   3.721   7.844   5.563 -1.7358  2.9833 -1.3530
 4875TIP3   OH214565   2.224   1.326   5.862 -0.6361 -0.0706  0.3459
 4875TIP3    H114566   2.131   1.346   5.876 -0.3115  1.1032  1.0589
 4875TIP3    H214567   2.269   1.404   5.894  0.7371 -1.6847  2.6261
 4876TIP3   OH214568   5.424   0.487   3.185  0.1533  0.2505 -0.6764
 4876TIP3    H114569   5.343   0.468   3.232  0.9511  0.7347  0.9826
 4876TIP3    H214570   5.417   0.437   3.104 -1.0706 -1.0663  0.1895
 4877TIP3   OH214571   2.209   4.265   0.947 -0.2409  0.2486  0.0917
 4877TIP3    H114572   2.139   4.200   0.952  0.7768 -0.8152  0.6076
 4877TIP3    H214573   2.167   4.341   0.906 -1.9348 -0.0439  1.1898
 4878TIP3   OH214574   5.178   0.896   4.674  0.3230 -0.0480 -0.4746
 4878TIP3    H114575   5.106   0.877   4.614 -0.7525  0.5978  0.5653
 4878TIP3    H214576   5.139   0.888   4.761  1.6312 -0.1311  0.1181
 4879TIP3   OH214577   3.105   0.664   4.407 -0.1305  0.5704 -0.4474
 4879TIP3    H114578   3.141   0.607   4.339  0.5499  0.1790  0.2191
 4879TIP3    H214579   3.181   0.711   4.441 -0.0543 -0.8498  1.5320
 4880TIP3   OH214580   0.444   0.840   5.921  0.4468 -0.1230  0.1512
 4880TIP3    H114581   0.383   0.908   5.949  0.7767  1.3889 -2.4855
 4880TIP3    H214582   0.388   0.769   5.890  0.1053 -0.4685  1.4659
 4881TIP3   OH214583   4.985   5.029   1.529  0.0601  0.2680  0.0275
 4881TIP3    H114584   5.054   5.057   1.469 -0.4106  2.1260  0.2736
 4881TIP3    H214585   4.965   5.108   1.581 -0.5797 -0.8753  1.6036
 4882TIP3   OH214586   5.333   0.744   6.026  0.2402 -0.0068 -0.1000
 4882TIP3    H114587   5.364   0.831   6.051  1.5857  0.5392 -3.1968
 4882TIP3    H214588   5.356   0.736   5.933  1.6392 -4.2835  0.3843
 4883TIP3   OH214589   7.147   5.071   5.025  0.0896  0.0052 -0.9263
 4883TIP3    H114590   7.135   5.001   5.090  1.3922  0.0477 -0.6047
 4883TIP3    H214591   7.072   5.063   4.966  0.7150 -2.3254 -1.4922
 4884TIP3   OH214592   4.721   4.994   1.052 -0.0586 -0.0075 -0.1819
 4884TIP3    H114593   4.773   5.066   1.015  0.5717 -0.8838 -1.0677
 4884TIP3    H214594   4.774   4.916   1.035 -0.4769 -0.6299  1.2431
 4885TIP3   OH214595   6.843   3.735   0.179 -0.8229  0.2542  0.4276
 4885TIP3    H114596   6.766   3.780   0.215 -1.1524  1.0314 -1.1325
 4885TIP3    H214597   6.889   3.701   0.255 -1.7124  1.4184  1.5302
 4886TIP3   OH214598   8.141   5.965   4.215 -0.5557  0.6341  0.4497
 4886TIP3    H114599   8.202   5.980   4.143 -0.2548  1.3840  0.8455
 4886TIP3    H214600   8.165   6.031   4.281 -1.9895  1.1626  0.4892
 4887TIP3   OH214601   3.888   3.622   3.940  0.0085  0.4687 -0.4860
 4887TIP3    H114602   3.973   3.665   3.928  0.6927 -0.9765 -0.9824
 4887TIP3    H214603   3.843   3.678   4.003  1.2517  1.3690 -0.3390
 4888TIP3   OH214604   2.646   0.749   2.625 -0.2074 -0.0050 -0.0794
 4888TIP3    H114605   2.559   0.747   2.584 -0.2296  0.2758 -0.0508
 4888TIP3    H214606   2.707   0.760   2.552 -0.1892 -0.2984 -0.1081
 4889TIP3   OH214607   3.782   3.320   0.530  0.1734 -0.1370 -0.2233
 4889TIP3    H114608   3.756   3.301   0.621  1.3832  0.0768  0.1907
 4889TIP3    H214609   3.874   3.291   0.525  0.3021  0.4034 -1.2108
 4890TIP3   OH214610   5.466   0.257   2.232  0.1961  0.1315  0.0670
 4890TIP3    H114611   5.535   0.223   2.289 -0.0382  1.1045  0.9776
 4890TIP3    H214612   5.511   0.285   2.153  0.8576  0.6921  0.6270
 4891TIP3   OH214613   0.871   0.360   5.324  0.3296 -0.5048  0.1699
 4891TIP3    H114614   0.872   0.411   5.405 -0.7560  0.1931 -0.2387
 4891TIP3    H214615   0.960   0.367   5.290  0.6230 -0.2601  0.9586
 4892TIP3   OH214616   3.111   5.611   0.101  0.2604  0.3996 -0.0589
 4892TIP3    H114617   3.205   5.603   0.088  0.1553  0.3384 -0.8860
 4892TIP3    H214618   3.079   5.521   0.104  0.3479  0.4015  1.2788
 4893TIP3   OH214619   4.153   0.713   6.451 -0.0664 -0.2290 -0.9542
 4893TIP3    H114620   4.246   0.729   6.435 -0.5724  1.5688 -2.4264
 4893TIP3    H214621   4.117   0.695   6.364 -1.0098 -1.5228 -0.3240
 4894TIP3   OH214622   2.674   5.933   1.106  0.0979 -0.4828 -0.0755
 4894TIP3    H114623   2.626   5.884   1.039  0.2137  0.6739 -1.0418
 4894TIP3    H214624   2.650   6.024   1.090 -0.0667 -0.1981  1.6378
 4895TIP3   OH214625   3.781   3.028   2.624  0.3286  0.3883 -0.4365
 4895TIP3    H114626   3.777   2.935   2.647  0.8909  0.7033  1.0486
 4895TIP3    H214627   3.860   3.061   2.668  0.3925  1.4778 -1.3122
 4896TIP3   OH214628   2.547   1.887   0.789  0.3601  0.8011  0.1869
 4896TIP3    H114629   2.614   1.868   0.722  0.7345  1.0092  0.4969
 4896TIP3    H214630   2.593   1.874   0.872 -0.6609 -1.5297  0.4574
 4897TIP3   OH214631   1.060   7.675   1.472 -0.2310  0.1396  0.5118
 4897TIP3    H114632   1.032   7.657   1.562  1.3498  1.0450  1.2397
 4897TIP3    H214633   1.129   7.611   1.455  0.9295  1.2917  0.7454
 4898TIP3   OH214634   1.706   2.528   2.482 -0.1344  0.4167 -0.3407
 4898TIP3    H114635   1.689   2.559   2.571 -5.8254  0.8650 -1.2186
 4898TIP3    H214636   1.711   2.608   2.430 -0.1090  0.1180 -0.7988
 4899TIP3   OH214637   0.071   3.818   6.660  0.3537  0.3083 -0.1813
 4899TIP3    H114638   0.148   3.766   6.684 -1.2914 -1.4313  1.8055
 4899TIP3    H214639   0.036   3.774   6.583 -0.2545 -0.7904  0.6799
 4900TIP3   OH214640   6.365   2.178   3.596 -0.4282  0.7460 -0.3539
 4900TIP3    H114641   6.433   2.113   3.613 -0.5633  1.2027  2.4180
 4900TIP3    H214642   6.303   2.133   3.539  0.3422 -0.9573  0.0659
 4901TIP3   OH214643   1.522   4.082   4.949  0.1979  0.0622 -0.0621
 4901TIP3    H114644   1.441   4.091   4.899  0.6156 -0.9533 -0.9617
 4901TIP3    H214645   1.536   3.988   4.957  0.2643  0.1958  1.8253
 4902TIP3   OH214646   6.158   2.531   1.539 -0.2202  0.3750  0.5952
 4902TIP3    H114647   6.068   2.516   1.568 -0.9227  2.0710 -0.5187
 4902TIP3    H214648   6.150   2.553   1.446  1.5207 -0.8569  0.1029
 4903TIP3   OH214649   2.500   6.558   6.085  0.4520 -0.5824  0.4290
 4903TIP3    H114650   2.574   6.498   6.093  1.8024  0.6231 -1.8899
 4903TIP3    H214651   2.443   6.518   6.019 -0.3944 -0.9416  1.3611
 4904TIP3   OH214652   7.370   5.704   0.597 -0.7732  0.1598 -0.0819
 4904TIP3    H114653   7.380   5.610   0.577  0.7462 -0.1416  1.8077
 4904TIP3    H214654   7.347   5.744   0.513 -0.2138 -1.7325 -1.1952
 4905TIP3   OH214655   3.174   1.676   6.069 -0.3710 -0.0203  0.3860
 4905TIP3    H114656   3.218   1.711   5.992  0.5224 -1.4817  0.1956
 4905TIP3    H214657   3.228   1.603   6.097 -1.9721 -1.0524  0.9536
 4906TIP3   OH214658   6.556   0.229   1.101 -0.8985  0.4284  0.2510
 4906TIP3    H114659   6.646   0.247   1.073 -1.1507  0.2565 -0.7371
 4906TIP3    H214660   6.544   0.135   1.085 -1.6892  0.7165 -1.0098
 4907TIP3   OH214661   4.382   3.298   2.230  0.0752  0.5677 -0.0981
 4907TIP3    H114662   4.304   3.284   2.284 -0.1223 -2.3772 -0.9647
 4907TIP3    H214663   4.353   3.275   2.141  2.0024 -1.2064 -0.3445
 4908TIP3   OH214664   8.122   3.505   5.934  0.0573  0.3438  0.2570
 4908TIP3    H114665   8.085   3.481   5.849  1.4058 -1.2865  0.0735
 4908TIP3    H214666   8.213   3.478   5.929  0.0586 -0.2051  2.3670
 4909TIP3   OH214667   7.776   0.617   1.359  0.6984 -0.2714  0.0694
 4909TIP3    H114668   7.719   0.665   1.419  0.1407  1.3178 -1.6323
 4909TIP3    H214669   7.732   0.534   1.344 -0.0882  0.0768  0.4065
 4910TIP3   OH214670   0.807   6.981   4.938 -0.0907  0.0400 -0.3913
 4910TIP3    H114671   0.724   7.029   4.934 -0.6267 -0.7033  1.0148
 4910TIP3    H214672   0.854   7.021   5.010  1.2339  1.0990 -1.7934
 4911TIP3   OH214673   3.879   3.761   6.747 -0.1362  0.7740  0.6539
 4911TIP3    H114674   3.793   3.728   6.719  0.2964  0.1201  0.0386
 4911TIP3    H214675   3.899   3.831   6.685  0.2176  0.2420  0.1580
 4912TIP3   OH214676   5.570   0.988   2.490 -0.2372 -0.3075 -0.3097
 4912TIP3    H114677   5.557   1.067   2.542  0.1399 -0.3300 -0.1809
 4912TIP3    H214678   5.646   0.945   2.529 -0.2248 -0.5544 -0.5969
 4913TIP3   OH214679   4.359   1.665   1.077  0.2122  0.3263 -0.6494
 4913TIP3    H114680   4.342   1.757   1.094  0.5965  0.2325  0.3289
 4913TIP3    H214681   4.281   1.620   1.108  0.4421  0.2446 -0.1834
 4914TIP3   OH214682   2.234   0.002   2.707 -0.1074 -0.0171  0.4865
 4914TIP3    H114683   2.189   0.037   2.783  0.7331 -1.5396  1.7467
 4914TIP3    H214684   2.165  -0.035   2.652 -0.8881  2.4206 -0.3252
 4915TIP3   OH214685   2.974   0.096   3.535  0.0964 -0.2501  0.1529
 4915TIP3    H114686   3.007   0.083   3.446  0.6580  1.3853  0.0900
 4915TIP3    H214687   2.906   0.163   3.526  1.1287  0.9587  1.1222
 4916TIP3   OH214688   7.642   1.740   4.620  0.7266  0.2376 -0.3023
 4916TIP3    H114689   7.626   1.645   4.622 -2.0834  0.6308 -0.0441
 4916TIP3    H214690   7.645   1.766   4.712 -1.7954  0.7829 -0.3051
 4917TIP3   OH214691   1.820   6.442   2.184 -0.4258 -0.6010  0.7472
 4917TIP3    H114692   1.732   6.405   2.176 -0.2946 -1.0762  1.4206
 4917TIP3    H214693   1.841   6.433   2.276  0.6297 -1.1848  0.4629
 4918TIP3   OH214694   2.435   6.446   3.397 -0.3490 -0.4194  0.5859
 4918TIP3    H114695   2.423   6.398   3.479 -1.1917 -0.2783  0.5577
 4918TIP3    H214696   2.418   6.537   3.420 -0.2592 -0.3360  0.3238
 4919TIP3   OH214697   6.515   0.268   4.745  0.3408  0.1543 -0.0705
 4919TIP3    H114698   6.507   0.302   4.834  1.2822 -1.9159  0.8739
 4919TIP3    H214699   6.449   0.198   4.741  0.8486 -0.2913 -0.7116
 4920TIP3   OH214700   2.855   7.938   1.657  0.3438  0.1302  0.0483
 4920TIP3    H114701   2.765   7.924   1.686  1.1882 -2.0700  1.9215
 4920TIP3    H214702   2.897   7.853   1.668  2.6904  1.1331 -0.6377
 4921TIP3   OH214703   3.871   6.642   2.533  0.1838  0.2894  0.2610
 4921TIP3    H114704   3.914   6.698   2.467  1.9512 -0.4778  0.7045
 4921TIP3    H214705   3.855   6.559   2.487  1.6713 -0.3427  0.8271
 4922TIP3   OH214706   3.145   2.188   0.415 -0.3012 -0.0997  0.6046
 4922TIP3    H114707   3.106   2.112   0.372 -1.4898  0.3830  0.7830
 4922TIP3    H214708   3.221   2.153   0.462 -0.3765 -1.0324  0.0471
 4923TIP3   OH214709   6.193   0.417   1.634  0.0316 -0.1749  0.3337
 4923TIP3    H114710   6.169   0.368   1.712 -1.3020  1.3973  0.9692
 4923TIP3    H214711   6.157   0.366   1.561 -0.9278 -0.3964  0.9409
 4924TIP3   OH214712   8.320   0.378   0.955 -0.5884 -0.7308 -0.6217
 4924TIP3    H114713   8.313   0.384   0.859 -1.6344 -0.6014 -0.5414
 4924TIP3    H214714   8.361   0.293   0.970 -2.5306 -1.7957 -1.1215
 4925TIP3   OH214715   3.442   0.194   5.377 -0.0705  0.1584  0.4191
 4925TIP3    H114716   3.434   0.286   5.399 -0.1331  0.4494 -0.7602
 4925TIP3    H214717   3.533   0.183   5.351  0.2889 -0.4194  1.7856
 4926TIP3   OH214718   4.505   0.816   3.291 -0.4434 -0.0348 -0.5509
 4926TIP3    H114719   4.530   0.796   3.201 -0.6148 -0.3579 -0.5292
 4926TIP3    H214720   4.588   0.822   3.339 -0.4057 -2.6069 -0.1579
 4927TIP3   OH214721   6.196   7.540   0.719  0.3971 -0.3366  0.0197
 4927TIP3    H114722   6.181   7.453   0.757  0.0299  0.1805  1.0733
 4927TIP3    H214723   6.217   7.522   0.627 -1.1168 -1.4616 -0.1513
 4928TIP3   OH214724   1.459   5.948   4.501 -0.1053  0.6323  0.3377
 4928TIP3    H114725   1.386   6.010   4.493  0.1463  0.8137 -0.7021
 4928TIP3    H214726   1.533   5.994   4.461 -0.3531 -1.0465 -2.2149
 4929TIP3   OH214727   1.958   3.541   1.031  0.0775 -0.2167 -0.2351
 4929TIP3    H114728   1.944   3.556   1.125 -0.5200 -0.1801 -0.3227
 4929TIP3    H214729   1.903   3.607   0.988 -2.1570 -2.1865 -0.6293
 4930TIP3   OH214730   6.950   5.674   2.542 -0.2228 -0.4554  0.0528
 4930TIP3    H114731   6.962   5.695   2.634 -0.5327 -0.8880  0.1990
 4930TIP3    H214732   7.017   5.723   2.496 -0.0281 -0.2878  0.5185
 4931TIP3   OH214733   4.624   1.580   4.850 -0.2825  0.2103  0.6087
 4931TIP3    H114734   4.612   1.485   4.846  0.2399  0.1531  0.2153
 4931TIP3    H214735   4.711   1.594   4.812 -0.0446  0.7795  1.3285
 4932TIP3   OH214736   6.030   7.597   6.156  0.0095  0.3590 -0.6649
 4932TIP3    H114737   6.086   7.656   6.106 -1.0589  0.3880 -1.8876
 4932TIP3    H214738   5.940   7.625   6.135 -0.5089  0.7837  1.7975
 4933TIP3   OH214739   6.456   2.362   3.157 -0.0869 -0.0408  1.1959
 4933TIP3    H114740   6.387   2.354   3.223 -0.4953  0.9088  0.8960
 4933TIP3    H214741   6.447   2.450   3.123 -0.2463 -0.7051 -0.5601
 4934TIP3   OH214742   7.513   4.345   2.456  0.0967  0.0366  0.5528
 4934TIP3    H114743   7.528   4.325   2.364  1.1609  0.1245  0.6998
 4934TIP3    H214744   7.472   4.266   2.491  3.1935 -1.5926  0.8627
 4935TIP3   OH214745   4.308   3.454   6.761 -0.0549 -0.1907  0.5916
 4935TIP3    H114746   4.262   3.460   6.845 -2.1268  2.6081 -0.5604
 4935TIP3    H214747   4.238   3.454   6.695  1.5192  0.7729 -1.1971
 4936TIP3   OH214748   2.749   4.364   5.681  0.4240  0.1360 -0.6809
 4936TIP3    H114749   2.778   4.420   5.753 -0.1790  2.3356 -2.0435
 4936TIP3    H214750   2.662   4.397   5.658 -0.9630 -2.8407 -0.1581
 4937TIP3   OH214751   5.076   0.821   5.875  0.2622  0.4933 -0.0377
 4937TIP3    H114752   5.059   0.731   5.849  2.6179  0.5677 -2.2730
 4937TIP3    H214753   5.129   0.815   5.954  1.2147 -0.1617 -0.7054
 4938TIP3   OH214754   5.259   1.091   0.215 -0.0584 -0.3421  0.2613
 4938TIP3    H114755   5.327   1.066   0.278 -0.4547 -1.3301  0.3060
 4938TIP3    H214756   5.239   1.182   0.238 -0.8819 -0.9697  2.2091
 4939TIP3   OH214757   3.616   7.793   5.092  0.2195 -0.5644 -0.1354
 4939TIP3    H114758   3.668   7.749   5.024  0.9482 -0.6185  0.4480
 4939TIP3    H214759   3.680   7.822   5.156 -0.4221 -0.0990  0.3055
 4940TIP3   OH214760   6.380   2.509   3.496  0.7596  0.3403  0.1606
 4940TIP3    H114761   6.348   2.460   3.572  1.2796 -0.1825  0.0535
 4940TIP3    H214762   6.471   2.481   3.486  1.0808  1.3682  0.1187
 4941TIP3   OH214763   0.113   3.140   3.581 -0.1846 -0.0177  0.5989
 4941TIP3    H114764   0.084   3.150   3.671 -1.9310  1.3879 -0.0497
 4941TIP3    H214765   0.158   3.223   3.561  2.0279 -1.1112  0.7492
 4942TIP3   OH214766   0.169   0.834   0.190 -0.2182 -0.1744  0.0730
 4942TIP3    H114767   0.143   0.743   0.177 -2.0705  0.5783 -2.3900
 4942TIP3    H214768   0.254   0.841   0.147 -0.5600 -0.5521 -0.6960
 4943TIP3   OH214769   1.211   4.636   5.622  0.3127 -0.0151 -0.8260
 4943TIP3    H114770   1.187   4.722   5.587  0.2098 -0.3176 -1.5145
 4943TIP3    H214771   1.249   4.589   5.548 -0.7115 -0.9889 -0.7635
 4944TIP3   OH214772   6.878   6.571   3.591  0.3679  0.9439  0.7075
 4944TIP3    H114773   6.827   6.491   3.607  2.3482 -0.5936 -0.1764
 4944TIP3    H214774   6.857   6.628   3.665 -0.5093 -0.7308  1.8104
 4945TIP3   OH214775   2.125   4.474   3.999 -0.3072 -0.5500  0.0842
 4945TIP3    H114776   2.198   4.474   4.062  0.7261 -1.1689 -1.0706
 4945TIP3    H214777   2.146   4.402   3.939 -0.6636  0.7429 -1.6534
 4946TIP3   OH214778   0.155   7.687   2.266  0.0413 -0.5037 -0.0658
 4946TIP3    H114779   0.177   7.732   2.185  1.6037  1.2923  1.2388
 4946TIP3    H214780   0.060   7.687   2.270 -0.0372 -0.0282 -1.5615
 4947TIP3   OH214781   1.327   1.324   2.741 -0.0283 -0.5997 -0.3312
 4947TIP3    H114782   1.335   1.373   2.822 -1.1766 -1.3993  0.3031
 4947TIP3    H214783   1.317   1.233   2.769 -0.6900 -0.8576 -1.3399
 4948TIP3   OH214784   5.773   4.561   3.938  0.5444 -0.0099 -0.3046
 4948TIP3    H114785   5.863   4.588   3.957  0.7131  0.0428 -1.1266
 4948TIP3    H214786   5.782   4.496   3.868  0.0279 -1.0124  0.5457
 4949TIP3   OH214787   4.010   0.613   0.803  0.0702 -0.3220  0.0766
 4949TIP3    H114788   4.023   0.576   0.890 -0.9493  0.4927  0.5836
 4949TIP3    H214789   4.085   0.671   0.790 -0.2256  0.2229  0.7702
 4950TIP3   OH214790   8.099   5.681   1.902 -0.0483 -0.1248  0.3065
 4950TIP3    H114791   8.031   5.654   1.840  1.1585 -1.9472 -0.2999
 4950TIP3    H214792   8.132   5.764   1.867  1.0684 -1.4299 -1.9864
 4951TIP3   OH214793   4.989   7.510   0.343  0.6191 -0.2182 -0.5319
 4951TIP3    H114794   4.935   7.539   0.270  0.9952  1.3275 -0.2330
 4951TIP3    H214795   5.067   7.565   0.339  2.5060 -2.7483 -1.2657
 4952TIP3   OH214796   1.680   3.524   2.131  0.0318 -0.0787  0.0672
 4952TIP3    H114797   1.710   3.577   2.205 -0.8305 -0.9986  1.1293
 4952TIP3    H214798   1.645   3.586   2.068  0.0979  0.6794  0.7687
 4953TIP3   OH214799   7.398   3.182   4.061  0.0901  0.6550 -0.2555
 4953TIP3    H114800   7.475   3.131   4.087 -0.8549 -0.6364  0.0731
 4953TIP3    H214801   7.402   3.260   4.117  0.7420  0.2245  0.3194
 4954TIP3   OH214802   6.294   6.411   2.185  0.4458  0.3563 -0.2512
 4954TIP3    H114803   6.368   6.450   2.139  0.9330  0.3654  0.5248
 4954TIP3    H214804   6.265   6.479   2.246 -1.1695  0.9258 -1.5516
 4955TIP3   OH214805   0.966   1.073   6.195 -0.0681 -0.3228 -0.6580
 4955TIP3    H114806   1.046   1.062   6.246  0.4161  1.1492 -1.0407
 4955TIP3    H214807   0.918   1.143   6.240  0.1978  0.7471 -1.9734
 4956TIP3   OH214808   0.984   4.717   2.573 -0.0516 -0.2289  0.1861
 4956TIP3    H114809   0.969   4.687   2.484 -0.5305  0.0663  0.1619
 4956TIP3    H214810   0.977   4.638   2.627 -1.7214 -0.1363  0.1727
 4957TIP3   OH214811   6.368   6.033   1.271 -0.9404  0.0925 -0.7121
 4957TIP3    H114812   6.411   6.115   1.246 -0.0582  0.4992  1.9099
 4957TIP3    H214813   6.440   5.972   1.286 -1.5421 -0.7627 -1.1973
 4958TIP3   OH214814   0.681   7.112   1.568  0.0299 -0.0024 -0.0470
 4958TIP3    H114815   0.724   7.168   1.632  2.2705  0.6365 -1.9800
 4958TIP3    H214816   0.630   7.050   1.620 -2.9388  3.9214  2.2602
 4959TIP3   OH214817   5.659   7.509   0.166  0.4558  0.3025  0.1123
 4959TIP3    H114818   5.710   7.525   0.087  1.2958  0.3233  0.6526
 4959TIP3    H214819   5.599   7.583   0.172 -0.8922 -0.5865 -1.4798
 4960TIP3   OH214820   4.290   6.331   3.729 -0.1118  0.2601  0.0507
 4960TIP3    H114821   4.330   6.413   3.758  0.6643 -0.1176  0.0854
 4960TIP3    H214822   4.317   6.267   3.795  0.5495 -0.3332 -0.7744
 4961TIP3   OH214823   0.491   4.364   4.495  0.2947 -0.8322 -0.2119
 4961TIP3    H114824   0.450   4.370   4.582 -0.5803 -2.8745 -0.4037
 4961TIP3    H214825   0.450   4.434   4.444  0.5359  0.1446  0.8907
 4962TIP3   OH214826   1.579   2.926   5.961  0.2093  0.3168  0.0896
 4962TIP3    H114827   1.489   2.960   5.959  0.0132 -0.1262  0.8526
 4962TIP3    H214828   1.626   2.986   6.018  0.2572  0.2279  0.1441
 4963TIP3   OH214829   6.911   2.365   3.839  0.0036  0.0769  0.2380
 4963TIP3    H114830   6.936   2.458   3.833 -0.1489  0.0496 -1.2078
 4963TIP3    H214831   6.912   2.346   3.932  2.1525  0.9639  0.4511
 4964TIP3   OH214832   7.934   2.694   6.407 -0.1735  0.1066 -0.5075
 4964TIP3    H114833   7.840   2.680   6.398 -0.1204 -1.1657  0.6104
 4964TIP3    H214834   7.960   2.638   6.480  1.6986 -0.6116 -1.6430
 4965TIP3   OH214835   5.130   7.738   0.950  0.2241 -0.1868  0.3637
 4965TIP3    H114836   5.169   7.665   0.999 -0.8904 -1.2957 -0.3253
 4965TIP3    H214837   5.105   7.801   1.017  0.0386 -1.0236  1.1100
 4966TIP3   OH214838   3.908   7.431   2.204 -0.6483  0.1737  0.4585
 4966TIP3    H114839   3.910   7.435   2.108  0.5228  0.9113  0.4939
 4966TIP3    H214840   3.949   7.347   2.225 -0.0548  0.4170  0.3166
 4967TIP3   OH214841   3.127   2.128   0.836 -0.1712  0.0772  0.1972
 4967TIP3    H114842   3.171   2.190   0.778 -1.6484  0.0032 -1.0504
 4967TIP3    H214843   3.152   2.042   0.803  0.9564 -0.0255  1.2284
 4968TIP3   OH214844   5.459   2.774   6.196 -0.0939  0.1924  0.3666
 4968TIP3    H114845   5.452   2.700   6.256  0.0307  0.8234  1.1684
 4968TIP3    H214846   5.370   2.785   6.162 -0.1276 -0.2757  0.2919
 4969TIP3   OH214847   0.041   4.681   6.603  0.4360 -0.1000  0.2396
 4969TIP3    H114848   0.057   4.587   6.612 -1.7809 -0.4275  1.6997
 4969TIP3    H214849   0.056   4.717   6.691  1.5674  0.9986 -0.3719
 4970TIP3   OH214850   4.798   7.251   2.568  0.2806  0.3150  0.1469
 4970TIP3    H114851   4.778   7.254   2.474  2.7396  1.3192 -0.4194
 4970TIP3    H214852   4.763   7.332   2.603  0.7497  0.6894 -0.2383
 4971TIP3   OH214853   6.479   2.563   4.368  0.2853 -0.6601  0.1791
 4971TIP3    H114854   6.474   2.621   4.292 -0.5042  0.9450  1.3877
 4971TIP3    H214855   6.546   2.603   4.424 -1.0654 -0.2563  1.5457
 4972TIP3   OH214856   0.424   4.110   3.753 -0.4294 -0.2831  0.2170
 4972TIP3    H114857   0.420   4.200   3.719  1.8967 -0.4838 -0.7493
 4972TIP3    H214858   0.475   4.118   3.834 -0.8233 -0.6570  0.5067
 4973TIP3   OH214859   3.409   4.071   1.833  0.0602 -0.4903  0.1894
 4973TIP3    H114860   3.374   3.983   1.815 -2.0276  0.2133  0.5828
 4973TIP3    H214861   3.493   4.054   1.875 -0.3839 -2.3139  0.4625
 4974TIP3   OH214862   4.425   6.171   2.198 -0.1000  0.0704  0.4717
 4974TIP3    H114863   4.451   6.229   2.270  0.1721 -0.8936  1.1610
 4974TIP3    H214864   4.395   6.091   2.241  1.2537 -1.0016 -0.5089
 4975TIP3   OH214865   4.832   3.208   5.997 -0.0568  0.2885 -0.2464
 4975TIP3    H114866   4.858   3.204   5.905 -1.1767 -3.1635 -0.5786
 4975TIP3    H214867   4.818   3.116   6.022  1.4672  0.9375  3.7816
 4976TIP3   OH214868   4.838   1.658   0.986  0.6073  0.0623  0.1485
 4976TIP3    H114869   4.876   1.680   0.901  2.9543 -3.7419  0.0030
 4976TIP3    H214870   4.745   1.648   0.969  0.7649  1.0906 -1.5493
 4977TIP3   OH214871   3.974   2.737   0.386  0.1301  0.1585  0.0447
 4977TIP3    H114872   4.034   2.691   0.327  0.7862  1.4047 -0.3001
 4977TIP3    H214873   3.899   2.759   0.331  0.4385  0.7182 -0.1599
 4978TIP3   OH214874   3.504   2.249   3.016 -0.1036  0.0892  0.4346
 4978TIP3    H114875   3.447   2.295   2.955  1.0147 -0.1478 -0.8441
 4978TIP3    H214876   3.564   2.316   3.048  1.2843 -0.3308 -1.1412
 4979TIP3   OH214877   1.788   4.130   6.287 -1.0524 -0.4247  0.3031
 4979TIP3    H114878   1.828   4.070   6.349 -0.9489 -0.2718  0.3834
 4979TIP3    H214879   1.783   4.214   6.333 -0.3823 -0.1467 -0.1120
 4980TIP3   OH214880   3.421   5.030   6.221 -0.4215 -0.5341 -0.2814
 4980TIP3    H114881   3.394   5.082   6.145 -1.1072  1.6781  1.3770
 4980TIP3    H214882   3.515   5.016   6.209 -0.2281  1.0462 -0.8523
 4981TIP3   OH214883   7.598   0.454   2.921  0.2622  0.3669 -0.7425
 4981TIP3    H114884   7.519   0.429   2.873 -0.7715  0.0660  1.0472
 4981TIP3    H214885   7.575   0.537   2.964  0.2763 -0.5806  1.1878
 4982TIP3   OH214886   4.081   0.833   0.588 -0.3105  0.3681  0.1239
 4982TIP3    H114887   4.109   0.756   0.540 -1.4015  0.1237 -0.1400
 4982TIP3    H214888   4.154   0.852   0.648  0.9803  0.5508 -1.4408
 4983TIP3   OH214889   3.584   3.721   0.046 -0.1771  0.1599  0.0807
 4983TIP3    H114890   3.588   3.781  -0.029 -1.2136 -0.8893 -0.8682
 4983TIP3    H214891   3.628   3.767   0.116  0.3094  1.4382 -1.0172
 4984TIP3   OH214892   8.116   6.591   0.068 -0.5958 -0.5683  0.6237
 4984TIP3    H114893   8.151   6.534   0.000 -0.5860 -0.8316  0.8496
 4984TIP3    H214894   8.115   6.537   0.147  0.4167  0.0649  1.0869
 4985TIP3   OH214895   7.395   5.454   3.695  0.2530  0.4816 -0.3765
 4985TIP3    H114896   7.402   5.401   3.615  1.6735  0.6176 -0.3747
 4985TIP3    H214897   7.367   5.392   3.762  0.1099  0.1277 -0.7602
 4986TIP3   OH214898   5.204   4.798   2.938  0.1392 -0.0126  0.5490
 4986TIP3    H114899   5.179   4.806   2.846  0.0478 -0.6354  0.5167
 4986TIP3    H214900   5.297   4.823   2.939 -0.2631  1.6526  0.5690
 4987TIP3   OH214901   1.173   3.866   5.377  0.3708 -0.2125 -0.7364
 4987TIP3    H114902   1.138   3.940   5.327 -0.4189 -0.4732 -0.5838
 4987TIP3    H214903   1.241   3.905   5.432 -1.0154  0.6892  0.4122
 4988TIP3   OH214904   8.043   7.181   0.607  0.2066  0.5560  0.6685
 4988TIP3    H114905   8.113   7.200   0.670  0.3410 -1.0680  1.0563
 4988TIP3    H214906   8.082   7.117   0.546 -0.7211  0.1497  0.4858
 4989TIP3   OH214907   5.891   1.717   2.991 -0.5876  0.1224  0.5254
 4989TIP3    H114908   5.845   1.800   2.983  1.0084  0.9663 -0.2861
 4989TIP3    H214909   5.860   1.666   2.916 -0.6408  0.4544  0.3191
 4990TIP3   OH214910   1.270   4.352   0.606 -0.2092  0.3413 -0.2989
 4990TIP3    H114911   1.223   4.409   0.666 -0.5292 -0.9115  0.6847
 4990TIP3    H214912   1.207   4.283   0.584  0.2176  0.2528 -1.3222
 4991TIP3   OH214913   6.445   1.009   2.362  0.4949  0.2141 -0.5439
 4991TIP3    H114914   6.351   0.989   2.362  0.6579 -0.6425  0.5566
 4991TIP3    H214915   6.469   1.010   2.454  1.7260 -0.3432 -0.8482
 4992TIP3   OH214916   3.532   7.468   1.136  0.1155 -0.9925  0.0589
 4992TIP3    H114917   3.476   7.394   1.114 -2.0523  0.4954  0.3271
 4992TIP3    H214918   3.567   7.447   1.223 -0.2302 -1.8128  0.0057
 4993TIP3   OH214919   2.993   3.922   5.228  0.1444 -0.5732 -0.0803
 4993TIP3    H114920   2.926   3.894   5.290 -0.1674 -0.5954 -0.4242
 4993TIP3    H214921   2.952   3.911   5.142 -0.4690  2.0422 -0.2134
 4994TIP3   OH214922   7.814   0.189   1.669  0.4727 -0.0610  0.9394
 4994TIP3    H114923   7.849   0.258   1.725  0.5158  0.7918 -0.1073
 4994TIP3    H214924   7.751   0.142   1.724 -0.5054  1.6208  1.3119
 4995TIP3   OH214925   3.572   1.853   4.279  0.1287 -0.2908 -0.4956
 4995TIP3    H114926   3.521   1.803   4.342 -1.4634  0.7576 -0.8815
 4995TIP3    H214927   3.649   1.882   4.328 -1.2834  0.8988  1.1504
 4996TIP3   OH214928   4.395   2.399   2.652 -0.4411 -0.6324 -0.5767
 4996TIP3    H114929   4.425   2.329   2.709 -0.3853 -0.9422 -0.9807
 4996TIP3    H214930   4.455   2.472   2.670 -0.5183 -0.6741 -0.1366
 4997TIP3   OH214931   1.627   5.561   2.444  0.6087 -0.2804 -0.2296
 4997TIP3    H114932   1.615   5.467   2.446  2.7849 -0.6664 -1.8857
 4997TIP3    H214933   1.608   5.589   2.534 -0.7608 -2.1502  0.1243
 4998TIP3   OH214934   1.619   0.081   2.403 -0.1771 -0.3180 -0.3555
 4998TIP3    H114935   1.709   0.049   2.395  0.0633  0.5289 -1.2219
 4998TIP3    H214936   1.608   0.099   2.496 -0.1079 -2.2612  0.0660
 4999TIP3   OH214937   7.479   7.456   5.091  0.2702 -0.2838 -0.1052
 4999TIP3    H114938   7.388   7.448   5.063  0.4222 -0.2166 -0.6490
 4999TIP3    H214939   7.518   7.516   5.026  0.6496 -0.1546  0.2394
 5000TIP3   OH214940   1.466   7.072   3.423  0.4251 -0.5101 -0.3609
 5000TIP3    H114941   1.517   7.143   3.463 -2.8005  0.3967  2.6557
 5000TIP3    H214942   1.522   6.995   3.428  2.2144  0.8126  0.9212
 5001TIP3   OH214943   0.500   6.818   3.503  0.2384 -0.0445  0.0532
 5001TIP3    H114944   0.550   6.760   3.561  2.2875  2.8195  1.3490
 5001TIP3    H214945   0.434   6.857   3.560  0.0602  0.2704 -0.3673
 5002TIP3   OH214946   6.544   4.099   3.258  0.4266  0.4295  0.2817
 5002TIP3    H114947   6.504   4.038   3.320  0.8775 -2.0731 -1.7384
 5002TIP3    H214948   6.494   4.180   3.269 -2.0640 -1.1129  1.2111
 5003TIP3   OH214949   0.117   7.270   2.758  0.1164  0.2045 -0.6103
 5003TIP3    H114950   0.186   7.227   2.706 -1.7074 -0.5647 -2.5220
 5003TIP3    H214951   0.036   7.227   2.731 -1.1060  0.6570  2.0267
 5004TIP3   OH214952   2.218   5.244   2.702 -0.0840  1.0123  0.4415
 5004TIP3    H114953   2.176   5.303   2.765  0.3288  0.6968  1.0202
 5004TIP3    H214954   2.298   5.216   2.745  0.2707  0.8877 -0.2833
 5005TIP3   OH214955   7.389   1.856   0.235  0.0297 -0.5501 -0.5434
 5005TIP3    H114956   7.476   1.829   0.263  0.1333  0.2514 -0.0517
 5005TIP3    H214957   7.330   1.819   0.300  0.1718  0.3654  0.1295
 5006TIP3   OH214958   8.313   3.282   0.737 -0.1578 -0.1533  0.3277
 5006TIP3    H114959   8.392   3.322   0.773 -0.2026 -0.6440  1.0053
 5006TIP3    H214960   8.345   3.215   0.676 -0.0510 -0.2584  0.4983
 5007TIP3   OH214961   5.919   1.611   2.724  0.2104 -0.2472  0.1159
 5007TIP3    H114962   5.986   1.559   2.678  1.2952  0.7303  0.5368
 5007TIP3    H214963   5.969   1.677   2.772 -0.9452 -0.5607  1.8472
 5008TIP3   OH214964   0.829   4.989   2.013  0.1752 -0.0350  0.4944
 5008TIP3    H114965   0.770   4.947   1.950  1.4346 -0.3932 -0.4834
 5008TIP3    H214966   0.869   5.061   1.963 -1.4222  1.9659  1.9329
 5009TIP3   OH214967   6.076   6.592   1.186 -0.2611 -0.1306  0.0161
 5009TIP3    H114968   6.139   6.655   1.222  0.9016 -0.3190 -1.5598
 5009TIP3    H214969   6.090   6.597   1.091 -0.7021 -2.1887 -0.1893
 5010TIP3   OH214970   7.661   4.126   0.014 -0.1940 -0.3382 -0.1197
 5010TIP3    H114971   7.595   4.131   0.084 -0.2905 -1.5989 -0.0991
 5010TIP3    H214972   7.610   4.122  -0.067 -0.0757  1.8236 -0.3598
 5011TIP3   OH214973   3.718   0.788   0.783  0.1482 -0.0398  0.0324
 5011TIP3    H114974   3.721   0.780   0.878  1.7615  0.4185  0.0404
 5011TIP3    H214975   3.733   0.700   0.750 -1.7253 -0.4525  0.1739
 5012TIP3   OH214976   1.469   6.068   6.313  0.1159 -0.1755 -0.5942
 5012TIP3    H114977   1.400   6.048   6.250  0.1172  0.8477 -0.9534
 5012TIP3    H214978   1.537   6.004   6.296  0.1048  0.0643 -1.6393
 5013TIP3   OH214979   1.477   3.753   6.649 -0.0520 -0.0579 -0.1192
 5013TIP3    H114980   1.507   3.683   6.707  1.3908 -0.5310 -1.3584
 5013TIP3    H214981   1.463   3.710   6.565 -0.9512  0.8181 -0.4297
 5014TIP3   OH214982   1.736   4.262   1.533  0.3986 -0.0911  0.7211
 5014TIP3    H114983   1.703   4.175   1.515  0.0897 -0.1775  1.6398
 5014TIP3    H214984   1.823   4.247   1.572  0.5186  0.0329  0.5070
 5015TIP3   OH214985   2.022   5.034   5.348 -0.7662  0.6188  0.0996
 5015TIP3    H114986   1.980   5.065   5.427  1.4525 -0.5375  1.8426
 5015TIP3    H214987   2.012   4.939   5.351  0.6032  0.4434 -0.2180
 5016TIP3   OH214988   6.916   2.623   4.700 -0.3933 -0.2538 -0.4548
 5016TIP3    H114989   6.954   2.549   4.748 -1.6486 -2.0140 -2.0236
 5016TIP3    H214990   6.987   2.654   4.644 -0.0034 -0.6504 -0.1884
 5017TIP3   OH214991   5.588   1.589   6.429 -0.6828  0.2258  0.2878
 5017TIP3    H114992   5.593   1.601   6.524 -0.2164  0.6743  0.2160
 5017TIP3    H214993   5.516   1.646   6.402  0.7774  2.0801  0.0912
 5018TIP3   OH214994   8.401   2.860   6.496  0.4795  0.6853  0.5207
 5018TIP3    H114995   8.339   2.918   6.540  0.6825  0.7677  0.6999
 5018TIP3    H214996   8.358   2.835   6.415 -0.6029 -0.7644  1.4954
 5019TIP3   OH214997   0.231   2.438   6.035  0.3234 -0.1874  0.5384
 5019TIP3    H114998   0.181   2.363   6.067 -0.3759  0.6640  1.5205
 5019TIP3    H214999   0.322   2.419   6.058  0.2698 -1.0831  0.0508
 5020TIP3   OH215000   2.218   0.688   2.623 -0.4151  0.1397 -0.2842
 5020TIP3    H115001   2.148   0.754   2.629  0.6607  1.2053  1.0339
 5020TIP3    H215002   2.294   0.736   2.591 -0.1087 -0.9011 -1.1961
 5021TIP3   OH215003   0.497   3.965   4.575 -0.3280  0.1262  0.2494
 5021TIP3    H115004   0.537   4.021   4.641  0.2523 -1.6044  1.4432
 5021TIP3    H215005   0.532   3.997   4.492 -0.3654  1.7730  0.8288
 5022TIP3   OH215006   3.575   3.025   4.497  0.2438 -0.2345 -0.5645
 5022TIP3    H115007   3.634   2.951   4.483  0.7875  0.1880 -0.5327
 5022TIP3    H215008   3.625   3.101   4.468 -0.4130  0.0925 -0.8590
 5023TIP3   OH215009   4.446   2.972   5.371  0.5458 -0.1694  0.8235
 5023TIP3    H115010   4.364   2.925   5.386  0.0597  0.8268  1.4221
 5023TIP3    H215011   4.486   2.979   5.458  0.0492  1.4885  0.9592
 5024TIP3   OH215012   1.739   5.885   2.470  0.1757 -0.1051 -0.1541
 5024TIP3    H115013   1.705   5.820   2.408 -0.9384 -0.7574  1.0832
 5024TIP3    H215014   1.806   5.932   2.421 -0.4436 -0.8013 -1.7528
 5025TIP3   OH215015   8.045   1.051   4.457  0.1498 -0.5289  0.1605
 5025TIP3    H115016   8.033   1.012   4.370 -0.8378 -2.0255  0.9380
 5025TIP3    H215017   8.010   0.986   4.518  1.2364  0.2914  1.7312
 5026TIP3   OH215018   5.362   5.022   2.547  0.3823  0.1260  0.1217
 5026TIP3    H115019   5.395   5.070   2.623 -1.3103  0.6412  0.5624
 5026TIP3    H215020   5.267   5.032   2.551  0.1639 -1.0368 -1.2795
 5027TIP3   OH215021   3.616   4.783   1.319  0.0621 -0.3896 -0.0099
 5027TIP3    H115022   3.651   4.773   1.408  0.8760  0.1450 -0.2572
 5027TIP3    H215023   3.672   4.728   1.264  0.3319  0.2337 -0.3676
 5028TIP3   OH215024   5.587   3.340   4.307  0.2538 -0.3930  0.5566
 5028TIP3    H115025   5.549   3.311   4.224  0.5740  1.6600 -0.3580
 5028TIP3    H215026   5.626   3.261   4.344 -0.4111 -1.4730 -0.9492
 5029TIP3   OH215027   6.145   4.742   6.170  0.0102 -0.1072 -0.1294
 5029TIP3    H115028   6.092   4.742   6.090 -0.8612 -0.7520  0.4257
 5029TIP3    H215029   6.139   4.831   6.204 -0.0562  0.0299 -0.5035
 5030TIP3   OH215030   2.342   7.300   1.025 -0.1177 -0.0524  0.0005
 5030TIP3    H115031   2.381   7.225   0.980 -0.7310 -0.6670  0.4655
 5030TIP3    H215032   2.260   7.265   1.062 -1.4449  1.3537 -1.4886
 5031TIP3   OH215033   5.587   1.264   6.796  0.4241 -0.1640  0.9179
 5031TIP3    H115034   5.610   1.181   6.839  0.9624  0.0942  1.1352
 5031TIP3    H215035   5.509   1.295   6.843 -0.0943 -0.7992  0.4974
 5032TIP3   OH215036   1.220   7.294   6.405  0.9444  0.5863  0.1252
 5032TIP3    H115037   1.270   7.311   6.485  0.5494 -0.3417  0.5912
 5032TIP3    H215038   1.229   7.199   6.392 -0.1579  0.5075 -0.1322
 5033TIP3   OH215039   4.451   7.028   5.488  0.1010  0.0357  0.1154
 5033TIP3    H115040   4.396   6.950   5.490 -1.1867  0.9303  0.4801
 5033TIP3    H215041   4.481   7.039   5.579 -2.2096  1.6453  0.7624
 5034TIP3   OH215042   5.663   1.979   1.603 -0.0863 -0.7266 -0.5225
 5034TIP3    H115043   5.704   1.900   1.636 -0.1783 -0.5139  0.1110
 5034TIP3    H215044   5.733   2.024   1.555  0.5607 -0.1465  0.9259
 5035TIP3   OH215045   5.569   5.315   1.153  0.0002 -0.1134 -0.5495
 5035TIP3    H115046   5.509   5.349   1.086  0.0507 -1.9436 -1.5799
 5035TIP3    H215047   5.630   5.260   1.104  1.7918  0.7371  0.6492
 5036TIP3   OH215048   2.773   7.482   2.232 -0.4418 -0.7563  0.3896
 5036TIP3    H115049   2.708   7.498   2.164 -0.1366 -0.0292  0.2559
 5036TIP3    H215050   2.808   7.395   2.211 -0.0890 -0.3913 -0.6114
 5037TIP3   OH215051   4.776   3.378   6.769 -0.0694 -0.0931 -0.5734
 5037TIP3    H115052   4.857   3.420   6.742 -1.5440  3.3151 -0.2453
 5037TIP3    H215053   4.735   3.350   6.687  0.9565 -0.9586 -0.8088
 5038TIP3   OH215054   1.554   5.770   0.849  1.0263  0.2616 -0.7297
 5038TIP3    H115055   1.645   5.800   0.846  0.2248  2.9159 -0.9786
 5038TIP3    H215056   1.518   5.794   0.764 -0.4807  1.3541  0.1689
 5039TIP3   OH215057   1.817   3.360   3.912 -0.1169  0.3920  0.0962
 5039TIP3    H115058   1.744   3.309   3.877  0.3331 -0.2954  0.1432
 5039TIP3    H215059   1.807   3.354   4.007  0.6657 -0.7163  0.1311
 5040TIP3   OH215060   7.218   2.252   4.737 -0.3150  0.3145 -0.3034
 5040TIP3    H115061   7.263   2.280   4.657 -0.3995  0.8017 -0.1814
 5040TIP3    H215062   7.276   2.187   4.776 -0.8384 -0.8715 -1.4044
 5041TIP3   OH215063   1.914   5.048   5.601  0.1178 -0.1304 -0.0195
 5041TIP3    H115064   1.905   5.142   5.613 -0.1288 -0.0958 -0.4695
 5041TIP3    H215065   1.856   5.009   5.667 -1.5644  0.0611 -1.3267
 5042TIP3   OH215066   2.179   7.027   4.586  0.1092  0.2745  0.3063
 5042TIP3    H115067   2.191   7.050   4.493 -0.1776 -0.9165 -0.0472
 5042TIP3    H215068   2.085   7.015   4.596  0.1814 -0.0249  0.6384
 5043TIP3   OH215069   7.766   0.165   4.686 -0.0095  0.3988 -0.2231
 5043TIP3    H115070   7.788   0.241   4.740 -0.8042  0.5203 -0.0588
 5043TIP3    H215071   7.782   0.090   4.742  0.0357  0.4800 -0.1276
 5044TIP3   OH215072   0.301   5.443   0.242  0.4737  0.1558 -0.1811
 5044TIP3    H115073   0.314   5.426   0.149  1.2887 -0.1011 -0.0307
 5044TIP3    H215074   0.381   5.487   0.270 -0.3228  1.4652  0.1162
 5045TIP3   OH215075   7.858   2.257   5.847  0.1068  0.2201  0.5962
 5045TIP3    H115076   7.923   2.266   5.778 -0.7820 -2.4697 -0.7465
 5045TIP3    H215077   7.814   2.342   5.851  1.7929  1.1805 -0.4225
 5046TIP3   OH215078   2.583   6.621   2.997 -0.3683 -0.1203 -0.0314
 5046TIP3    H115079   2.577   6.650   3.087 -1.4896  1.2163 -0.4928
 5046TIP3    H215080   2.507   6.562   2.986 -0.0977 -0.4710 -0.0482
 5047TIP3   OH215081   2.745   1.493   2.560 -0.3786  0.0515 -0.0447
 5047TIP3    H115082   2.835   1.476   2.533 -0.1386  2.3173 -0.8832
 5047TIP3    H215083   2.754   1.550   2.637 -1.0633  0.4612 -0.2552
 5048TIP3   OH215084   2.252   1.640   6.579  0.1372 -0.3330  0.2179
 5048TIP3    H115085   2.201   1.559   6.576  1.0888 -1.0096  1.3377
 5048TIP3    H215086   2.320   1.623   6.644  1.0837  0.9581 -0.3873
 5049TIP3   OH215087   1.654   3.211   3.756 -0.2009  0.0583  0.4148
 5049TIP3    H115088   1.650   3.300   3.722  0.2639 -0.7939 -2.0783
 5049TIP3    H215089   1.683   3.158   3.681  1.7700 -1.8800  2.3934
 5050TIP3   OH215090   6.369   4.179   4.101  0.5428 -0.6390  0.0378
 5050TIP3    H115091   6.425   4.165   4.025  1.2937  0.0505  0.4450
 5050TIP3    H215092   6.329   4.265   4.086 -0.2013 -1.0010 -0.1144
 5051TIP3   OH215093   1.540   5.182   1.720  0.0490 -0.0204  0.3194
 5051TIP3    H115094   1.558   5.107   1.776 -0.9509 -0.3099  0.2722
 5051TIP3    H215095   1.444   5.189   1.719  0.1242  1.4283  0.5498
 5052TIP3   OH215096   3.623   6.954   3.359 -0.0980 -0.2980 -0.8946
 5052TIP3    H115097   3.681   6.881   3.378 -0.7226 -0.7954 -0.8557
 5052TIP3    H215098   3.535   6.919   3.374 -0.3817  1.5212  3.2314
 5053TIP3   OH215099   6.016   0.132   1.129 -0.4610  0.1280 -0.2501
 5053TIP3    H115100   5.988   0.072   1.198  1.6182  0.3905  0.9018
 5053TIP3    H215101   6.103   0.101   1.104 -0.1705  1.4864 -1.0351
 5054TIP3   OH215102   2.307   0.674   1.634  0.0970  0.0562 -0.2434
 5054TIP3    H115103   2.397   0.694   1.659  0.0172 -0.5021  0.5480
 5054TIP3    H215104   2.268   0.759   1.614  0.3796  0.4749  0.8921
 5055TIP3   OH215105   0.708   6.279   1.760  0.3102 -0.5391  0.3048
 5055TIP3    H115106   0.615   6.294   1.779  0.0427 -0.6362 -0.8659
 5055TIP3    H215107   0.732   6.205   1.817 -0.6361 -1.2608 -0.2047
 5056TIP3   OH215108   5.996   6.795   2.312  0.3109 -0.2786 -0.3635
 5056TIP3    H115109   5.922   6.739   2.290 -0.6049  1.0832 -0.8867
 5056TIP3    H215110   5.957   6.882   2.323  1.6067  0.1772  0.8991
 5057TIP3   OH215111   6.697   1.958   1.050 -0.3288 -0.2327  0.2795
 5057TIP3    H115112   6.743   2.040   1.034 -0.9041  0.7227  3.0964
 5057TIP3    H215113   6.679   1.923   0.962  1.0163  2.0030 -0.9602
 5058TIP3   OH215114   0.293   6.269   0.536 -0.4868  0.3270  0.4921
 5058TIP3    H115115   0.301   6.364   0.534  0.1761  0.2886  0.9612
 5058TIP3    H215116   0.214   6.250   0.485  0.7528  0.9677 -1.8372
 5059TIP3   OH215117   5.991   4.852  -0.004 -0.7092  0.8865  0.3383
 5059TIP3    H115118   5.987   4.843   0.092 -0.5779  0.5624  0.3140
 5059TIP3    H215119   5.950   4.937  -0.021  0.2938  1.4817  0.7746
 5060TIP3   OH215120   1.848   0.820   0.365  0.2779 -0.0642  0.3279
 5060TIP3    H115121   1.772   0.798   0.312  0.1351 -0.3191  0.6362
 5060TIP3    H215122   1.869   0.739   0.412 -1.5972  0.9775  3.1795
 5061TIP3   OH215123   4.337   6.330   6.281  0.4291 -0.1968 -0.1356
 5061TIP3    H115124   4.368   6.264   6.343 -0.7301  0.2149  0.9274
 5061TIP3    H215125   4.275   6.284   6.225  1.2803 -0.5078 -0.8393
 5062TIP3   OH215126   1.585   4.222   5.728 -0.3428 -0.5638 -0.5180
 5062TIP3    H115127   1.631   4.224   5.644  1.5625  1.0978  0.5012
 5062TIP3    H215128   1.581   4.313   5.755 -1.7642 -0.9817  0.7902
 5063TIP3   OH215129   4.684   6.034   3.841 -0.5063 -0.3446  0.1691
 5063TIP3    H115130   4.764   6.037   3.789 -0.0246 -1.9001  0.7677
 5063TIP3    H215131   4.706   6.080   3.922 -1.1050  1.6327 -0.7002
 5064TIP3   OH215132   2.425   0.637   3.884 -0.4152  0.0363 -0.3758
 5064TIP3    H115133   2.457   0.547   3.883  0.2287  0.2586 -1.1865
 5064TIP3    H215134   2.383   0.648   3.798 -0.5668  0.4777 -0.2447
 5065TIP3   OH215135   8.194   3.060   3.239  0.3677  0.7418 -0.2296
 5065TIP3    H115136   8.213   3.087   3.329  0.8401  0.3185 -0.1994
 5065TIP3    H215137   8.280   3.050   3.198  0.1572  1.3252 -0.8544
 5066TIP3   OH215138   6.305   5.648   5.990 -0.1554 -0.3387  0.5210
 5066TIP3    H115139   6.359   5.726   5.979 -0.5291 -0.3252 -1.5161
 5066TIP3    H215140   6.266   5.658   6.077 -0.3873  1.8543  0.2112
 5067TIP3   OH215141   5.923   1.775   0.069  0.0004  0.4276 -0.4601
 5067TIP3    H115142   5.972   1.823   0.002  0.5497 -0.1195 -0.4602
 5067TIP3    H215143   5.866   1.841   0.109  2.2408  1.6163  0.9816
 5068TIP3   OH215144   7.332   1.568   4.912 -0.2513 -0.2390  0.0613
 5068TIP3    H115145   7.340   1.634   4.981 -0.1984 -0.3371  0.1499
 5068TIP3    H215146   7.397   1.501   4.936 -0.3677 -0.3656  0.0217
 5069TIP3   OH215147   1.326   1.049   3.436  0.2750  0.0949  0.2527
 5069TIP3    H115148   1.319   0.957   3.412  1.6678 -0.1054  0.5623
 5069TIP3    H215149   1.278   1.096   3.367 -0.8684 -0.8696  0.3568
 5070TIP3   OH215150   5.228   7.091   1.845 -0.6662  0.2611 -0.1879
 5070TIP3    H115151   5.299   7.140   1.804 -0.1422  0.3878  0.8242
 5070TIP3    H215152   5.176   7.158   1.890  0.7317 -0.1345  2.2148
 5071TIP3   OH215153   4.845   0.526   1.095 -0.0892 -0.0207 -0.2209
 5071TIP3    H115154   4.837   0.558   1.005 -1.2054  1.1515  0.2467
 5071TIP3    H215155   4.928   0.479   1.097  0.1853  0.3353 -1.7336
 5072TIP3   OH215156   1.212   2.815   1.658  0.5310  0.4770 -0.0341
 5072TIP3    H115157   1.131   2.851   1.695 -0.6068 -1.5455 -0.4026
 5072TIP3    H215158   1.188   2.790   1.569  1.6742  0.1399 -0.2583
 5073TIP3   OH215159   2.689   6.647   5.642  0.0622 -0.2929  0.0853
 5073TIP3    H115160   2.602   6.688   5.646 -0.2386 -1.0026  1.0598
 5073TIP3    H215161   2.686   6.577   5.707  1.4978 -0.0777  0.4184
 5074TIP3   OH215162   4.154   0.091   1.211 -0.9487  0.7132  0.6284
 5074TIP3    H115163   4.144   0.016   1.270 -1.4588  0.2524 -0.0338
 5074TIP3    H215164   4.115   0.164   1.259 -0.6877  0.5108  1.1671
 5075TIP3   OH215165   5.133   4.355   0.558 -0.4167  0.1471  0.2918
 5075TIP3    H115166   5.127   4.406   0.639  1.9859  1.0153  0.0130
 5075TIP3    H215167   5.090   4.410   0.492 -1.6472 -0.1895  0.7922
 5076TIP3   OH215168   5.283   7.815   6.445  0.3008 -0.3805 -0.4944
 5076TIP3    H115169   5.228   7.769   6.509 -0.1503 -0.6702 -1.0722
 5076TIP3    H215170   5.371   7.810   6.481 -0.0336  0.0479  0.4337
 5077TIP3   OH215171   6.007   0.111   6.756  0.2598 -0.5780  0.3136
 5077TIP3    H115172   5.975   0.201   6.761  1.0378 -0.3242  1.1653
 5077TIP3    H215173   6.064   0.110   6.679  0.7220 -0.1749  0.6454
 5078TIP3   OH215174   0.295   1.266   3.511 -0.1339  0.0473  0.2351
 5078TIP3    H115175   0.223   1.203   3.512 -0.9719  0.9434 -1.1561
 5078TIP3    H215176   0.372   1.214   3.486 -0.9657 -0.3265 -1.7002
 5079TIP3   OH215177   5.499   2.019   1.812 -0.0807 -0.9328 -0.2647
 5079TIP3    H115178   5.550   1.979   1.742 -0.0132 -3.2629  1.0253
 5079TIP3    H215179   5.564   2.044   1.878 -0.1996  0.6790 -0.7190
 5080TIP3   OH215180   1.449   0.413   2.352 -0.8006 -0.0035  1.2795
 5080TIP3    H115181   1.424   0.483   2.292  0.5842 -1.2910 -0.9466
 5080TIP3    H215182   1.369   0.361   2.363 -0.7484 -0.6421 -0.8324
 5081TIP3   OH215183   6.917   1.321   2.505 -0.7311 -0.3141  0.3670
 5081TIP3    H115184   6.936   1.413   2.484 -2.0365 -0.1227 -0.0883
 5081TIP3    H215185   6.961   1.271   2.436  0.3448 -0.0794  0.8571
 5082TIP3   OH215186   3.411   5.583   3.177  0.1007  0.2636 -0.2860
 5082TIP3    H115187   3.447   5.565   3.264 -0.7507  0.6685  0.1672
 5082TIP3    H215188   3.364   5.503   3.153  1.2859 -0.2690 -0.8829
 5083TIP3   OH215189   3.616   6.018   0.119  0.2620 -1.0877 -0.2293
 5083TIP3    H115190   3.616   5.965   0.039  1.4643 -1.6548  0.1283
 5083TIP3    H215191   3.523   6.029   0.139 -0.0414 -2.2651 -0.8473
 5084TIP3   OH215192   4.257   3.139   3.223 -0.5365 -0.7273 -0.8222
 5084TIP3    H115193   4.265   3.185   3.307  0.5634  1.4061 -2.0248
 5084TIP3    H215194   4.334   3.082   3.220 -0.2553 -0.3577 -0.6566
 5085TIP3   OH215195   2.070   1.310   3.847  0.0837  0.6788 -0.4383
 5085TIP3    H115196   2.064   1.313   3.752  4.8997 -0.1947 -1.0034
 5085TIP3    H215197   2.162   1.330   3.866 -0.7461  1.2373  4.0994
 5086TIP3   OH215198   4.070   3.559   2.277  0.2572 -0.0296 -0.1878
 5086TIP3    H115199   4.025   3.601   2.203 -0.2591  1.2668  0.8258
 5086TIP3    H215200   4.029   3.597   2.355  2.4793  0.5361  0.7875
 5087TIP3   OH215201   6.898   7.334   0.545  0.5783 -0.4086  0.1560
 5087TIP3    H115202   6.851   7.253   0.565 -0.0492  0.1773  1.1447
 5087TIP3    H215203   6.868   7.397   0.611  1.9069  0.3173  0.1227
 5088TIP3   OH215204   1.866   3.852   1.377 -0.3132 -0.2129  0.2880
 5088TIP3    H115205   1.930   3.844   1.448 -1.0484 -3.4065  0.7775
 5088TIP3    H215206   1.809   3.775   1.388 -0.7254 -0.6400 -3.4952
 5089TIP3   OH215207   0.395   7.624   3.022  0.7760 -0.3894 -0.1853
 5089TIP3    H115208   0.321   7.564   3.016 -0.2365  0.9106 -1.3883
 5089TIP3    H215209   0.436   7.604   3.106 -0.9815 -1.0830  0.5471
 5090TIP3   OH215210   6.734   1.677   2.224 -0.3203  0.4433 -0.4561
 5090TIP3    H115211   6.657   1.705   2.174 -0.0139  0.4886 -0.9085
 5090TIP3    H215212   6.707   1.597   2.267 -0.2636 -0.1831 -1.5448
 5091TIP3   OH215213   4.473   3.215   5.279 -0.0353 -0.2509 -0.4653
 5091TIP3    H115214   4.449   3.195   5.189 -4.9405  2.4142 -0.0884
 5091TIP3    H215215   4.460   3.132   5.326  0.6528 -1.1899 -1.8640
 5092TIP3   OH215216   6.366   7.164   5.833 -0.2450  0.4857  0.1868
 5092TIP3    H115217   6.285   7.214   5.844 -1.6934 -1.8732  0.9281
 5092TIP3    H215218   6.353   7.114   5.753  0.3894 -0.0898  0.4316
 5093TIP3   OH215219   7.951   1.590   6.187  0.6928 -0.4073  0.1476
 5093TIP3    H115220   8.030   1.548   6.219 -0.7715 -1.1965  3.1347
 5093TIP3    H215221   7.880   1.533   6.215 -1.0820  1.4480 -0.2921
 5094TIP3   OH215222   0.997   7.525   5.430  0.0340 -0.0517  0.2323
 5094TIP3    H115223   0.913   7.508   5.470 -1.6346  3.4210 -1.3338
 5094TIP3    H215224   1.004   7.621   5.429  2.9836 -0.1551 -1.6613
 5095TIP3   OH215225   5.288   4.846   0.085  0.1993  0.1084 -0.4249
 5095TIP3    H115226   5.223   4.914   0.066 -0.1574 -0.2953 -0.6676
 5095TIP3    H215227   5.268   4.775   0.024 -0.7247 -1.0472  1.1097
 5096TIP3   OH215228   0.565   3.539   5.747 -0.3902 -0.4637  0.1540
 5096TIP3    H115229   0.559   3.627   5.784 -0.9600 -0.9815  1.3317
 5096TIP3    H215230   0.639   3.544   5.686 -0.3448  0.7940  0.2848
 5097TIP3   OH215231   0.669   0.867   3.625  0.4360 -0.5344 -0.2887
 5097TIP3    H115232   0.759   0.883   3.651 -0.2972  1.0711  1.5068
 5097TIP3    H215233   0.628   0.953   3.625 -1.3965 -1.3472  0.1256
 5098TIP3   OH215234   6.025   3.935   6.701  0.2695 -0.0851  0.0993
 5098TIP3    H115235   6.035   4.011   6.642  1.6022  0.7083  1.3005
 5098TIP3    H215236   5.952   3.960   6.758 -0.9644 -0.8166 -1.0885
 5099TIP3   OH215237   6.765   4.190   4.685 -0.6486  0.0820 -0.4262
 5099TIP3    H115238   6.689   4.240   4.655 -2.0509 -0.1861  2.3236
 5099TIP3    H215239   6.727   4.117   4.735  1.3924 -0.1237  0.9543
 5100TIP3   OH215240   4.804   7.211   6.491  0.1735 -0.4468  0.0557
 5100TIP3    H115241   4.811   7.225   6.396  0.1514 -1.0137 -0.0364
 5100TIP3    H215242   4.712   7.190   6.505  0.4537 -1.8374 -0.0212
 5101TIP3   OH215243   0.591   3.476   4.494 -0.1891  0.1141  0.1230
 5101TIP3    H115244   0.674   3.481   4.541  0.7463  0.4755 -1.5176
 5101TIP3    H215245   0.543   3.554   4.522  0.5508  0.5782  0.1006
 5102TIP3   OH215246   4.073   0.900   2.370  0.0922  0.3408 -0.3258
 5102TIP3    H115247   4.076   0.987   2.330  2.2008  0.2658 -0.4439
 5102TIP3    H215248   4.041   0.915   2.459 -1.4057  0.9498 -0.9389
 5103TIP3   OH215249   7.738   4.933   6.055 -0.6215  0.0049 -0.3394
 5103TIP3    H115250   7.832   4.948   6.047 -0.2658 -1.4710  0.6269
 5103TIP3    H215251   7.706   5.003   6.111  0.1211 -0.1156  0.2498
 5104TIP3   OH215252   7.133   0.748   2.463  0.0037  0.0927  0.7841
 5104TIP3    H115253   7.127   0.658   2.494 -0.4968 -0.8168 -1.6549
 5104TIP3    H215254   7.217   0.752   2.418  0.1388  0.9245  1.0960
 5105TIP3   OH215255   4.126   5.517   0.992  0.3577  0.1484  0.5214
 5105TIP3    H115256   4.215   5.544   1.014  1.7652 -2.5715 -1.2997
 5105TIP3    H215257   4.091   5.480   1.073  1.3632  0.0767  0.9271
 5106TIP3   OH215258   6.266   3.345   3.982  0.0432 -0.0086  0.1679
 5106TIP3    H115259   6.312   3.290   4.046  0.8488 -0.0617 -0.4531
 5106TIP3    H215260   6.218   3.408   4.036  1.0093  0.1935  0.8172
 5107TIP3   OH215261   1.840   7.126   6.625 -0.2417  0.2175 -0.0385
 5107TIP3    H115262   1.750   7.096   6.607  0.3123 -1.0799 -0.7418
 5107TIP3    H215263   1.877   7.141   6.538  0.2320  0.7943  0.2545
 5108TIP3   OH215264   5.372   4.430   4.130  0.2357 -0.1874  0.6123
 5108TIP3    H115265   5.374   4.335   4.137  1.2153 -0.4357 -1.9623
 5108TIP3    H215266   5.368   4.461   4.221 -0.0496 -2.6436  1.5108
 5109TIP3   OH215267   7.403   5.417   0.574 -0.2485 -0.1863 -0.0248
 5109TIP3    H115268   7.339   5.353   0.605 -0.3829  0.1010  0.2918
 5109TIP3    H215269   7.446   5.448   0.653  1.9887 -2.1329 -0.3748
 5110TIP3   OH215270   5.387   1.587   1.465 -0.3570 -0.1222  0.1857
 5110TIP3    H115271   5.312   1.534   1.441 -0.2286 -0.4370  0.4765
 5110TIP3    H215272   5.396   1.575   1.559 -1.8303  2.3499  0.7349
 5111TIP3   OH215273   1.640   0.846   1.187 -0.1817  0.3621  0.2197
 5111TIP3    H115274   1.563   0.825   1.135 -1.4234 -0.1757  2.1574
 5111TIP3    H215275   1.629   0.939   1.209 -0.1665  0.3434  0.3079
 5112TIP3   OH215276   6.424   4.404   2.463  0.2137  0.3654  0.0161
 5112TIP3    H115277   6.367   4.366   2.530  0.9165 -0.5615  0.1027
 5112TIP3    H215278   6.477   4.331   2.432  0.7790  1.0452 -0.6558
 5113TIP3   OH215279   5.779   5.124   4.899  0.3971  0.1345  0.2433
 5113TIP3    H115280   5.731   5.092   4.975  0.6527  1.5533  1.0463
 5113TIP3    H215281   5.839   5.053   4.876  0.1597 -0.4055  1.2407
 5114TIP3   OH215282   4.306   4.134   5.498 -0.4289  0.3499 -0.2136
 5114TIP3    H115283   4.229   4.156   5.446 -1.4225 -0.5348  0.8126
 5114TIP3    H215284   4.321   4.212   5.553  0.9835  1.5198 -2.1467
 5115TIP3   OH215285   1.154   3.332   2.019  0.0326 -0.0171  0.0458
 5115TIP3    H115286   1.132   3.421   2.048  0.0553 -0.3434  1.1015
 5115TIP3    H215287   1.107   3.322   1.936 -1.5327  0.3164  0.8481
 5116TIP3   OH215288   5.178   1.040   6.883  0.0240 -0.6949 -0.0353
 5116TIP3    H115289   5.126   1.079   6.813  1.4933  1.2578 -0.1081
 5116TIP3    H215290   5.258   1.010   6.840  0.1822 -1.1101  0.5329
 5117TIP3   OH215291   3.670   6.463   2.376  0.2500 -0.2457 -0.1523
 5117TIP3    H115292   3.687   6.509   2.295  0.3980  0.0645  0.0527
 5117TIP3    H215293   3.663   6.371   2.351 -0.6553 -0.0518 -0.6516
 5118TIP3   OH215294   8.249   1.543   2.475  0.1617  0.2045  0.0157
 5118TIP3    H115295   8.284   1.473   2.529  2.5648  0.0173 -1.6216
 5118TIP3    H215296   8.209   1.497   2.400 -1.4561  0.5141  0.6545
 5119TIP3   OH215297   3.163   0.682   2.746 -0.1130 -0.2804  0.2703
 5119TIP3    H115298   3.179   0.770   2.711 -1.2829 -0.0978  0.1531
 5119TIP3    H215299   3.110   0.697   2.824  1.9522 -0.7209  1.8604
 5120TIP3   OH215300   3.179   6.853   5.493 -0.0928  0.2999  0.1568
 5120TIP3    H115301   3.139   6.855   5.406  0.6699  1.3561 -0.1905
 5120TIP3    H215302   3.193   6.760   5.511  0.1448  0.0874 -1.0536
 5121TIP3   OH215303   1.465   0.057   4.581  0.2250  0.1443 -0.0835
 5121TIP3    H115304   1.441   0.119   4.512 -0.4203  0.4916  0.4453
 5121TIP3    H215305   1.434  -0.028   4.549 -1.4802  0.5351  0.4412
 5122TIP3   OH215306   2.590   1.362   6.139  0.2264 -0.0471 -0.2933
 5122TIP3    H115307   2.642   1.374   6.219  0.5406  0.3082 -0.5487
 5122TIP3    H215308   2.500   1.381   6.167  0.5255  1.5867 -0.3573
 5123TIP3   OH215309   6.746   1.010   6.169  0.0101  0.2549  0.6128
 5123TIP3    H115310   6.661   0.971   6.146 -0.9916  1.3437  2.2730
 5123TIP3    H215311   6.764   1.070   6.096 -0.4206 -0.3014  0.0313
 5124TIP3   OH215312   7.896   4.176   5.588 -0.5065 -0.3474  0.4063
 5124TIP3    H115313   7.936   4.259   5.612 -0.2938 -0.0648 -0.8605
 5124TIP3    H215314   7.837   4.197   5.515  1.0597 -1.5834 -1.3015
 5125TIP3   OH215315   5.708   1.032   0.901 -0.2266 -0.5457  0.0983
 5125TIP3    H115316   5.698   1.051   0.994 -0.8578  0.6769 -0.1987
 5125TIP3    H215317   5.651   0.956   0.886 -1.7212  0.4738  0.3484
 5126TIP3   OH215318   7.290   7.248   1.096  0.3561  0.3433 -0.2438
 5126TIP3    H115319   7.214   7.191   1.092  1.5041 -1.1812 -1.7629
 5126TIP3    H215320   7.362   7.196   1.060  1.6240  2.4964 -1.0643
 5127TIP3   OH215321   8.113   2.249   0.855 -0.3959  0.1257  0.5476
 5127TIP3    H115322   8.077   2.169   0.894 -0.9071  0.4860  0.8318
 5127TIP3    H215323   8.186   2.218   0.802 -0.3939 -0.4999  0.8920
 5128TIP3   OH215324   4.156   7.474   3.714 -0.2761 -0.0594 -0.5678
 5128TIP3    H115325   4.095   7.435   3.650 -1.2047  0.0366  0.2370
 5128TIP3    H215326   4.241   7.438   3.690 -0.6166 -0.0994 -1.8062
 5129TIP3   OH215327   6.191   5.048   3.457 -0.0329 -0.0629 -0.1083
 5129TIP3    H115328   6.176   4.957   3.433 -0.9596  0.0659 -0.0606
 5129TIP3    H215329   6.281   5.050   3.488 -0.2421 -1.1349  0.6525
 5130TIP3   OH215330   0.743   4.260   3.104  0.5799  0.0239  0.2735
 5130TIP3    H115331   0.736   4.346   3.064  1.0469  0.5307  1.2408
 5130TIP3    H215332   0.671   4.256   3.167  0.2231 -0.5178 -0.1579
 5131TIP3   OH215333   5.710   7.332   0.358 -0.5314 -0.3463  0.2530
 5131TIP3    H115334   5.683   7.384   0.283 -2.4897  0.7892  1.6387
 5131TIP3    H215335   5.782   7.278   0.326 -1.1376  0.2681 -2.3326
 5132TIP3   OH215336   1.934   3.659   1.643  0.3431 -0.5698  0.1518
 5132TIP3    H115337   1.993   3.608   1.699 -0.1247  1.2990  2.5135
 5132TIP3    H215338   1.847   3.639   1.676  0.0935  0.9544  0.5049
 5133TIP3   OH215339   1.449   5.576   5.903 -0.2324  0.7575 -0.3317
 5133TIP3    H115340   1.403   5.610   5.827 -1.7190  0.1347  0.2447
 5133TIP3    H215341   1.452   5.649   5.964 -1.1113  0.6195 -0.1059
 5134TIP3   OH215342   3.979   5.755   0.977 -0.7531 -0.2960 -0.0470
 5134TIP3    H115343   4.027   5.681   1.014 -0.3195  0.6636  1.3971
 5134TIP3    H215344   3.898   5.759   1.027 -0.7453  0.2307 -0.0622
 5135TIP3   OH215345   0.610   3.753   1.828  0.1770  0.3514  0.0696
 5135TIP3    H115346   0.516   3.771   1.821  0.1796  0.0966 -0.7617
 5135TIP3    H215347   0.650   3.814   1.765  0.5276  0.1377  0.0859
 5136TIP3   OH215348   0.828   2.443   2.266 -0.1370  0.4395 -0.1378
 5136TIP3    H115349   0.807   2.412   2.178 -0.2087 -0.5364  0.2100
 5136TIP3    H215350   0.924   2.442   2.270 -0.1056  1.3113 -0.4819
 5137TIP3   OH215351   7.830   5.503   3.222 -0.4352 -0.5633  0.1457
 5137TIP3    H115352   7.771   5.507   3.297  0.1833  3.0173  0.5920
 5137TIP3    H215353   7.877   5.420   3.233 -1.0795 -0.6377  3.1342
 5138TIP3   OH215354   3.119   7.237   1.652  0.0870 -0.1464  0.5311
 5138TIP3    H115355   3.108   7.207   1.562  0.4447 -1.5213  0.9119
 5138TIP3    H215356   3.153   7.160   1.698 -0.3200  0.4600  1.8853
 5139TIP3   OH215357   0.083   6.180   0.855  0.0556  0.2080  0.5601
 5139TIP3    H115358   0.090   6.273   0.833  0.1603  0.1875  0.5065
 5139TIP3    H215359   0.055   6.138   0.774 -2.0937  0.4650  1.1112
 5140TIP3   OH215360   2.045   4.918   0.442 -0.0089  0.1248 -0.0781
 5140TIP3    H115361   2.116   4.942   0.382  0.3125  1.3140  0.7392
 5140TIP3    H215362   2.054   4.823   0.453  0.1453 -0.0672 -1.6101
 5141TIP3   OH215363   3.917   4.371   5.567  0.5852 -0.1602  0.0709
 5141TIP3    H115364   3.977   4.444   5.583 -0.4196  1.6987 -3.5261
 5141TIP3    H215365   3.833   4.412   5.547 -0.7139 -2.4733  0.3804
 5142TIP3   OH215366   3.855   7.551   0.964 -0.1187 -0.8427 -0.2540
 5142TIP3    H115367   3.878   7.590   1.049  0.0423 -1.3102 -0.0829
 5142TIP3    H215368   3.939   7.544   0.918 -0.2141 -0.5259 -0.4844
 5143TIP3   OH215369   2.766   0.275   2.823  0.0432 -0.6081 -0.1272
 5143TIP3    H115370   2.707   0.339   2.783 -0.8102 -1.4180 -0.2067
 5143TIP3    H215371   2.843   0.275   2.767 -1.5475 -2.4818 -2.4848
 5144TIP3   OH215372   1.229   3.956   4.017 -0.4174 -0.2534 -0.1416
 5144TIP3    H115373   1.270   4.016   3.954  0.0812 -2.7270 -2.3373
 5144TIP3    H215374   1.279   3.875   4.009 -1.8485 -1.4130  1.7822
 5145TIP3   OH215375   4.567   7.234   3.186 -0.6565  0.1233  0.2184
 5145TIP3    H115376   4.515   7.244   3.266  1.9361  0.8739  1.9098
 5145TIP3    H215377   4.605   7.147   3.192  0.1918  0.4833  0.2469
 5146TIP3   OH215378   2.980   1.116   5.723 -0.6559  0.4456 -0.0636
 5146TIP3    H115379   3.041   1.148   5.656 -0.7391  0.4584 -0.1327
 5146TIP3    H215380   2.968   1.191   5.781 -0.9450  0.5780 -0.2936
 5147TIP3   OH215381   1.396   3.600   4.786  0.4946 -0.0387 -0.4110
 5147TIP3    H115382   1.488   3.576   4.793  0.0767 -1.6551 -0.1613
 5147TIP3    H215383   1.358   3.574   4.870 -0.0172  1.5133 -0.1203
 5148TIP3   OH215384   3.690   4.809   0.364  0.1496  0.2069 -0.4294
 5148TIP3    H115385   3.620   4.760   0.322 -0.3476  0.3963  0.1657
 5148TIP3    H215386   3.655   4.833   0.450  1.0019  0.1621 -0.0583
 5149TIP3   OH215387   0.735   0.771   2.798 -0.0599  0.2075  1.2885
 5149TIP3    H115388   0.757   0.746   2.709 -0.9502 -0.6023  1.2729
 5149TIP3    H215389   0.817   0.765   2.846  0.1740 -0.7106  0.8096
 5150TIP3   OH215390   6.535   6.292   1.361 -0.4714  0.0029 -0.3591
 5150TIP3    H115391   6.512   6.257   1.447 -1.1435 -1.6864 -1.1827
 5150TIP3    H215392   6.453   6.329   1.328  0.0184  1.5753  0.1125
 5151TIP3   OH215393   7.252   4.053   4.316 -0.0989  0.2167  0.5971
 5151TIP3    H115394   7.175   4.016   4.358 -0.7711  1.7388  0.7916
 5151TIP3    H215395   7.316   4.064   4.387  0.4352 -1.3236  0.3812
 5152TIP3   OH215396   1.610   6.435   5.939  0.4494 -0.7861 -0.1687
 5152TIP3    H115397   1.618   6.493   5.864  1.5646 -0.9229 -0.1687
 5152TIP3    H215398   1.516   6.429   5.955  0.2976  1.1351 -0.0780
 5153TIP3   OH215399   5.595   4.565   2.814  0.5126 -0.3777 -0.0342
 5153TIP3    H115400   5.632   4.480   2.791 -1.2377 -1.0736 -0.4681
 5153TIP3    H215401   5.657   4.629   2.779  0.9335 -1.4727 -1.3838
 5154TIP3   OH215402   2.404   4.930   4.224 -0.4636  0.1203 -0.1380
 5154TIP3    H115403   2.475   4.993   4.210  1.2974 -1.3492  1.6101
 5154TIP3    H215404   2.372   4.911   4.136 -0.7991  3.0575 -0.7811
 5155TIP3   OH215405   7.457   6.398   5.067  0.0980 -0.3156  0.0771
 5155TIP3    H115406   7.393   6.394   4.996 -0.7448 -0.1316  0.8047
 5155TIP3    H215407   7.411   6.443   5.138  0.7604 -0.9158  0.9059
 5156TIP3   OH215408   2.336   7.637   2.781  0.0397  0.3678 -0.4836
 5156TIP3    H115409   2.410   7.577   2.768  0.6059  0.7700  0.7353
 5156TIP3    H215410   2.303   7.654   2.693 -0.0771 -1.6427 -0.8908
 5157TIP3   OH215411   5.841   7.186   2.582 -0.3407  0.5364  0.1707
 5157TIP3    H115412   5.790   7.260   2.549  1.6518  1.5318 -0.8663
 5157TIP3    H215413   5.881   7.219   2.663  0.9818  0.8298 -0.5749
 5158TIP3   OH215414   6.683   0.331   6.349  0.4099 -0.4215 -0.3148
 5158TIP3    H115415   6.680   0.254   6.406 -0.7237 -1.4848 -1.7483
 5158TIP3    H215416   6.735   0.304   6.274  1.1807  0.6943 -0.2080
 5159TIP3   OH215417   3.563   1.646   6.487 -0.3566  0.6039 -0.4837
 5159TIP3    H115418   3.576   1.665   6.580  0.4818  0.0813 -0.4854
 5159TIP3    H215419   3.472   1.617   6.481 -0.0074 -0.7642  0.4261
 5160TIP3   OH215420   3.644   1.752   1.619 -0.3297 -0.2726  0.1149
 5160TIP3    H115421   3.615   1.689   1.553 -0.1255 -0.1728 -0.0708
 5160TIP3    H215422   3.579   1.823   1.615  0.0493  0.0496 -0.4469
 5161TIP3   OH215423   0.342   3.590   0.411 -0.4075 -0.6116 -0.0088
 5161TIP3    H115424   0.300   3.544   0.483  0.1775 -1.8781 -0.4345
 5161TIP3    H215425   0.434   3.599   0.438 -0.1816 -1.0956 -0.5692
 5162TIP3   OH215426   2.259   2.549   3.225  0.4479  0.3041 -0.6277
 5162TIP3    H115427   2.305   2.484   3.279 -0.2619 -0.5934 -1.0768
 5162TIP3    H215428   2.236   2.619   3.286  0.3044 -0.3524  0.0893
 5163TIP3   OH215429   3.351   6.822   2.305 -0.2240 -0.1672 -0.3343
 5163TIP3    H115430   3.348   6.744   2.249  0.7361  0.7668 -1.7381
 5163TIP3    H215431   3.347   6.787   2.394 -0.5235 -1.7781 -0.9471
 5164TIP3   OH215432   4.220   2.485   6.406  0.3801 -0.2079 -0.7587
 5164TIP3    H115433   4.150   2.471   6.343 -0.4981 -0.8215  0.3245
 5164TIP3    H215434   4.176   2.496   6.490  1.5795 -0.8412 -0.0135
 5165TIP3   OH215435   7.080   0.714   5.381  0.2875  0.7783 -0.6393
 5165TIP3    H115436   7.135   0.655   5.331  1.0029 -0.7644  1.7936
 5165TIP3    H215437   7.139   0.756   5.444 -0.8076  1.2936  0.0944
 5166TIP3   OH215438   0.114   1.038   3.575  0.0346 -0.2711 -0.1562
 5166TIP3    H115439   0.174   0.965   3.581 -2.6943 -2.6038  1.6860
 5166TIP3    H215440   0.086   1.053   3.666 -1.5649  1.1837 -0.8300
 5167TIP3   OH215441   7.942   5.921   6.808 -0.0082  0.1187 -0.4302
 5167TIP3    H115442   7.926   5.833   6.844 -1.2201  0.0570 -1.0962
 5167TIP3    H215443   7.880   5.977   6.854  0.2226  0.4940 -0.5776
 5168TIP3   OH215444   6.539   2.121   4.841 -0.1309 -0.6275 -0.0976
 5168TIP3    H115445   6.600   2.185   4.806 -0.7415 -0.0767 -0.1792
 5168TIP3    H215446   6.495   2.086   4.763  0.9642 -1.9611 -0.1522
 5169TIP3   OH215447   2.010   0.799   1.861 -0.8542 -0.4329 -0.1631
 5169TIP3    H115448   2.044   0.878   1.821  0.6957  0.6893  2.9900
 5169TIP3    H215449   1.932   0.828   1.909 -0.1459 -0.7046  1.2009
 5170TIP3   OH215450   8.219   3.226   5.677 -0.1658 -0.1510 -0.2274
 5170TIP3    H115451   8.253   3.169   5.746  2.7017 -0.0899 -1.4294
 5170TIP3    H215452   8.187   3.166   5.610  2.5857 -0.5028 -1.3658
 5171TIP3   OH215453   0.872   0.601   4.942  0.6607 -0.4442 -0.2022
 5171TIP3    H115454   0.827   0.648   4.873  0.3259  0.4475  0.6072
 5171TIP3    H215455   0.853   0.509   4.925  3.1731 -0.5917 -3.1533
 5172TIP3   OH215456   2.634   5.493   4.212  0.6179 -0.2132 -0.4184
 5172TIP3    H115457   2.667   5.550   4.281 -2.1850 -0.1888  1.0435
 5172TIP3    H215458   2.564   5.545   4.170 -0.1778 -1.5813 -0.8323
 5173TIP3   OH215459   3.863   7.532   2.565  0.0956 -0.1972 -0.1781
 5173TIP3    H115460   3.830   7.449   2.531 -0.4163 -0.2530  0.4291
 5173TIP3    H215461   3.790   7.593   2.555  0.1594 -0.0524  0.2047
 5174TIP3   OH215462   6.251   0.022   1.983 -0.2591 -0.2111 -0.5436
 5174TIP3    H115463   6.273  -0.070   1.969 -2.1624 -0.5341 -1.6536
 5174TIP3    H215464   6.325   0.070   1.945  0.3100 -1.2542 -0.7965
 5175TIP3   OH215465   0.524   3.212   4.829  0.5558 -0.3346  0.4186
 5175TIP3    H115466   0.609   3.172   4.810 -0.5657 -2.6776 -0.1309
 5175TIP3    H215467   0.542   3.281   4.892  3.0170  0.1857 -0.7433
 5176TIP3   OH215468   0.221   4.201   4.413 -0.5930  0.2624 -0.3752
 5176TIP3    H115469   0.275   4.148   4.355  0.0214 -0.2449  0.6386
 5176TIP3    H215470   0.182   4.267   4.356 -2.3751 -1.9928 -1.9179
 5177TIP3   OH215471   6.987   6.810   2.344  0.5918 -0.3614 -0.0627
 5177TIP3    H115472   6.979   6.740   2.280  0.7654 -0.8165  0.4025
 5177TIP3    H215473   6.898   6.823   2.377  0.6972 -0.9892  0.4933
 5178TIP3   OH215474   4.343   4.075   6.086 -0.7466  0.3562 -0.2614
 5178TIP3    H115475   4.318   3.982   6.084  0.1855  0.1010 -0.3352
 5178TIP3    H215476   4.437   4.074   6.100 -0.6227  1.2780 -0.9701
 5179TIP3   OH215477   6.881   2.896   2.223 -0.0551 -0.2388  0.0748
 5179TIP3    H115478   6.858   2.830   2.288 -1.1703 -1.0331 -1.0732
 5179TIP3    H215479   6.937   2.850   2.161 -0.5176 -0.0197 -0.5194
 5180TIP3   OH215480   7.988   3.191   6.619 -0.3968  0.4236  0.9633
 5180TIP3    H115481   8.061   3.244   6.652  0.9133  0.0472 -1.1195
 5180TIP3    H215482   7.913   3.249   6.621  0.2746  1.2960  1.7696
 5181TIP3   OH215483   0.200   0.613   0.060  0.1484 -0.0540 -0.0487
 5181TIP3    H115484   0.190   0.551  -0.011 -0.7143  1.9402 -1.7639
 5181TIP3    H215485   0.295   0.620   0.073  0.2785 -1.0465 -0.4205
 5182TIP3   OH215486   6.629   4.186   4.259  0.3027  0.5249  0.0045
 5182TIP3    H115487   6.560   4.185   4.192  1.1906  0.2416 -0.9344
 5182TIP3    H215488   6.654   4.094   4.269  0.1541  0.5606  0.7672
 5183TIP3   OH215489   2.629   1.780   3.478  0.2327 -0.5189  0.5512
 5183TIP3    H115490   2.564   1.791   3.409  0.5385  0.3874  0.3874
 5183TIP3    H215491   2.580   1.792   3.560  0.0631 -0.5447  0.4529
 5184TIP3   OH215492   4.026   2.417   3.837  0.8083 -0.1292 -0.3787
 5184TIP3    H115493   3.968   2.406   3.762 -0.9565 -0.9009  1.0117
 5184TIP3    H215494   4.080   2.493   3.815 -2.3851  2.2139 -0.7800
 5185TIP3   OH215495   5.936   3.594   1.581 -0.6259 -0.2371  0.2606
 5185TIP3    H115496   5.877   3.648   1.529 -0.0191  2.8078  2.4466
 5185TIP3    H215497   5.940   3.638   1.666  3.9973 -0.7871  0.5796
 5186TIP3   OH215498   8.018   1.012   3.553 -0.0286 -0.1915 -0.0701
 5186TIP3    H115499   8.062   0.929   3.538 -0.2573 -0.3740  0.2497
 5186TIP3    H215500   7.946   0.991   3.613  0.5277  0.4150  0.8496
 5187TIP3   OH215501   6.767   1.103   2.559 -0.3922  0.2899 -0.0085
 5187TIP3    H115502   6.819   1.184   2.561  0.7295 -0.4240  1.5337
 5187TIP3    H215503   6.810   1.049   2.493 -1.1656  0.9274 -1.0699
 5188TIP3   OH215504   4.127   1.357   4.743 -0.2351 -0.1094 -0.5252
 5188TIP3    H115505   4.052   1.305   4.771 -0.5656  0.6859  0.0977
 5188TIP3    H215506   4.176   1.299   4.684 -0.5409 -1.1504  0.2266
 5189TIP3   OH215507   3.098   5.984   1.602 -0.4126  0.2671 -0.4297
 5189TIP3    H115508   3.190   5.989   1.574 -0.4717  0.3125 -0.6196
 5189TIP3    H215509   3.055   5.933   1.533 -0.3674 -0.4800  0.0788
 5190TIP3   OH215510   0.441   4.363   2.890 -0.0767 -0.5528 -0.2795
 5190TIP3    H115511   0.382   4.415   2.835 -1.5260  0.3112  1.9488
 5190TIP3    H215512   0.505   4.427   2.923  0.5515 -0.9861 -0.6393
 5191TIP3   OH215513   6.077   7.416   5.334  0.2509  0.3034  0.2113
 5191TIP3    H115514   6.023   7.337   5.327 -1.7533  1.7613 -1.7442
 5191TIP3    H215515   6.028   7.474   5.392  0.3758  1.1350 -0.5085
 5192TIP3   OH215516   0.774   7.608   0.728  0.4874 -0.1743 -0.1856
 5192TIP3    H115517   0.827   7.671   0.678  0.7835 -1.0531 -1.0113
 5192TIP3    H215518   0.818   7.601   0.812  1.6290 -0.8011 -0.8185
 5193TIP3   OH215519   0.374   6.421   5.068 -0.2372  0.0300  0.4664
 5193TIP3    H115520   0.296   6.454   5.113 -0.7280  2.4810 -1.8871
 5193TIP3    H215521   0.415   6.500   5.033  1.0184 -1.5692 -1.8708
 5194TIP3   OH215522   4.278   4.027   5.119 -0.3160  0.2804  0.0156
 5194TIP3    H115523   4.286   3.973   5.040  1.1683 -0.8281  0.8594
 5194TIP3    H215524   4.197   3.998   5.160 -0.3308 -0.2015 -0.3446
 5195TIP3   OH215525   6.818   5.926   0.232 -0.6160  0.0613  0.4988
 5195TIP3    H115526   6.775   5.891   0.310 -2.7101  1.4223  0.0239
 5195TIP3    H215527   6.890   5.865   0.216 -1.0094 -1.0831  2.6280
 5196TIP3   OH215528   6.982   0.589   1.668  0.6395 -0.2664  0.4261
 5196TIP3    H115529   7.057   0.649   1.666  1.3188 -1.1131 -0.8771
 5196TIP3    H215530   6.990   0.544   1.752  1.1443  0.1867  0.6333
 5197TIP3   OH215531   3.199   2.857   1.215 -0.3334 -0.1944  0.4502
 5197TIP3    H115532   3.195   2.922   1.286  0.4714  0.2112  0.1241
 5197TIP3    H215533   3.218   2.775   1.260  0.1905  0.0648  0.7088
 5198TIP3   OH215534   7.983   5.475   4.444  0.1867 -0.6992  0.1830
 5198TIP3    H115535   7.984   5.409   4.375 -0.5606 -1.0098  0.4466
 5198TIP3    H215536   7.926   5.544   4.410 -0.2499 -0.8911  0.5120
 5199TIP3   OH215537   0.847   0.155   0.033 -0.5322 -0.2995  0.4369
 5199TIP3    H115538   0.840   0.068  -0.006 -1.5184  0.9755 -2.4742
 5199TIP3    H215539   0.775   0.159   0.096 -0.3257 -1.6253  0.7924
 5200TIP3   OH215540   3.757   4.014   0.732 -0.2874 -0.1490 -0.4807
 5200TIP3    H115541   3.791   4.036   0.819 -2.0027  0.1319  0.1617
 5200TIP3    H215542   3.781   3.922   0.721  1.1244  0.1804 -0.3051
 5201TIP3   OH215543   1.754   2.342   6.609  0.1835  0.2346 -0.1449
 5201TIP3    H115544   1.725   2.251   6.607 -0.9750  0.6022 -0.8583
 5201TIP3    H215545   1.755   2.369   6.517  2.1091  0.4756 -0.0846
 5202TIP3   OH215546   4.289   7.077   4.931  0.3245  0.0892 -0.1488
 5202TIP3    H115547   4.377   7.071   4.969  0.1418 -1.6096  0.0944
 5202TIP3    H215548   4.304   7.085   4.837  0.7412  2.2514  0.0429
 5203TIP3   OH215549   0.032   3.092   0.569  0.4776 -0.1456 -0.0060
 5203TIP3    H115550   0.119   3.113   0.535 -0.0244  0.3485 -1.0314
 5203TIP3    H215551  -0.029   3.121   0.500 -0.3934 -2.7751 -0.4828
 5204TIP3   OH215552   2.508   5.609   2.078 -0.1662 -0.3798 -0.0063
 5204TIP3    H115553   2.437   5.622   2.016  0.2074  1.2838 -0.1262
 5204TIP3    H215554   2.570   5.553   2.032  0.1482  0.9077 -1.1998
 5205TIP3   OH215555   1.477   5.079   6.427 -1.1884  0.1926  0.3036
 5205TIP3    H115556   1.390   5.070   6.467 -0.9896 -3.1838  0.2982
 5205TIP3    H215557   1.532   5.110   6.499 -1.8379 -0.6126  1.1792
 5206TIP3   OH215558   5.699   0.539   0.582  0.0333 -0.1789 -0.2296
 5206TIP3    H115559   5.794   0.542   0.578  0.1248 -0.6492  1.0259
 5206TIP3    H215560   5.677   0.446   0.580 -0.2497 -0.1888  1.3857
 5207TIP3   OH215561   6.945   1.436   3.061 -0.1796  0.4947 -0.1503
 5207TIP3    H115562   6.863   1.399   3.095 -0.6862  2.0352  0.3910
 5207TIP3    H215563   7.012   1.372   3.086 -1.0203 -0.0853  0.7058
 5208TIP3   OH215564   7.152   2.871   6.609 -0.2001  0.4593  0.4276
 5208TIP3    H115565   7.118   2.833   6.527 -0.1430 -0.3305  0.7560
 5208TIP3    H215566   7.108   2.955   6.616 -1.1563  0.0033  0.2068
 5209TIP3   OH215567   0.304   6.736   0.057 -0.2078 -0.3969  0.3420
 5209TIP3    H115568   0.286   6.781  -0.025 -0.9931  3.6313  2.4662
 5209TIP3    H215569   0.398   6.715   0.053  0.1075  1.0798 -1.0080
 5210TIP3   OH215570   7.825   7.585   0.901 -0.5070  0.5172  0.1778
 5210TIP3    H115571   7.875   7.504   0.903 -0.1034  0.7743  0.6201
 5210TIP3    H215572   7.752   7.567   0.842 -0.8869 -0.4276  0.9183
 5211TIP3   OH215573   7.977   7.612   2.310 -0.3318  0.0501 -0.5247
 5211TIP3    H115574   7.889   7.648   2.320 -0.1413  0.1595  0.9767
 5211TIP3    H215575   7.965   7.518   2.323 -0.2591  0.0393 -0.5380
 5212TIP3   OH215576   5.030   0.023   5.213 -0.3351  0.3922  0.1399
 5212TIP3    H115577   4.976   0.099   5.191 -1.4140 -0.3809  0.0404
 5212TIP3    H215578   5.101   0.059   5.268 -0.0870  1.6483 -0.9598
 5213TIP3   OH215579   6.135   4.353   5.848  0.2130  0.0162 -0.8615
 5213TIP3    H115580   6.136   4.362   5.752 -0.2768 -0.4376 -0.9165
 5213TIP3    H215581   6.083   4.274   5.864 -0.0743  0.3298 -0.2040
 5214TIP3   OH215582   4.866   2.254   4.855 -0.0637 -0.4464  0.4626
 5214TIP3    H115583   4.845   2.212   4.772  1.1754 -1.7692  0.7797
 5214TIP3    H215584   4.926   2.325   4.831  1.2123 -1.5326  0.2793
 5215TIP3   OH215585   4.929   0.088   0.940  0.3537 -0.4846  0.5043
 5215TIP3    H115586   4.863   0.147   0.906  0.3088  0.1060  1.5463
 5215TIP3    H215587   4.935   0.017   0.876 -1.9404 -1.0370  0.8330
 5216TIP3   OH215588   3.780   6.954   2.327  0.0548 -0.2668 -0.6442
 5216TIP3    H115589   3.722   6.958   2.403 -0.1282 -1.9258 -0.6602
 5216TIP3    H215590   3.723   6.927   2.255  0.3124  0.8669 -1.2950
 5217TIP3   OH215591   4.803   5.150   4.930 -0.0371  0.2030  0.5186
 5217TIP3    H115592   4.718   5.181   4.961  0.6295  1.8425  0.8392
 5217TIP3    H215593   4.855   5.230   4.918  1.5549 -0.7667  0.6062
 5218TIP3   OH215594   5.236   4.491   2.255  0.5555 -0.0429 -0.0634
 5218TIP3    H115595   5.259   4.537   2.175 -1.4436 -0.9865 -1.2562
 5218TIP3    H215596   5.212   4.560   2.317 -1.3778  0.6299 -1.4828
 5219TIP3   OH215597   0.344   0.203   0.153  0.0375 -0.0679  0.1236
 5219TIP3    H115598   0.305   0.290   0.164 -1.9134 -0.4505 -2.6254
 5219TIP3    H215599   0.309   0.152   0.226 -1.1861  0.7345  0.1264
 5220TIP3   OH215600   2.359   1.058   6.302  0.9890 -0.1121 -0.1672
 5220TIP3    H115601   2.339   0.969   6.272  2.4848 -0.3145 -0.6467
 5220TIP3    H215602   2.351   1.112   6.224  0.0177  0.2045  0.1370
 5221TIP3   OH215603   2.355   3.463   6.720 -0.5820 -0.1126 -0.5512
 5221TIP3    H115604   2.289   3.532   6.731 -0.7502  0.0348 -2.1995
 5221TIP3    H215605   2.391   3.450   6.808  0.1655  2.7761 -0.3177
 5222TIP3   OH215606   3.206   5.387   1.064 -0.0731 -0.2755 -0.5826
 5222TIP3    H115607   3.239   5.473   1.036  0.0102 -0.2849 -0.5123
 5222TIP3    H215608   3.264   5.324   1.020  0.6821 -0.2779  0.3850
 5223TIP3   OH215609   6.920   3.322   1.132  0.4290  0.2046  0.6192
 5223TIP3    H115610   6.925   3.381   1.207  1.9807 -1.1932  1.6677
 5223TIP3    H215611   6.951   3.375   1.058  0.3388  1.1312  1.2209
 5224TIP3   OH215612   2.098   1.798   5.426 -0.4775 -0.1636  0.0396
 5224TIP3    H115613   2.171   1.786   5.487 -0.1493  2.3490  0.2206
 5224TIP3    H215614   2.039   1.725   5.446 -1.8149  1.9387  5.4442
 5225TIP3   OH215615   5.557   5.308   4.150  0.0950 -0.0048 -0.3984
 5225TIP3    H115616   5.539   5.320   4.056  1.5519  1.3977 -0.5420
 5225TIP3    H215617   5.652   5.319   4.157 -0.0497  0.3484  1.3036
 5226TIP3   OH215618   4.957   2.979   3.399  0.0772  0.0128  0.8579
 5226TIP3    H115619   4.970   3.067   3.364  0.2931  0.2499  1.5233
 5226TIP3    H215620   5.016   2.974   3.475 -0.2922 -0.5310  1.1150
 5227TIP3   OH215621   3.882   5.413   2.717  0.0392 -0.1934  0.0843
 5227TIP3    H115622   3.947   5.349   2.687 -0.8181 -0.2692 -1.7685
 5227TIP3    H215623   3.821   5.363   2.770  0.4213 -0.5204  0.2187
 5228TIP3   OH215624   2.335   5.420   0.109 -0.7057 -0.0678 -0.1276
 5228TIP3    H115625   2.273   5.454   0.045 -1.1624 -1.8656 -0.7203
 5228TIP3    H215626   2.382   5.350   0.062 -1.3656 -1.7597  1.5724
 5229TIP3   OH215627   5.888   1.737   4.555 -0.1263 -0.9214 -0.2785
 5229TIP3    H115628   5.794   1.749   4.545 -0.0476  0.4864  0.4244
 5229TIP3    H215629   5.898   1.702   4.644 -0.0370 -2.1054 -0.7345
 5230TIP3   OH215630   5.977   1.034   2.745 -0.0150 -0.7215 -0.0893
 5230TIP3    H115631   5.912   1.058   2.678  0.0111 -0.6637 -0.0941
 5230TIP3    H215632   6.034   0.970   2.702 -0.4135 -1.2047  0.0940
 5231TIP3   OH215633   7.868   7.105   1.790  0.4943  0.2558  0.9952
 5231TIP3    H115634   7.851   7.194   1.759 -2.0084 -1.1748 -2.4588
 5231TIP3    H215635   7.954   7.083   1.753 -0.0987  0.3884 -0.5376
 5232TIP3   OH215636   2.455   2.178   5.726 -0.1965 -0.4004  0.2077
 5232TIP3    H115637   2.361   2.169   5.738 -0.2353 -0.0787  0.1463
 5232TIP3    H215638   2.492   2.164   5.813 -0.2858 -0.7146  0.1965
 5233TIP3   OH215639   7.408   5.670   6.279 -0.0341 -0.1715 -0.4125
 5233TIP3    H115640   7.319   5.699   6.296 -0.7587 -1.8403 -1.1374
 5233TIP3    H215641   7.448   5.742   6.229 -0.7394  0.8665  0.4893
 5234TIP3   OH215642   5.528   2.609   0.982 -0.0202 -0.0431 -0.1969
 5234TIP3    H115643   5.613   2.652   0.977 -0.1857  0.9558  3.1668
 5234TIP3    H215644   5.468   2.678   1.011 -1.5581 -1.1955 -0.5214
 5235TIP3   OH215645   6.183   2.363   6.382 -0.6569  0.1175 -0.4859
 5235TIP3    H115646   6.206   2.437   6.438  0.0822 -0.1619 -0.4080
 5235TIP3    H215647   6.266   2.333   6.346 -1.0011 -0.3886 -0.8794
 5236TIP3   OH215648   3.709   1.651   2.333  0.2299 -0.1923 -0.3686
 5236TIP3    H115649   3.694   1.745   2.345  0.3946 -0.4319  2.1387
 5236TIP3    H215650   3.804   1.644   2.321  0.4280 -0.1585  1.0782
 5237TIP3   OH215651   5.348   6.879   2.879  0.0846 -0.1489 -0.3151
 5237TIP3    H115652   5.270   6.912   2.922  0.4694 -0.4306  0.6085
 5237TIP3    H215653   5.394   6.957   2.848 -1.8729 -0.0270 -3.2977
 5238TIP3   OH215654   3.607   5.333   6.393 -0.0934  0.1973 -0.7872
 5238TIP3    H115655   3.659   5.261   6.358  0.2858  0.2953 -0.4352
 5238TIP3    H215656   3.522   5.325   6.350 -0.3229 -0.9410 -0.1626
 5239TIP3   OH215657   3.129   5.264   6.139  0.4997 -0.0830  0.5171
 5239TIP3    H115658   3.140   5.196   6.072  1.0401 -1.1204  1.6015
 5239TIP3    H215659   3.078   5.333   6.096  1.0734 -0.5740 -1.0379
 5240TIP3   OH215660   2.621   4.066   5.023  0.1015  0.1350  0.0861
 5240TIP3    H115661   2.605   4.158   5.003  1.9553  0.4293 -0.1972
 5240TIP3    H215662   2.646   4.065   5.116 -0.9735 -0.2417  0.3857
 5241TIP3   OH215663   3.401   5.103   2.982 -0.2475  0.0919 -0.3777
 5241TIP3    H115664   3.328   5.046   3.003  0.6545 -0.6317  0.9168
 5241TIP3    H215665   3.467   5.045   2.944 -0.2712  0.7109 -1.4075
 5242TIP3   OH215666   3.857   1.059   4.274  0.2421 -0.1966  0.8524
 5242TIP3    H115667   3.897   1.094   4.353 -1.0826  0.3507  1.3206
 5242TIP3    H215668   3.772   1.025   4.303  0.6880 -2.1172  0.0674
 5243TIP3   OH215669   5.372   5.604   0.206  0.0772 -0.3165  0.1130
 5243TIP3    H115670   5.457   5.636   0.236  0.8619 -1.1179 -1.1549
 5243TIP3    H215671   5.353   5.530   0.263  0.5820 -0.5718 -0.0371
 5244TIP3   OH215672   7.611   0.675   4.520 -0.2188 -0.2216 -0.6489
 5244TIP3    H115673   7.546   0.736   4.484  1.6289  1.4271 -1.3550
 5244TIP3    H215674   7.665   0.650   4.446  1.1598  0.0352  0.2236
 5245TIP3   OH215675   7.762   4.937   0.192  0.4079 -0.8637  0.5775
 5245TIP3    H115676   7.845   4.978   0.167  0.8736 -0.9559  1.9165
 5245TIP3    H215677   7.755   4.953   0.286 -0.3832 -2.1131  0.7438
 5246TIP3   OH215678   3.016   0.263   2.717 -0.3148 -0.3993  0.0515
 5246TIP3    H115679   3.018   0.197   2.648 -1.1579 -0.9290  0.5205
 5246TIP3    H215680   3.084   0.326   2.692  0.1384 -1.1613 -0.6743
 5247TIP3   OH215681   7.543   1.070   5.881  0.0746 -0.1799  0.1699
 5247TIP3    H115682   7.549   1.065   5.786 -0.7587 -1.5833  0.1574
 5247TIP3    H215683   7.538   1.164   5.900  0.9337  0.1512 -1.1042
 5248TIP3   OH215684   4.118   4.437   4.562  0.5825 -0.2176 -0.2213
 5248TIP3    H115685   4.163   4.519   4.542  0.3159  0.1714  0.7148
 5248TIP3    H215686   4.034   4.444   4.516  0.1643  0.4660  0.6057
 5249TIP3   OH215687   5.977   2.649   3.756 -0.4211 -0.0848 -0.0767
 5249TIP3    H115688   5.918   2.722   3.735 -0.4704  0.6738  2.3939
 5249TIP3    H215689   6.060   2.671   3.714  0.0277  2.2599  1.8301
 5250TIP3   OH215690   5.180   5.205   3.153 -0.5384  0.6806  0.9858
 5250TIP3    H115691   5.124   5.247   3.218  1.5193  2.8207  1.5027
 5250TIP3    H215692   5.213   5.127   3.196 -0.9669  0.8597  1.6526
 5251TIP3   OH215693   7.281   0.637   2.742 -0.1002  0.7526  0.0354
 5251TIP3    H115694   7.196   0.667   2.708  1.1313  4.8748  0.0064
 5251TIP3    H215695   7.288   0.679   2.828  2.0204  0.8500 -0.1337
 5252TIP3   OH215696   0.327   1.126   2.487 -0.1587 -0.1459 -0.4125
 5252TIP3    H115697   0.398   1.096   2.432 -1.0461  0.3221 -1.8743
 5252TIP3    H215698   0.316   1.058   2.553  1.8773 -0.0217  0.0972
 5253TIP3   OH215699   4.493   4.525   5.603 -0.1682  0.2645  0.3916
 5253TIP3    H115700   4.439   4.590   5.559  0.7184  0.2168 -0.8039
 5253TIP3    H215701   4.430   4.461   5.636 -0.8160 -1.1085 -3.0605
 5254TIP3   OH215702   4.020   4.186   5.392 -0.1078  0.0935  0.0288
 5254TIP3    H115703   4.001   4.255   5.455  1.0472  1.6977 -1.2820
 5254TIP3    H215704   3.952   4.195   5.325 -0.9497 -1.1873  0.6610
 5255TIP3   OH215705   5.359   4.248   5.509 -0.1776 -0.2495  0.7155
 5255TIP3    H115706   5.366   4.168   5.457 -1.1053 -0.3559  0.7345
 5255TIP3    H215707   5.280   4.236   5.561  0.1621  0.3068  1.3768
 5256TIP3   OH215708   1.930   0.879   6.402  0.2651 -0.0521 -0.2168
 5256TIP3    H115709   1.878   0.808   6.365 -0.7822  1.4511 -1.7487
 5256TIP3    H215710   1.893   0.958   6.365  2.5597  1.2239  0.0097
 5257TIP3   OH215711   0.227   0.731   1.517  0.3306 -0.3184 -0.1483
 5257TIP3    H115712   0.191   0.738   1.429  0.2509 -0.4801 -0.1297
 5257TIP3    H215713   0.208   0.816   1.558 -3.4983 -1.5778  1.1602
 5258TIP3   OH215714   8.131   6.719   5.593 -0.1811  0.1098  0.3585
 5258TIP3    H115715   8.067   6.705   5.663  1.5166  0.6073  2.0822
 5258TIP3    H215716   8.194   6.780   5.630  1.1474 -0.1394 -1.3823
 5259TIP3   OH215717   1.121   7.542   4.731  0.2565  0.8504  0.2578
 5259TIP3    H115718   1.174   7.590   4.795  1.2261 -0.9850  0.9099
 5259TIP3    H215719   1.034   7.538   4.769  0.6309  0.4764  1.1010
 5260TIP3   OH215720   3.528   4.438   3.894 -0.4925  0.1805 -0.4726
 5260TIP3    H115721   3.555   4.519   3.937  1.0634  0.0458 -1.1378
 5260TIP3    H215722   3.551   4.450   3.802 -0.0461 -1.0741 -0.5483
 5261TIP3   OH215723   5.955   5.020   4.363  0.1006 -0.1454 -0.2376
 5261TIP3    H115724   5.888   4.958   4.335  0.3164 -0.2765 -0.4666
 5261TIP3    H215725   5.911   5.105   4.361  0.2796 -0.0502 -1.6457
 5262TIP3   OH215726   3.487   5.233   5.726 -0.0499  0.1107 -0.3800
 5262TIP3    H115727   3.546   5.193   5.789 -0.3206 -0.4206 -0.4597
 5262TIP3    H215728   3.536   5.231   5.644  1.2904  2.9903  0.2293
 5263TIP3   OH215729   6.780   2.989   4.790  0.0472  0.1034 -0.1860
 5263TIP3    H115730   6.689   2.995   4.762  0.2674 -0.3513 -1.0616
 5263TIP3    H215731   6.830   2.999   4.709  0.7116 -1.6401 -0.0330
 5264TIP3   OH215732   8.150   1.135   3.012  0.2488  0.4937  0.4553
 5264TIP3    H115733   8.069   1.185   3.013 -0.0999 -0.0419 -0.1166
 5264TIP3    H215734   8.218   1.200   3.032 -0.2578  1.0602  0.3833
 5265TIP3   OH215735   2.439   7.505   0.847 -0.1872  0.0939 -0.3140
 5265TIP3    H115736   2.478   7.443   0.786  2.2268  0.1003  1.0979
 5265TIP3    H215737   2.380   7.452   0.901  1.5208 -0.9526  0.5948
 5266TIP3   OH215738   5.233   0.998   0.946 -0.3674  1.1207 -0.2031
 5266TIP3    H115739   5.176   0.988   1.023 -0.0392  0.4484 -0.0401
 5266TIP3    H215740   5.284   1.078   0.964 -0.9233  1.4640 -0.1384
 5267TIP3   OH215741   5.771   5.123   0.403 -0.1280  0.5084 -0.0432
 5267TIP3    H115742   5.859   5.155   0.385 -0.5201  1.8516  0.3288
 5267TIP3    H215743   5.777   5.090   0.493  0.0480  0.4100 -0.0902
 5268TIP3   OH215744   0.484   2.707   0.976 -0.0164  0.0003  0.1717
 5268TIP3    H115745   0.434   2.741   1.051 -0.9919  0.8491 -0.8268
 5268TIP3    H215746   0.527   2.785   0.939 -0.4364 -0.2149 -0.7952
 5269TIP3   OH215747   0.285   1.432   1.061  0.0442  0.1925 -0.0061
 5269TIP3    H115748   0.191   1.437   1.048 -0.0312 -0.0066  0.4280
 5269TIP3    H215749   0.322   1.486   0.991 -0.3658 -0.1229 -0.4731
 5270TIP3   OH215750   0.812   6.007   4.921 -0.3453  0.1603  0.4133
 5270TIP3    H115751   0.781   5.980   5.008 -1.3397 -2.0931 -0.5565
 5270TIP3    H215752   0.901   5.972   4.915  0.3004  1.6187  1.0376
 5271TIP3   OH215753   5.030   4.006   6.150 -0.2105  0.9180 -0.2470
 5271TIP3    H115754   4.999   4.070   6.087 -1.0919 -0.3820 -1.2071
 5271TIP3    H215755   5.111   4.042   6.184 -1.0258  2.8346 -0.2418
 5272TIP3   OH215756   3.074   4.029   0.800  0.1661 -0.5583 -0.0935
 5272TIP3    H115757   3.058   3.940   0.767 -1.0706 -0.5543  0.4516
 5272TIP3    H215758   3.014   4.084   0.751  0.1646 -0.1728  0.3401
 5273TIP3   OH215759   6.371   2.820   5.671 -0.5594 -0.0430  0.1468
 5273TIP3    H115760   6.334   2.768   5.600 -2.0795 -1.3609  1.8196
 5273TIP3    H215761   6.426   2.759   5.720  1.5708  1.1804 -0.5894
 5274TIP3   OH215762   0.635   7.593   3.875 -0.2356  0.0343  0.1688
 5274TIP3    H115763   0.607   7.522   3.816 -0.7834  0.5615 -0.2154
 5274TIP3    H215764   0.626   7.672   3.822 -1.0779  0.5612  1.0702
 5275TIP3   OH215765   5.647   6.461   1.485  0.1882  0.4293  0.0769
 5275TIP3    H115766   5.664   6.484   1.577 -0.0283 -0.2762  0.2944
 5275TIP3    H215767   5.671   6.369   1.478 -3.0971 -0.5670  0.2983
 5276TIP3   OH215768   2.260   4.989   3.877  0.2969  0.0696 -0.4926
 5276TIP3    H115769   2.265   4.943   3.793 -2.2729 -0.3372 -0.5197
 5276TIP3    H215770   2.304   4.930   3.939  0.3204 -0.6480 -1.1738
 5277TIP3   OH215771   4.736   3.690   4.112  0.3106 -0.0853 -0.8556
 5277TIP3    H115772   4.672   3.762   4.112  0.4802  0.2143  2.5692
 5277TIP3    H215773   4.820   3.732   4.132  0.5476 -1.0999  0.4072
 5278TIP3   OH215774   4.602   2.163   3.287  0.0626 -0.3108 -0.3113
 5278TIP3    H115775   4.536   2.201   3.346  2.8424  0.0553  2.8992
 5278TIP3    H215776   4.592   2.069   3.298 -1.1247 -0.3491 -1.4235
 5279TIP3   OH215777   4.470   4.247   1.222  0.6714 -0.4842  0.1340
 5279TIP3    H115778   4.498   4.204   1.303 -1.3216  1.4211  1.9862
 5279TIP3    H215779   4.421   4.323   1.252  0.7730  0.9293 -2.9330
 5280TIP3   OH215780   3.124   2.133   6.797 -0.1690  0.3864  0.4729
 5280TIP3    H115781   3.218   2.139   6.777 -0.1345 -0.7698  0.2243
 5280TIP3    H215782   3.119   2.067   6.866 -0.7798  0.6740  0.7097
 5281TIP3   OH215783   0.318   5.076   5.093 -0.0328 -0.0478  0.1943
 5281TIP3    H115784   0.292   5.138   5.161  0.5585  1.3838 -0.8275
 5281TIP3    H215785   0.277   4.994   5.119  1.0692  0.1157  2.8941
 5282TIP3   OH215786   5.358   4.681   5.122  0.3676 -0.2939 -0.1041
 5282TIP3    H115787   5.378   4.648   5.035  1.9738  1.2434 -0.3819
 5282TIP3    H215788   5.274   4.642   5.144  0.5049 -1.6674 -1.8288
 5283TIP3   OH215789   8.033   3.231   2.123 -0.0637 -0.6997 -0.2652
 5283TIP3    H115790   8.021   3.138   2.103  2.5041 -0.9880 -0.8555
 5283TIP3    H215791   8.055   3.271   2.039  1.1124 -0.0173  0.3414
 5284TIP3   OH215792   2.042   0.362   2.967 -0.2148  0.0738 -0.2882
 5284TIP3    H115793   2.101   0.414   3.022  0.1887  1.1623 -1.6904
 5284TIP3    H215794   1.956   0.372   3.009 -0.2048  2.1404 -0.6262
 5285TIP3   OH215795   6.881   0.538   2.392  0.1650 -0.5870 -0.0594
 5285TIP3    H115796   6.952   0.548   2.456  0.1472  1.0858 -0.2603
 5285TIP3    H215797   6.881   0.620   2.343 -1.1138 -1.0539 -0.8891
 5286TIP3   OH215798   1.638   0.978   0.697  0.0142 -0.4105  0.1322
 5286TIP3    H115799   1.565   1.018   0.649  0.7682 -0.7250 -1.3048
 5286TIP3    H215800   1.627   1.011   0.786 -1.6619 -0.1358 -0.1256
 5287TIP3   OH215801   7.530   5.781   3.262 -0.8350 -0.1962  0.1743
 5287TIP3    H115802   7.579   5.798   3.343 -2.0685 -0.8620  1.0918
 5287TIP3    H215803   7.531   5.686   3.253  0.5557 -0.0802 -1.4428
 5288TIP3   OH215804   5.686   2.574   2.147  0.6661  0.4774  0.2793
 5288TIP3    H115805   5.637   2.513   2.202  0.1159  0.3514 -0.3430
 5288TIP3    H215806   5.763   2.596   2.199  1.2574 -1.3081  0.2133
 5289TIP3   OH215807   2.136   6.857   0.386  0.6274  1.1498 -0.3153
 5289TIP3    H115808   2.168   6.805   0.311 -0.4579  2.1122 -1.4825
 5289TIP3    H215809   2.115   6.942   0.349 -3.6622  0.5211  0.2066
 5290TIP3   OH215810   6.581   2.342   3.520 -0.4349  0.0315 -0.2808
 5290TIP3    H115811   6.656   2.297   3.557  0.3177 -0.5524 -2.3816
 5290TIP3    H215812   6.508   2.281   3.532  0.0645 -0.6958 -0.9051
 5291TIP3   OH215813   0.425   2.070   4.713 -0.2146  0.1686  0.2434
 5291TIP3    H115814   0.510   2.099   4.680 -0.3487 -0.2016 -0.4324
 5291TIP3    H215815   0.392   2.010   4.647 -2.0492  2.0748 -0.6899
 5292TIP3   OH215816   0.077   7.650   1.790  0.4148 -0.3433  0.4881
 5292TIP3    H115817   0.059   7.567   1.835 -1.2086  0.2093  0.9266
 5292TIP3    H215818   0.002   7.662   1.731  0.7548  0.6983  0.2468
 5293TIP3   OH215819   7.597   3.450   2.882 -0.0632 -0.0461 -0.3674
 5293TIP3    H115820   7.608   3.469   2.975  3.7216 -0.8424 -0.4974
 5293TIP3    H215821   7.542   3.372   2.881  0.2864 -0.3667  1.2684
 5294TIP3   OH215822   0.563   7.565   4.357  0.2133  0.1608 -0.3986
 5294TIP3    H115823   0.582   7.507   4.431  0.2151  0.9246  0.2152
 5294TIP3    H215824   0.469   7.583   4.364  0.2114  0.2197 -0.5865
 5295TIP3   OH215825   2.945   0.095   5.279  0.2892  0.2585 -0.3601
 5295TIP3    H115826   2.885   0.032   5.319 -0.2286  0.7285 -0.3952
 5295TIP3    H215827   2.976   0.148   5.353  2.1503 -1.1670 -0.0215
 5296TIP3   OH215828   4.017   5.316   6.325  0.2194  0.5883  0.0823
 5296TIP3    H115829   4.092   5.318   6.266  1.4253 -0.4832  1.5019
 5296TIP3    H215830   4.026   5.234   6.373 -1.3267  0.9003  0.9955
 5297TIP3   OH215831   0.073   7.818   0.816  0.4631 -0.0181  0.3000
 5297TIP3    H115832   0.121   7.898   0.795 -0.5803  0.1073 -1.9518
 5297TIP3    H215833   0.074   7.768   0.734 -0.0815 -1.6846  1.2712
 5298TIP3   OH215834   2.439   7.861   6.095  0.8514 -0.0223 -0.7367
 5298TIP3    H115835   2.519   7.811   6.079  1.4888  0.8287 -0.2917
 5298TIP3    H215836   2.457   7.909   6.176  0.9613  2.3114 -2.0732
 5299TIP3   OH215837   4.190   3.524   5.532 -0.2885 -0.0343  0.1000
 5299TIP3    H115838   4.209   3.613   5.503 -1.1123 -0.1699 -0.9027
 5299TIP3    H215839   4.175   3.475   5.451  0.4281 -1.1520  0.6331
 5300TIP3   OH215840   4.163   7.641   1.933 -0.0033 -0.3985 -0.2333
 5300TIP3    H115841   4.173   7.653   1.838 -2.6073  0.3556 -0.4852
 5300TIP3    H215842   4.104   7.711   1.960  1.7241  0.2346  2.2487
 5301TIP3   OH215843   4.920   7.456   2.940  0.5518  0.1978  0.4559
 5301TIP3    H115844   4.859   7.383   2.955  1.2412 -0.7919 -1.2310
 5301TIP3    H215845   4.864   7.529   2.914 -0.1228  0.1903  1.8262
 5302TIP3   OH215846   1.883   1.849   3.181  0.5467 -0.3096 -0.0033
 5302TIP3    H115847   1.833   1.775   3.147  1.7896 -0.8921 -0.6075
 5302TIP3    H215848   1.968   1.843   3.138  0.3211  2.1443 -0.9614
 5303TIP3   OH215849   7.222   5.973   3.267 -0.4774  0.0519 -0.4808
 5303TIP3    H115850   7.205   5.887   3.306  0.0690  0.2679  0.2588
 5303TIP3    H215851   7.305   6.001   3.306 -0.7959  1.0405 -0.4815
 5304TIP3   OH215852   4.207   6.816   4.720  0.5683  0.5763  0.3153
 5304TIP3    H115853   4.131   6.855   4.762  0.9807  1.0457  0.6361
 5304TIP3    H215854   4.229   6.875   4.648 -0.0737 -0.1736 -0.5231
 5305TIP3   OH215855   2.629   0.157   2.563 -0.5694 -0.0189 -0.4851
 5305TIP3    H115856   2.697   0.101   2.525 -0.4653 -0.7654  0.7407
 5305TIP3    H215857   2.671   0.242   2.574 -0.3056 -0.0617 -1.1411
 5306TIP3   OH215858   5.535   0.929   3.001 -0.6527 -0.2862  0.1449
 5306TIP3    H115859   5.606   0.948   3.062  0.4531  0.9471 -1.4474
 5306TIP3    H215860   5.535   0.834   2.992  0.7639 -0.3031  0.2212
 5307TIP3   OH215861   6.661   0.515   2.055  0.4382  0.2570  0.5807
 5307TIP3    H115862   6.715   0.502   2.134  0.1972 -0.3341  0.6533
 5307TIP3    H215863   6.625   0.603   2.065  0.8945  0.4179  0.8356
 5308TIP3   OH215864   0.788   1.649   1.911 -0.4025 -1.0081  0.1734
 5308TIP3    H115865   0.780   1.739   1.878 -1.8433 -1.8209 -1.8914
 5308TIP3    H215866   0.790   1.659   2.006 -0.3269  1.2177  0.0022
 5309TIP3   OH215867   2.827   3.793   4.201 -0.5224 -0.4197  0.5085
 5309TIP3    H115868   2.854   3.882   4.177 -2.6531  0.0073 -0.4903
 5309TIP3    H215869   2.884   3.736   4.149  0.1617  0.3526  0.3703
 5310TIP3   OH215870   5.090   2.331   1.311 -0.1105  0.3516 -0.0748
 5310TIP3    H115871   5.100   2.236   1.302 -0.8258  0.2649 -0.0135
 5310TIP3    H215872   5.101   2.347   1.405 -0.0216  0.3311 -0.0809
 5311TIP3   OH215873   2.892   0.492   0.193 -0.0336 -0.5267  0.2116
 5311TIP3    H115874   2.951   0.416   0.199 -0.3217 -0.7033  0.9920
 5311TIP3    H215875   2.950   0.567   0.180  0.2240 -0.9295 -1.0962
 5312TIP3   OH215876   4.382   4.243   1.530 -0.2251  1.1463  0.6919
 5312TIP3    H115877   4.374   4.236   1.625 -1.2056  1.2254  0.6264
 5312TIP3    H215878   4.306   4.295   1.503  1.2145  3.0180  0.0683
 5313TIP3   OH215879   5.405   7.856   2.358 -0.0902 -0.0689  0.0621
 5313TIP3    H115880   5.387   7.828   2.449  0.2404 -1.0671 -0.1616
 5313TIP3    H215881   5.495   7.829   2.343 -0.3636 -0.5227 -0.7856
 5314TIP3   OH215882   3.017   5.168   5.088  0.0449 -0.0015  0.0783
 5314TIP3    H115883   3.031   5.141   4.997  0.9509  0.0125  0.2065
 5314TIP3    H215884   2.959   5.244   5.081  0.2521  0.1152 -0.5051
 5315TIP3   OH215885   8.170   0.619   4.001  0.4464  0.4921  0.0843
 5315TIP3    H115886   8.186   0.528   4.025 -0.1154  0.9358  2.4832
 5315TIP3    H215887   8.102   0.615   3.934  0.3464 -0.8692  0.2474
 5316TIP3   OH215888   6.080   7.430   5.047  0.0400 -0.0651  0.0851
 5316TIP3    H115889   6.072   7.408   5.140 -0.7795 -1.4176 -0.2825
 5316TIP3    H215890   5.992   7.452   5.019 -0.0026 -1.1235 -0.6972
 5317TIP3   OH215891   8.190   3.879   3.613  0.6010  0.3005  0.1827
 5317TIP3    H115892   8.281   3.882   3.585  1.1175  2.7284  1.8071
 5317TIP3    H215893   8.194   3.880   3.709 -1.1386  0.1823  0.2983
 5318TIP3   OH215894   6.172   3.018   0.636 -0.0721 -0.1236 -0.7559
 5318TIP3    H115895   6.218   2.941   0.669  1.5579  0.3364 -1.8569
 5318TIP3    H215896   6.198   3.089   0.695  0.3590  0.0719 -1.1821
 5319TIP3   OH215897   4.575   2.666   6.581 -0.5392  0.2585 -0.4437
 5319TIP3    H115898   4.639   2.603   6.547 -0.9137 -0.0071 -0.6560
 5319TIP3    H215899   4.522   2.690   6.506 -2.6368 -1.8086  0.2588
 5320TIP3   OH215900   7.271   3.220   2.449  0.1961  0.1128 -0.7161
 5320TIP3    H115901   7.349   3.221   2.505 -0.7224 -0.3740  0.6410
 5320TIP3    H215902   7.226   3.301   2.471 -0.5566 -0.4428 -0.1363
 5321TIP3   OH215903   5.117   0.794   1.792  0.5915  0.5604  0.0351
 5321TIP3    H115904   5.088   0.757   1.876 -1.8838  0.0457 -0.9665
 5321TIP3    H215905   5.202   0.753   1.777  0.0680 -1.1195  1.2422
 5322TIP3   OH215906   0.584   1.938   1.755  0.2496 -0.0313 -0.3890
 5322TIP3    H115907   0.573   1.963   1.846  0.6102 -1.7140  0.1554
 5322TIP3    H215908   0.514   1.874   1.739  0.7015 -0.3718 -1.0432
 5323TIP3   OH215909   3.997   7.278   1.492 -0.4000 -0.7682  0.2423
 5323TIP3    H115910   4.009   7.287   1.587 -0.2314 -0.2910  0.1800
 5323TIP3    H215911   4.061   7.212   1.466 -1.0309 -1.5340  0.5825
 5324TIP3   OH215912   5.328   2.334   6.055  0.2584 -0.4158  0.1913
 5324TIP3    H115913   5.297   2.407   6.109 -3.7984 -1.1635 -0.7874
 5324TIP3    H215914   5.310   2.363   5.965 -0.8041 -2.2984 -0.2446
 5325TIP3   OH215915   2.277   2.357   5.049  0.7870  0.0021  0.1287
 5325TIP3    H115916   2.242   2.369   5.137  0.0670 -2.8614  0.3499
 5325TIP3    H215917   2.213   2.400   4.992 -1.4598 -2.1818  0.7778
 5326TIP3   OH215918   2.992   7.491   6.570  0.1650  0.1006  0.0812
 5326TIP3    H115919   2.949   7.572   6.600  0.1283 -0.0556  0.4604
 5326TIP3    H215920   3.083   7.500   6.599  0.2507  0.1689 -0.2035
 5327TIP3   OH215921   3.933   6.552   6.660  0.1359 -0.1162  0.0272
 5327TIP3    H115922   4.012   6.574   6.611 -1.0846  1.5901 -1.2946
 5327TIP3    H215923   3.936   6.607   6.738  1.6708 -2.2408  1.5822
 5328TIP3   OH215924   4.067   5.194   0.152  0.1641 -0.0036  0.5761
 5328TIP3    H115925   4.090   5.138   0.227  2.0033 -0.0952 -0.0223
 5328TIP3    H215926   4.085   5.140   0.075  1.4504  1.1790  0.0003
 5329TIP3   OH215927   2.914   1.971   1.403 -0.1336 -0.3904 -0.7907
 5329TIP3    H115928   2.975   1.956   1.475  0.4928 -1.7320 -1.5601
 5329TIP3    H215929   2.963   2.025   1.341 -1.4174  2.7273  0.6896
 5330TIP3   OH215930   7.107   2.108   6.438  0.4156  0.1588  0.0018
 5330TIP3    H115931   7.057   2.027   6.425 -0.2256  0.6287 -0.5748
 5330TIP3    H215932   7.044   2.169   6.477  0.3150  0.9585 -1.3169
 5331TIP3   OH215933   3.073   0.176   1.295 -0.0909  0.2981  0.0944
 5331TIP3    H115934   3.091   0.146   1.384  0.4334 -0.8105 -0.3747
 5331TIP3    H215935   3.107   0.266   1.293 -0.8319  0.6134  1.2375
 5332TIP3   OH215936   5.752   5.677   4.630  0.0672  0.0757 -0.3033
 5332TIP3    H115937   5.660   5.672   4.602  0.1209 -1.0596 -0.3478
 5332TIP3    H215938   5.770   5.591   4.668  1.3173  0.0287 -0.9508
 5333TIP3   OH215939   4.642   5.029   2.017 -0.8051  0.6802  0.3438
 5333TIP3    H115940   4.724   5.054   1.974  1.0570 -2.7414  1.5491
 5333TIP3    H215941   4.632   5.091   2.089  2.3290 -0.3583  1.8643
 5334TIP3   OH215942   1.012   3.663   1.061  0.6348 -0.0749  0.1616
 5334TIP3    H115943   1.091   3.686   1.012  0.5177  3.2378  1.3154
 5334TIP3    H215944   1.037   3.674   1.153 -1.4097  2.2680  0.5377
 5335TIP3   OH215945   7.337   1.813   3.922 -0.4270  0.4170  0.6194
 5335TIP3    H115946   7.302   1.744   3.978  0.6721 -2.9900 -2.4814
 5335TIP3    H215947   7.278   1.816   3.847  2.3969 -1.3660 -1.9575
 5336TIP3   OH215948   5.840   1.818   1.346 -1.1391  0.5209  0.3597
 5336TIP3    H115949   5.864   1.891   1.403  1.4298  0.6700 -0.7838
 5336TIP3    H215950   5.870   1.740   1.393 -1.7039  0.3888  0.5085
 5337TIP3   OH215951   6.584   1.784   4.124  0.4800 -0.6220 -0.1488
 5337TIP3    H115952   6.574   1.807   4.032 -2.0257 -0.3613  0.1055
 5337TIP3    H215953   6.645   1.849   4.159  0.4905  0.0515 -1.3655
 5338TIP3   OH215954   0.067   4.997   2.899  0.0953  0.6833 -0.4451
 5338TIP3    H115955  -0.012   5.032   2.940 -0.6712 -1.9222  0.4947
 5338TIP3    H215956   0.036   4.957   2.818 -0.1224 -2.4796  1.0429
 5339TIP3   OH215957   6.311   7.278   3.407 -0.1301 -0.0456  0.3653
 5339TIP3    H115958   6.313   7.184   3.428  1.2371  0.0447  0.7288
 5339TIP3    H215959   6.224   7.307   3.434 -1.0866 -1.4817 -1.0239
 5340TIP3   OH215960   1.154   4.966   6.090  0.7771  0.4631  0.2766
 5340TIP3    H115961   1.224   5.005   6.143 -0.1623  3.1493 -0.3153
 5340TIP3    H215962   1.182   4.980   6.000  0.5466 -0.5601  0.0373
 5341TIP3   OH215963   2.408   0.861   2.500  0.0786  0.1338  0.2489
 5341TIP3    H115964   2.457   0.810   2.436  2.2860  1.8055  0.4750
 5341TIP3    H215965   2.373   0.935   2.450  1.1571  1.0291  0.7718
 5342TIP3   OH215966   6.381   3.707   3.212 -0.0817  0.3982  0.4846
 5342TIP3    H115967   6.418   3.748   3.133  0.4465 -0.2269  0.3975
 5342TIP3    H215968   6.289   3.693   3.190  0.2735 -0.6894 -0.4290
 5343TIP3   OH215969   2.958   7.294   2.075  0.2841 -0.2397 -0.4915
 5343TIP3    H115970   2.921   7.315   1.989 -1.4858  0.2361  0.3316
 5343TIP3    H215971   2.936   7.201   2.088  0.4450 -0.2790 -0.4954
 5344TIP3   OH215972   3.803   5.759   3.322  0.6365 -0.3333 -0.3503
 5344TIP3    H115973   3.835   5.814   3.394 -0.2356 -0.8535  0.4494
 5344TIP3    H215974   3.750   5.819   3.268  1.3293  0.0665 -0.6063
 5345TIP3   OH215975   1.671   1.933   2.025 -0.4448  0.2227 -0.5386
 5345TIP3    H115976   1.585   1.974   2.026 -0.4798  0.1505  0.5484
 5345TIP3    H215977   1.656   1.844   2.057 -0.1531 -0.2178 -1.5597
 5346TIP3   OH215978   3.337   5.110   4.420  0.5193 -0.2102  0.4417
 5346TIP3    H115979   3.379   5.133   4.503  1.6438 -0.4957 -0.0282
 5346TIP3    H215980   3.391   5.152   4.354 -0.4158  0.0805 -0.1499
 5347TIP3   OH215981   7.402   3.505   6.550 -0.0237  0.3216  0.5481
 5347TIP3    H115982   7.440   3.417   6.542 -2.0679 -0.5230 -1.2111
 5347TIP3    H215983   7.431   3.551   6.471 -1.9478 -0.1395 -0.5166
 5348TIP3   OH215984   0.017   6.948   6.165  0.1066  0.6143 -0.1025
 5348TIP3    H115985   0.097   6.897   6.179  0.2876  1.0416  0.4764
 5348TIP3    H215986  -0.045   6.886   6.127  0.4744  0.0929  0.1382
 5349TIP3   OH215987   8.328   3.584   0.498 -0.0365  0.0417 -0.2835
 5349TIP3    H115988   8.249   3.587   0.553  0.4931  0.4853  0.4689
 5349TIP3    H215989   8.385   3.652   0.535  0.4128  0.2098 -1.2652
 5350TIP3   OH215990   8.301   6.777   4.393  0.0561  0.2391 -0.6377
 5350TIP3    H115991   8.304   6.682   4.399 -0.5759  0.2229 -0.5692
 5350TIP3    H215992   8.331   6.808   4.478  1.4111  0.1255 -1.0408
 5351TIP3   OH215993   3.812   3.262   3.578  0.4880  0.3948 -0.0584
 5351TIP3    H115994   3.894   3.311   3.587  0.8171 -0.2711  0.6646
 5351TIP3    H215995   3.788   3.237   3.667  0.7255 -1.3701 -0.4463
 5352TIP3   OH215996   5.973   6.324   3.512 -0.0074  0.0143  0.3659
 5352TIP3    H115997   5.956   6.375   3.433 -1.3909 -1.8183 -0.5877
 5352TIP3    H215998   6.068   6.309   3.511 -0.0958 -0.6053 -1.3670
 5353TIP3   OH215999   3.779   5.306   0.089 -0.6722  0.0789 -0.2228
 5353TIP3    H116000   3.828   5.238   0.043 -0.8059 -1.3602  1.6364
 5353TIP3    H216001   3.842   5.345   0.149 -0.8050  1.0535 -0.7022
 5354TIP3   OH216002   7.045   0.306   4.613  0.1389 -0.3279 -0.0519
 5354TIP3    H116003   7.121   0.364   4.625 -0.0747 -0.1483  0.4302
 5354TIP3    H216004   6.994   0.348   4.543  1.3639 -1.3580 -1.6333
 5355TIP3   OH216005   6.666   3.094   6.005  1.1209  0.1809  0.0388
 5355TIP3    H116006   6.690   3.043   6.082 -0.2485 -0.6662 -0.0699
 5355TIP3    H216007   6.704   3.045   5.931 -0.6971 -1.0823 -0.1211
 5356TIP3   OH216008   0.077   1.643   6.565  0.2645 -0.1255  0.6574
 5356TIP3    H116009   0.151   1.673   6.513  0.5649 -1.4458  0.2890
 5356TIP3    H216010   0.089   1.685   6.650  1.1055  0.1429  0.4182
 5357TIP3   OH216011   6.469   5.875   5.894 -0.3927  0.4039 -0.2536
 5357TIP3    H116012   6.404   5.942   5.874  0.4202  1.2382 -0.1918
 5357TIP3    H216013   6.526   5.874   5.817  0.3694  0.7383  0.2902
 5358TIP3   OH216014   5.445   5.177   1.366  0.6386  0.8303  0.3935
 5358TIP3    H116015   5.359   5.141   1.343 -0.1758  1.4302  2.2999
 5358TIP3    H216016   5.473   5.225   1.288 -0.2945 -0.2032 -0.6050
 5359TIP3   OH216017   6.419   6.474   5.012  0.4288  0.8018 -0.2207
 5359TIP3    H116018   6.432   6.568   5.023  3.0765  0.4839 -0.0494
 5359TIP3    H216019   6.479   6.450   4.942  0.2388 -0.8753  0.1552
 5360TIP3   OH216020   3.993   1.607   2.616 -0.7209 -0.0914 -0.7470
 5360TIP3    H116021   4.077   1.637   2.650  0.4012 -1.7964 -1.8971
 5360TIP3    H216022   3.961   1.544   2.681 -1.1816  0.6253 -0.2641
 5361TIP3   OH216023   3.543   0.069   4.061 -0.2395 -0.2786 -0.0576
 5361TIP3    H116024   3.453   0.099   4.075 -1.2416 -2.7728 -0.5781
 5361TIP3    H216025   3.562   0.014   4.137  1.2165  0.8745  0.4667
 5362TIP3   OH216026   3.343   7.264   2.815  0.3239 -0.2692 -0.4144
 5362TIP3    H116027   3.312   7.224   2.896  0.3088 -0.8786 -0.7125
 5362TIP3    H216028   3.437   7.277   2.829  0.3177 -0.3519 -0.2909
 5363TIP3   OH216029   0.505   4.753   4.574 -0.1118  0.3452  0.1014
 5363TIP3    H116030   0.441   4.782   4.638 -0.9271 -0.0740 -0.5149
 5363TIP3    H216031   0.458   4.691   4.518  0.6043  0.6111 -0.8293
 5364TIP3   OH216032   1.103   0.104   5.409  0.0434  0.3426 -0.3216
 5364TIP3    H116033   1.054   0.036   5.456  1.0484  0.4749  0.9829
 5364TIP3    H216034   1.056   0.185   5.428  0.1323  0.3165  0.0327
 5365TIP3   OH216035   6.552   4.858   2.872 -0.2394  0.2796 -0.0491
 5365TIP3    H116036   6.517   4.838   2.959 -0.8740  1.0595 -0.1164
 5365TIP3    H216037   6.546   4.775   2.824  0.3749 -0.2346  0.7206
 5366TIP3   OH216038   7.423   5.294   1.781 -0.2854  0.4568  0.2492
 5366TIP3    H116039   7.376   5.213   1.800 -1.5086  0.9361 -0.6306
 5366TIP3    H216040   7.516   5.270   1.790 -0.6642 -0.4860  2.0837
 5367TIP3   OH216041   2.988   5.945   3.157 -0.0437  0.9926  0.4118
 5367TIP3    H116042   3.032   5.860   3.150  0.2566  1.1841 -0.1381
 5367TIP3    H216043   2.982   5.962   3.251 -0.4044  0.2114  0.5367
 5368TIP3   OH216044   6.069   5.006   3.859  0.1065  0.1923 -0.4746
 5368TIP3    H116045   6.053   4.968   3.773  1.6341 -0.4438 -0.5075
 5368TIP3    H216046   6.148   4.961   3.891 -0.3174  0.5484  1.1716
 5369TIP3   OH216047   2.684   7.806   0.246  0.1494  0.5888 -0.2671
 5369TIP3    H116048   2.676   7.738   0.180 -1.0925  0.2397  0.2272
 5369TIP3    H216049   2.647   7.768   0.325 -2.8495  2.5659 -0.5377
 5370TIP3   OH216050   3.024   5.795   3.556  0.0138  0.1699 -0.4498
 5370TIP3    H116051   2.976   5.725   3.601  0.0579  1.1111  1.1387
 5370TIP3    H216052   3.083   5.749   3.496  0.2959 -1.1863  0.8110
 5371TIP3   OH216053   5.998   3.935   0.083 -0.0317  0.1879  0.0784
 5371TIP3    H116054   6.029   3.998   0.149 -2.7095  1.6047  0.1256
 5371TIP3    H216055   6.001   3.983   0.001  0.9281 -0.7464 -0.4494
 5372TIP3   OH216056   6.321   2.364   4.473 -0.0290  0.5474  0.7554
 5372TIP3    H116057   6.260   2.411   4.529 -0.1892  0.2794  0.8072
 5372TIP3    H216058   6.378   2.432   4.438 -1.3432  1.0322 -0.5527
 5373TIP3   OH216059   8.095   4.512   3.997 -0.1093 -0.2780 -0.1929
 5373TIP3    H116060   8.129   4.463   4.072 -1.2851 -1.2795 -0.2803
 5373TIP3    H216061   8.158   4.497   3.927  0.0905 -0.7846  0.0919
 5374TIP3   OH216062   6.698   1.621   5.561  0.0000 -0.0492 -0.0717
 5374TIP3    H116063   6.646   1.548   5.595  1.9491 -0.9043  1.2825
 5374TIP3    H216064   6.751   1.582   5.492 -1.2533  0.8730 -1.6253
 5375TIP3   OH216065   5.288   0.282   1.943  0.5420  0.1033 -0.2508
 5375TIP3    H116066   5.259   0.373   1.939 -1.4599 -0.5427 -2.0095
 5375TIP3    H216067   5.249   0.249   2.024 -1.7307 -0.0686 -1.3367
 5376TIP3   OH216068   0.261   1.938   6.430  0.3594 -0.2182  0.4398
 5376TIP3    H116069   0.189   2.000   6.416 -0.3463 -0.8680  1.0512
 5376TIP3    H216070   0.326   1.987   6.480  0.7760  0.6552 -0.9112
 5377TIP3   OH216071   5.612   6.113   5.858  0.0470 -0.3396  0.4088
 5377TIP3    H116072   5.704   6.139   5.857 -0.4907  1.8897 -2.0232
 5377TIP3    H216073   5.611   6.025   5.819  1.0778 -0.0114 -0.4018
 5378TIP3   OH216074   7.413   6.804   1.934 -0.0405 -0.0124  0.0010
 5378TIP3    H116075   7.468   6.875   1.900  1.4707 -1.3040 -0.3732
 5378TIP3    H216076   7.410   6.819   2.028  1.0446  0.0281  0.0379
 5379TIP3   OH216077   1.670   7.063   3.202  0.2753  0.3618  0.5926
 5379TIP3    H116078   1.755   7.048   3.161  0.3429 -0.9434  1.1786
 5379TIP3    H216079   1.681   7.031   3.292 -1.8136 -3.2000 -0.2488
 5380TIP3   OH216080   4.799   1.595   6.843 -0.1730 -0.4731  0.2178
 5380TIP3    H116081   4.727   1.645   6.883  0.0040 -0.8149  0.9781
 5380TIP3    H216082   4.877   1.647   6.862  0.1123 -1.3809  1.6562
 5381TIP3   OH216083   1.426   1.962   3.941 -0.1699  0.4233  0.1377
 5381TIP3    H116084   1.438   1.930   4.030  0.9104  0.2103 -0.0784
 5381TIP3    H216085   1.331   1.977   3.934 -1.0965 -4.0143 -0.1305
 5382TIP3   OH216086   7.761   7.774   2.202  0.3096 -0.0404  0.0869
 5382TIP3    H116087   7.810   7.735   2.129 -0.1432 -0.9482  0.2439
 5382TIP3    H216088   7.812   7.850   2.228  0.2780  0.5333 -1.4363
 5383TIP3   OH216089   8.184   4.262   4.501  0.3593 -0.1203  0.3926
 5383TIP3    H116090   8.259   4.288   4.554 -0.5421  0.3909  1.4636
 5383TIP3    H216091   8.199   4.171   4.479  1.1125 -0.1221  0.9035
 5384TIP3   OH216092   0.175   5.513   2.715  0.1817  0.4411 -0.2396
 5384TIP3    H116093   0.127   5.502   2.797  0.5533  0.3375 -0.0315
 5384TIP3    H216094   0.155   5.602   2.688 -1.3262 -0.0881 -0.9459
 5385TIP3   OH216095   2.379   6.334   1.159  0.3386  0.2434 -0.2059
 5385TIP3    H116096   2.392   6.377   1.243 -0.5317  0.2701 -0.0709
 5385TIP3    H216097   2.381   6.405   1.095  0.5667  0.2796 -0.1564
 5386TIP3   OH216098   4.153   0.343   5.515  0.3496 -0.3784  0.9493
 5386TIP3    H116099   4.194   0.298   5.589 -0.9252 -0.7082  1.4830
 5386TIP3    H216100   4.059   0.327   5.526 -0.1139  1.8657  0.8090
 5387TIP3   OH216101   3.525   4.614   0.258 -0.4489  0.6684  0.1774
 5387TIP3    H116102   3.441   4.571   0.272  0.3426 -1.3361 -0.7930
 5387TIP3    H216103   3.537   4.614   0.163  1.6673 -1.3354  0.3442
 5388TIP3   OH216104   4.874   0.579   3.198 -0.7139  0.3131 -0.8050
 5388TIP3    H116105   4.792   0.547   3.234 -0.2763  0.5262  0.4314
 5388TIP3    H216106   4.900   0.513   3.134 -1.0435 -0.5611 -0.0544
 5389TIP3   OH216107   2.924   1.150   3.289 -0.5247 -0.5062  0.1134
 5389TIP3    H116108   2.947   1.117   3.375 -2.3425 -1.4782  0.2775
 5389TIP3    H216109   2.863   1.085   3.254 -1.9456  1.2129 -0.7699
 5390TIP3   OH216110   8.124   2.093   0.537 -0.0146 -0.2343  0.0390
 5390TIP3    H116111   8.045   2.139   0.565  1.5459  3.0575 -0.4751
 5390TIP3    H216112   8.187   2.107   0.608  0.4588 -2.0021  0.0234
 5391TIP3   OH216113   1.685   6.360   4.065  0.3176 -0.3018 -0.1516
 5391TIP3    H116114   1.595   6.368   4.032  0.5860 -1.5057 -1.2378
 5391TIP3    H216115   1.714   6.450   4.078 -1.1291  0.1000  0.4593
 5392TIP3   OH216116   7.398   6.602   4.631 -0.9019 -0.7642  0.4410
 5392TIP3    H116117   7.469   6.538   4.621 -0.0322 -0.1390  2.1403
 5392TIP3    H216118   7.389   6.642   4.545  1.8552  0.1412  0.4680
 5393TIP3   OH216119   4.541   2.650   5.620 -0.1141 -0.0964 -0.2897
 5393TIP3    H116120   4.510   2.590   5.687  1.0904 -2.5791 -1.8318
 5393TIP3    H216121   4.635   2.631   5.611 -0.2613  0.0289 -2.7469
 5394TIP3   OH216122   3.936   3.307   2.544 -0.0826  0.5432  0.0958
 5394TIP3    H116123   3.941   3.401   2.566  1.1221  0.5385 -0.0579
 5394TIP3    H216124   3.949   3.263   2.628  0.3870  0.5268  0.0202
 5395TIP3   OH216125   1.754   6.071   0.458 -0.3823 -0.2096  0.1549
 5395TIP3    H116126   1.838   6.101   0.424 -0.4115  0.1077  0.3567
 5395TIP3    H216127   1.689   6.116   0.404 -0.4248 -0.5838 -0.1119
 5396TIP3   OH216128   6.088   7.090   0.551 -0.1558  0.2685  0.5331
 5396TIP3    H116129   6.018   7.035   0.586 -0.9775  1.2585  0.4923
 5396TIP3    H216130   6.133   7.123   0.629 -2.0151  2.5123  0.7512
 5397TIP3   OH216131   2.158   3.058   1.384 -0.1394 -0.2573  0.0991
 5397TIP3    H116132   2.147   3.047   1.290  0.2660 -1.4697  0.1734
 5397TIP3    H216133   2.105   2.989   1.423  0.8086 -0.6636  0.7052
 5398TIP3   OH216134   6.559   1.814   1.444 -1.2544  0.1240 -0.4290
 5398TIP3    H116135   6.471   1.806   1.408 -1.0602  0.0200 -0.8877
 5398TIP3    H216136   6.615   1.827   1.368 -1.0108  1.3599 -0.0665
 5399TIP3   OH216137   6.230   0.030   5.237  0.9955  0.2195 -0.4355
 5399TIP3    H116138   6.299  -0.023   5.196  2.3172  1.9258 -0.4940
 5399TIP3    H216139   6.250   0.120   5.212 -0.4281  0.9147  0.7616
 5400TIP3   OH216140   2.436   7.779   0.936 -0.5568  0.4768  0.7204
 5400TIP3    H116141   2.340   7.782   0.935 -0.5814  0.2357  1.7238
 5400TIP3    H216142   2.458   7.702   0.884 -0.8510  1.2863 -0.6524
 5401TIP3   OH216143   6.223   4.724   4.133 -0.1440 -0.7822  0.4586
 5401TIP3    H116144   6.215   4.815   4.108  0.6256 -0.4487  1.3465
 5401TIP3    H216145   6.201   4.722   4.226  1.3299 -1.2165  0.8389
 5402TIP3   OH216146   0.063   7.012   1.640 -0.6986  0.6179  0.3014
 5402TIP3    H116147   0.071   6.991   1.733  0.5899 -1.0495 -0.1170
 5402TIP3    H216148   0.154   7.018   1.609 -1.0694 -0.4312 -1.1300
 5403TIP3   OH216149   3.200   5.790   2.861 -0.1638 -0.0980  0.8000
 5403TIP3    H116150   3.186   5.714   2.805 -0.5597  0.2413  0.4340
 5403TIP3    H216151   3.276   5.834   2.823 -0.0254 -0.2317  0.9237
 5404TIP3   OH216152   6.264   1.893   4.761 -0.0297  0.1025 -0.1228
 5404TIP3    H116153   6.290   1.984   4.745 -0.9658  0.2628 -0.8364
 5404TIP3    H216154   6.205   1.898   4.836  2.7734 -0.4073  2.3122
 5405TIP3   OH216155   7.967   0.357   5.271  0.9296  0.1781 -0.5559
 5405TIP3    H116156   7.891   0.414   5.262  1.1353  0.2492 -2.0592
 5405TIP3    H216157   7.931   0.270   5.288  0.4929  0.1640 -1.5200
 5406TIP3   OH216158   8.103   0.676   4.937 -0.6307 -0.1118  0.1328
 5406TIP3    H116159   8.099   0.677   4.842 -1.2259  0.5596  0.1526
 5406TIP3    H216160   8.147   0.757   4.961 -0.5016 -0.2666  0.4300
 5407TIP3   OH216161   2.142   6.165   5.170 -0.1474 -0.1593  0.0528
 5407TIP3    H116162   2.103   6.078   5.169 -2.2924  0.7263  0.3091
 5407TIP3    H216163   2.129   6.196   5.260 -0.2750  0.7693 -0.2713
 5408TIP3   OH216164   0.306   7.570   0.935  0.3003 -0.2605  0.1093
 5408TIP3    H116165   0.220   7.535   0.914 -1.0510  2.8840 -0.0571
 5408TIP3    H216166   0.293   7.623   1.014  2.5061 -1.1624  1.1746
 5409TIP3   OH216167   0.987   2.980   6.341 -0.4984  0.1814  0.5426
 5409TIP3    H116168   0.969   3.037   6.416 -1.9732 -3.3461  3.1876
 5409TIP3    H216169   0.906   2.980   6.291 -1.1460 -0.8284  1.5379
 5410TIP3   OH216170   3.181   5.943   2.433 -0.4055  0.3394  0.0996
 5410TIP3    H116171   3.156   5.956   2.525  0.9095 -1.4238  0.7682
 5410TIP3    H216172   3.158   5.852   2.414  2.2259 -0.3523 -0.2538
 5411TIP3   OH216173   5.235   5.031   3.367 -0.6503  0.3207 -0.0392
 5411TIP3    H116174   5.271   4.951   3.329 -0.7820  0.3010 -0.1217
 5411TIP3    H216175   5.229   5.013   3.461 -1.1297  0.0589 -0.1165
 5412TIP3   OH216176   5.448   7.744   0.201  0.3961  0.5585 -0.0564
 5412TIP3    H116177   5.394   7.765   0.278  0.3910 -1.3114  0.4911
 5412TIP3    H216178   5.510   7.816   0.196  0.8679  0.3980  2.1505
 5413TIP3   OH216179   5.840   4.008   2.450 -0.4542  0.4678  0.3379
 5413TIP3    H116180   5.801   3.997   2.536 -0.3435 -0.3454  0.2952
 5413TIP3    H216181   5.840   3.920   2.412  0.6602  0.5857  0.0169
 5414TIP3   OH216182   5.428   2.084   3.918 -0.0906  0.1497  0.1031
 5414TIP3    H116183   5.371   2.124   3.984 -1.9568 -1.8358 -0.1732
 5414TIP3    H216184   5.439   1.993   3.947 -0.1547 -0.5124 -1.7668
 5415TIP3   OH216185   2.509   4.180   3.492 -0.4360 -0.8754 -0.0736
 5415TIP3    H116186   2.543   4.108   3.438 -1.7329 -0.9327 -0.8621
 5415TIP3    H216187   2.420   4.194   3.460 -0.5723  0.3960  0.7778
 5416TIP3   OH216188   0.550   2.557   2.865 -0.1005  0.0756 -0.0295
 5416TIP3    H116189   0.613   2.587   2.799  0.0319  1.1749  0.5711
 5416TIP3    H216190   0.465   2.563   2.821  0.1032 -0.3778 -0.4931
 5417TIP3   OH216191   2.079   0.678   3.836 -0.0932 -0.0273 -0.4412
 5417TIP3    H116192   2.113   0.612   3.897 -2.8895 -0.9260  0.3045
 5417TIP3    H216193   2.065   0.630   3.755  1.2071  0.5607 -1.0407
 5418TIP3   OH216194   4.526   3.585   4.459 -0.3290 -0.3596  0.0111
 5418TIP3    H116195   4.543   3.663   4.406 -0.9988 -0.9790 -1.1623
 5418TIP3    H216196   4.580   3.517   4.420  0.3335 -0.4857  1.0966
 5419TIP3   OH216197   7.082   5.477   0.672  0.3636  0.6701  0.1317
 5419TIP3    H116198   7.015   5.456   0.737  0.2603  0.1862 -0.1236
 5419TIP3    H216199   7.137   5.400   0.669 -0.3004  0.2132 -1.1722
 5420TIP3   OH216200   8.123   3.995   5.908 -0.5529  0.4283 -0.2911
 5420TIP3    H116201   8.104   3.991   5.814 -2.2450 -1.5494  0.0526
 5420TIP3    H216202   8.038   3.983   5.949  0.4562 -1.1715  1.4769
 5421TIP3   OH216203   2.134   4.111   4.189  0.3945 -0.4410  0.1559
 5421TIP3    H116204   2.137   4.076   4.100  2.9850  1.6613 -0.7141
 5421TIP3    H216205   2.178   4.045   4.243 -1.6264 -1.9512  0.0484
 5422TIP3   OH216206   3.008   3.625   5.969  0.1697  0.2229 -0.5134
 5422TIP3    H116207   3.098   3.621   6.003 -0.3455 -0.0486  0.8699
 5422TIP3    H216208   2.966   3.546   6.002 -0.1883 -0.4151 -2.3806
 5423TIP3   OH216209   0.132   0.443   0.615 -0.2400 -0.0566  0.4819
 5423TIP3    H116210   0.164   0.355   0.599  1.5795  0.9081 -1.8516
 5423TIP3    H216211   0.190   0.478   0.683  0.2584 -0.0698  0.0710
 5424TIP3   OH216212   0.526   6.538   2.486  0.3423 -0.0685 -0.5536
 5424TIP3    H116213   0.599   6.596   2.504 -0.0846  0.3046 -0.0137
 5424TIP3    H216214   0.522   6.479   2.561  0.3416 -0.3584 -0.7749
 5425TIP3   OH216215   1.541   5.205   2.872 -0.0371  0.3885  0.1423
 5425TIP3    H116216   1.450   5.176   2.870 -0.0890  0.5823 -0.7654
 5425TIP3    H216217   1.591   5.129   2.845  0.2263 -0.1958  2.1351
 5426TIP3   OH216218   2.388   1.724   5.283 -0.1976 -0.1350  0.6228
 5426TIP3    H116219   2.337   1.736   5.202  1.2418  0.3084 -0.2640
 5426TIP3    H216220   2.338   1.660   5.334 -0.8234 -0.9377 -0.9225
 5427TIP3   OH216221   6.471   3.066   3.538  0.2936 -0.0756  0.2842
 5427TIP3    H116222   6.386   3.023   3.533 -0.2539  0.7619  1.8041
 5427TIP3    H216223   6.478   3.115   3.455  0.4492 -2.1257 -0.9674
 5428TIP3   OH216224   2.680   6.887   0.354 -0.1504 -0.0348 -0.4597
 5428TIP3    H116225   2.705   6.970   0.315 -1.4015 -0.1854 -1.6280
 5428TIP3    H216226   2.611   6.852   0.297 -1.3757 -0.7194  1.3190
 5429TIP3   OH216227   8.270   7.542   2.166  0.2451 -0.3695 -0.0047
 5429TIP3    H116228   8.251   7.550   2.073  0.8696 -1.9198 -0.2981
 5429TIP3    H216229   8.184   7.548   2.209  0.0995  1.8056 -0.5316
 5430TIP3   OH216230   1.461   0.369   3.922 -0.5616 -0.0882  0.1895
 5430TIP3    H116231   1.375   0.361   3.880 -0.6534  1.6927 -0.0021
 5430TIP3    H216232   1.442   0.377   4.016 -0.5329 -0.7694  0.2585
 5431TIP3   OH216233   2.355   4.313   4.557  0.0780 -0.6559  0.0079
 5431TIP3    H116234   2.426   4.335   4.617 -1.8238 -0.5366  2.3971
 5431TIP3    H216235   2.397   4.262   4.487  2.4355 -0.7888  1.4094
 5432TIP3   OH216236   3.425   3.953   5.241  0.0770 -0.0157 -0.2318
 5432TIP3    H116237   3.402   3.859   5.241 -3.2531  0.6566 -0.5703
 5432TIP3    H216238   3.468   3.967   5.157  0.3397 -1.1915 -0.3150
 5433TIP3   OH216239   2.921   7.250   0.984 -0.5944 -0.1122  0.0599
 5433TIP3    H116240   2.898   7.312   0.915  0.3712  0.7526  0.4985
 5433TIP3    H216241   3.001   7.208   0.954 -1.3559 -1.3686 -0.3437
 5434TIP3   OH216242   5.399   4.613   5.830  0.0136 -0.0755 -0.0599
 5434TIP3    H116243   5.410   4.520   5.813  1.1220  0.3305 -1.8514
 5434TIP3    H216244   5.406   4.621   5.925 -0.5622 -1.8563  0.1602
 5435TIP3   OH216245   4.453   3.939   5.356  0.3663  0.1698 -0.0447
 5435TIP3    H116246   4.452   3.951   5.451 -0.3948 -1.4448  0.1863
 5435TIP3    H216247   4.385   3.998   5.324 -2.1826 -2.0835  0.8635
 5436TIP3   OH216248   5.516   1.692   6.096 -0.1204 -0.2754  0.0598
 5436TIP3    H116249   5.587   1.752   6.118  1.2393 -2.2156  1.2922
 5436TIP3    H216250   5.531   1.670   6.004 -0.8850  1.4888 -0.5396
 5437TIP3   OH216251   1.707   5.628   6.613  0.1152  1.0899 -0.1246
 5437TIP3    H116252   1.613   5.634   6.630 -0.0076  0.5224 -0.5986
 5437TIP3    H216253   1.736   5.719   6.607 -0.1664  1.2986  1.2808
 5438TIP3   OH216254   2.267   7.648   3.806 -0.2411  0.1110  0.2262
 5438TIP3    H116255   2.362   7.656   3.816 -0.2196  1.7670 -0.8982
 5438TIP3    H216256   2.234   7.735   3.828 -1.3943 -0.1336 -0.4904
 5439TIP3   OH216257   7.378   6.034   4.906 -0.1029 -0.2555  0.3947
 5439TIP3    H116258   7.384   6.099   4.837  0.4342  0.2413  0.8934
 5439TIP3    H216259   7.458   6.047   4.958  0.0528 -1.3535  0.4666
 5440TIP3   OH216260   3.580   7.490   6.148 -0.8872 -0.1616  0.0830
 5440TIP3    H116261   3.526   7.504   6.070 -0.6863 -1.7240 -0.3917
 5440TIP3    H216262   3.560   7.400   6.174  1.4189 -0.7796 -0.0883
 5441TIP3   OH216263   7.040   2.139   6.083 -0.0086  0.0313  0.0642
 5441TIP3    H116264   6.953   2.159   6.117  0.8156 -1.2588  3.2582
 5441TIP3    H216265   7.068   2.220   6.040 -2.5415  0.6128 -0.6453
 5442TIP3   OH216266   1.415   2.896   2.356 -0.4847 -0.0062 -0.1796
 5442TIP3    H116267   1.366   2.973   2.328 -0.2735  0.3918  0.5081
 5442TIP3    H216268   1.396   2.889   2.450 -0.4255 -0.7341 -0.2180
 5443TIP3   OH216269   3.402   5.832   3.505  0.1215 -0.0051  0.1558
 5443TIP3    H116270   3.489   5.872   3.509  0.5068 -0.5581 -1.7851
 5443TIP3    H216271   3.384   5.806   3.595  2.5180 -1.0149  0.4254
 5444TIP3   OH216272   3.462   2.220   1.551  0.6461  0.5172  0.2916
 5444TIP3    H116273   3.419   2.298   1.585 -0.2641  0.1360  0.0565
 5444TIP3    H216274   3.447   2.223   1.457  2.1923  0.9933  0.0300
 5445TIP3   OH216275   4.753   7.665   2.887  0.6885  0.2564  0.2712
 5445TIP3    H116276   4.702   7.715   2.824 -0.5755 -0.5448  0.6279
 5445TIP3    H216277   4.692   7.645   2.958  2.0585  1.0598  1.7272
 5446TIP3   OH216278   4.114   7.192   4.369 -0.0639  0.4607  0.0871
 5446TIP3    H116279   4.157   7.160   4.448 -2.1198  0.2697  1.1795
 5446TIP3    H216280   4.029   7.225   4.398 -1.0086  0.1419 -2.0715
 5447TIP3   OH216281   4.142   5.577   2.246  0.5113 -0.1717 -0.4878
 5447TIP3    H116282   4.225   5.589   2.200  1.0944  1.5141  0.8997
 5447TIP3    H216283   4.106   5.665   2.255  1.2247 -0.1071  3.5764
 5448TIP3   OH216284   4.047   0.490   1.917 -0.2605  0.1249 -0.0172
 5448TIP3    H116285   4.051   0.440   1.835 -0.8849 -0.3415  0.2245
 5448TIP3    H216286   4.117   0.455   1.971 -0.3911 -0.1615 -0.0327
 5449TIP3   OH216287   5.266   0.640   4.585  0.0164  0.1628  0.3206
 5449TIP3    H116288   5.288   0.732   4.599 -0.6167  0.5963 -1.3012
 5449TIP3    H216289   5.181   0.629   4.627  0.2061  0.2545  0.7302
 5450TIP3   OH216290   5.662   2.991   0.107  0.2214  0.6189 -0.0289
 5450TIP3    H116291   5.683   3.081   0.080 -0.8901  0.9181  0.0312
 5450TIP3    H216292   5.689   2.937   0.033 -2.5488  1.4065 -1.7954
 5451TIP3   OH216293   0.515   3.300   5.857  0.2557 -0.3274 -0.0297
 5451TIP3    H116294   0.587   3.255   5.813  0.1198  0.9718 -1.7102
 5451TIP3    H216295   0.516   3.388   5.820 -0.8310  0.3956  1.5476
 5452TIP3   OH216296   2.044   2.894   6.328 -0.6714  0.3980  0.1805
 5452TIP3    H116297   2.036   2.890   6.233 -1.2838  0.8114  0.2117
 5452TIP3    H216298   2.135   2.919   6.343 -0.2123 -0.9162 -0.2623
 5453TIP3   OH216299   6.469   4.108   3.860 -0.2823  0.0676 -0.0115
 5453TIP3    H116300   6.449   4.015   3.850  0.8852 -0.3744  1.2707
 5453TIP3    H216301   6.499   4.136   3.774 -2.9746 -0.0640 -1.0881
 5454TIP3   OH216302   4.460   6.059   3.669 -0.3665  0.3285 -0.2665
 5454TIP3    H116303   4.529   6.064   3.735  0.0452 -0.8488 -0.5814
 5454TIP3    H216304   4.473   6.137   3.614  0.5352  0.2611 -0.1580
 5455TIP3   OH216305   1.282   4.955   4.628  0.2418  0.2630  0.0455
 5455TIP3    H116306   1.216   5.021   4.607 -0.0343 -0.4987 -1.6638
 5455TIP3    H216307   1.363   5.005   4.641  0.0221  0.9799 -1.1359
 5456TIP3   OH216308   3.699   1.438   5.611 -0.7192  0.8001 -0.4979
 5456TIP3    H116309   3.663   1.415   5.697  0.6113  0.4117 -0.0185
 5456TIP3    H216310   3.650   1.384   5.549  0.0880 -0.9101  0.2912
 5457TIP3   OH216311   3.264   1.438   6.834 -0.7296  0.0514 -0.2407
 5457TIP3    H116312   3.329   1.419   6.766  0.0161 -0.9324  0.7175
 5457TIP3    H216313   3.182   1.403   6.798 -0.6601  0.8423 -1.2346
 5458TIP3   OH216314   7.774   2.451   6.143 -0.0553 -0.2806 -0.2728
 5458TIP3    H116315   7.848   2.392   6.159  1.2924  1.4804  0.3526
 5458TIP3    H216316   7.735   2.465   6.230 -1.8568 -1.9990 -0.7196
 5459TIP3   OH216317   3.053   4.496   4.523  0.3081 -0.2448 -0.2879
 5459TIP3    H116318   3.025   4.454   4.442  1.0937 -1.3984  0.0097
 5459TIP3    H216319   3.140   4.460   4.540  0.0001 -0.3350  1.2665
 5460TIP3   OH216320   3.647   3.910   2.847 -0.7195  0.1016  0.2628
 5460TIP3    H116321   3.561   3.875   2.822 -0.7438 -0.4738  1.1186
 5460TIP3    H216322   3.671   3.967   2.774  0.1742 -3.0784 -2.1355
 5461TIP3   OH216323   5.868   5.194   3.774 -0.0864 -0.5835 -0.1626
 5461TIP3    H116324   5.951   5.181   3.820 -0.3904 -0.7033  0.3563
 5461TIP3    H216325   5.860   5.289   3.763 -1.2118 -0.3142  2.3055
 5462TIP3   OH216326   7.205   6.165   6.626  0.5408  0.0739 -0.4005
 5462TIP3    H116327   7.254   6.241   6.656  0.0700  1.0682 -2.0127
 5462TIP3    H216328   7.147   6.144   6.699  0.8029  1.1559  0.1443
 5463TIP3   OH216329   3.271   5.736   4.650 -0.0956 -0.5012  0.1742
 5463TIP3    H116330   3.186   5.709   4.686 -0.0747 -2.0357 -0.8199
 5463TIP3    H216331   3.257   5.827   4.621 -1.4082 -0.7289  0.0391
 5464TIP3   OH216332   4.387   1.365   4.863 -0.0994  0.9753  0.0488
 5464TIP3    H116333   4.334   1.296   4.904  1.7136  0.0603  0.9527
 5464TIP3    H216334   4.326   1.410   4.804 -1.2327 -1.7463 -1.0137
 5465TIP3   OH216335   3.191   2.913   5.654  0.2518 -0.2043  0.0556
 5465TIP3    H116336   3.228   2.995   5.686 -3.0914  1.1013  1.0850
 5465TIP3    H216337   3.121   2.892   5.717 -0.7933 -2.3781 -1.6679
 5466TIP3   OH216338   5.848   5.956   2.745 -0.1348 -0.4926 -0.1430
 5466TIP3    H116339   5.759   5.948   2.779  0.0661  0.6902  0.7448
 5466TIP3    H216340   5.904   5.921   2.815  0.1512 -0.4239 -0.3328
 5467TIP3   OH216341   0.040   0.670   3.163 -0.0251 -0.0188 -0.5826
 5467TIP3    H116342   0.036   0.580   3.132  1.3049 -0.1952 -0.3266
 5467TIP3    H216343   0.009   0.666   3.254  0.0545 -0.2350 -0.5646
 5468TIP3   OH216344   8.324   5.110   5.023  0.4693 -0.1048 -0.1340
 5468TIP3    H116345   8.372   5.063   5.091 -1.6718 -2.3720 -0.0041
 5468TIP3    H216346   8.349   5.201   5.033  1.3599 -0.5733  2.7352
 5469TIP3   OH216347   2.598   1.274   1.944 -0.1188 -0.1754 -0.5687
 5469TIP3    H116348   2.558   1.247   2.026 -1.1058  0.1072 -0.9392
 5469TIP3    H216349   2.678   1.222   1.938 -0.5400 -0.9284  0.0889
 5470TIP3   OH216350   4.758   7.733   5.316 -0.4252 -0.3302  0.5624
 5470TIP3    H116351   4.710   7.651   5.312  1.2286 -1.3770  1.1287
 5470TIP3    H216352   4.845   7.711   5.283 -0.7051  1.8528 -2.0687
 5471TIP3   OH216353   7.164   1.228   6.670 -1.0701 -0.3588  0.1724
 5471TIP3    H116354   7.202   1.223   6.758  1.1712  0.7259 -0.6656
 5471TIP3    H216355   7.154   1.137   6.643 -1.8995 -0.7149  1.5523
 5472TIP3   OH216356   1.534   0.930   4.984 -0.2014  0.0269 -0.8792
 5472TIP3    H116357   1.545   1.023   4.964 -0.1048  0.1731 -0.1499
 5472TIP3    H216358   1.464   0.927   5.049  0.1707 -0.3685 -0.4922
 5473TIP3   OH216359   0.002   2.474   3.693 -0.6216 -0.1172  0.1370
 5473TIP3    H116360   0.073   2.422   3.732 -0.1833  0.6815  0.4184
 5473TIP3    H216361   0.042   2.519   3.619 -1.0938 -0.4578 -0.3391
 5474TIP3   OH216362   6.370   0.642   3.155 -0.3899 -0.3214  0.2339
 5474TIP3    H116363   6.305   0.709   3.133 -1.8616 -1.4220  1.0354
 5474TIP3    H216364   6.335   0.561   3.118  0.8593 -0.8535  0.1459
 5475TIP3   OH216365   5.761   3.950   2.715  0.4437 -0.2552  0.0924
 5475TIP3    H116366   5.770   3.996   2.799  0.6780  1.7486 -0.9725
 5475TIP3    H216367   5.667   3.937   2.704  0.3757  0.0008  0.3713
 5476TIP3   OH216368   7.293   4.648   4.371 -0.0950 -0.5260 -0.1389
 5476TIP3    H116369   7.224   4.681   4.314 -0.0389  0.9349  0.5719
 5476TIP3    H216370   7.256   4.653   4.459  0.8780  0.2566  0.2487
 5477TIP3   OH216371   8.224   1.356   5.874 -0.4151  0.5610  0.1157
 5477TIP3    H116372   8.251   1.323   5.788  0.1605 -0.1165  0.5495
 5477TIP3    H216373   8.253   1.289   5.936 -1.4625  0.6881  0.7809
 5478TIP3   OH216374   3.008   5.213   1.104  0.1484  0.2756 -0.7169
 5478TIP3    H116375   3.080   5.274   1.113 -0.5221  1.1156 -0.9613
 5478TIP3    H216376   3.050   5.127   1.094  1.0797  0.5193  0.8141
 5479TIP3   OH216377   5.006   0.544   2.274 -0.0663 -0.8943  0.2643
 5479TIP3    H116378   5.065   0.534   2.348  0.0937 -0.7286  0.1584
 5479TIP3    H216379   4.918   0.540   2.312  0.0184 -0.1345  0.5530
 5480TIP3   OH216380   4.333   0.068   1.725 -0.2919 -0.3215 -0.1089
 5480TIP3    H116381   4.426   0.062   1.746 -0.1386  0.2242 -0.6014
 5480TIP3    H216382   4.289   0.062   1.809  0.2875  1.4514  0.3655
 5481TIP3   OH216383   6.177   3.082   2.707 -0.1535  0.2553  0.1053
 5481TIP3    H116384   6.092   3.114   2.737 -0.5286 -1.2356  0.6909
 5481TIP3    H216385   6.163   2.990   2.686  0.9651  0.3526 -1.2527
 5482TIP3   OH216386   5.818   3.727   0.512 -1.0791  0.1785  0.3219
 5482TIP3    H116387   5.909   3.727   0.482 -0.9689  0.4122  0.6414
 5482TIP3    H216388   5.806   3.813   0.552 -2.3017  1.2895 -2.2063
 5483TIP3   OH216389   7.466   6.754   0.706  0.0421 -0.2677 -0.0686
 5483TIP3    H116390   7.510   6.778   0.787 -0.8192  1.5114 -0.0754
 5483TIP3    H216391   7.410   6.680   0.730 -0.1039  0.1588  0.9423
 5484TIP3   OH216392   1.279   6.713   0.360 -0.6126 -0.4227 -0.3472
 5484TIP3    H116393   1.324   6.721   0.444 -0.0175 -0.9308 -0.6081
 5484TIP3    H216394   1.344   6.675   0.301 -0.6053  1.1297 -1.3883
 5485TIP3   OH216395   6.403   3.921   2.787  0.2971  0.6474  0.6001
 5485TIP3    H116396   6.431   3.975   2.862  1.2904  1.6314 -0.4285
 5485TIP3    H216397   6.455   3.955   2.714 -0.9402 -0.0333 -0.6174
 5486TIP3   OH216398   5.370   4.919   2.141  0.2014 -0.6690 -0.6489
 5486TIP3    H116399   5.289   4.883   2.104 -0.0825  0.2280 -0.9142
 5486TIP3    H216400   5.435   4.851   2.126 -0.2541 -0.9484 -1.4390
 5487TIP3   OH216401   2.106   1.597   2.877  0.2255 -0.1931  0.2630
 5487TIP3    H116402   2.173   1.562   2.819 -1.9074 -1.8290 -1.3812
 5487TIP3    H216403   2.094   1.529   2.944 -0.6159 -0.4685 -0.1588
 5488TIP3   OH216404   4.987   2.128   6.605  0.8575  0.3750  0.0375
 5488TIP3    H116405   4.924   2.084   6.663  1.1403 -0.7919 -0.4989
 5488TIP3    H216406   4.932   2.171   6.539  0.5573  1.1950  0.8060
 5489TIP3   OH216407   7.684   6.947   1.957 -0.5760  0.2459  0.2312
 5489TIP3    H116408   7.748   6.888   1.995 -1.3391 -2.2452 -2.0116
 5489TIP3    H216409   7.735   7.009   1.905  0.1471  0.7677  1.5017
 5490TIP3   OH216410   5.503   3.235   3.015  0.9598  0.0525 -0.1480
 5490TIP3    H116411   5.519   3.145   3.044  1.0241  0.3532  0.7841
 5490TIP3    H216412   5.443   3.271   3.080  0.6912  0.5850 -0.6881
 5491TIP3   OH216413   7.341   5.854   4.353 -0.4222 -0.0762  0.3550
 5491TIP3    H116414   7.249   5.851   4.377 -0.4535  0.5265  0.3280
 5491TIP3    H216415   7.341   5.865   4.258 -0.3050 -1.3451  0.1864
 5492TIP3   OH216416   4.750   6.089   6.667  0.1962  0.1179  0.2567
 5492TIP3    H116417   4.678   6.066   6.725  1.3683 -2.4432  0.8167
 5492TIP3    H216418   4.719   6.064   6.580  0.4583 -1.1571  0.5195
 5493TIP3   OH216419   5.776   6.003   0.146 -0.2934 -0.3783 -0.2166
 5493TIP3    H116420   5.700   6.045   0.105 -0.7063 -0.2946  0.6287
 5493TIP3    H216421   5.765   5.910   0.125 -0.4484 -0.3229 -0.3836
 5494TIP3   OH216422   8.178   7.525   5.231 -0.1852 -0.0128 -1.1599
 5494TIP3    H116423   8.148   7.583   5.161  1.7917  1.2366 -1.0576
 5494TIP3    H216424   8.118   7.542   5.303  1.3513  3.4441 -0.4741
 5495TIP3   OH216425   1.172   3.138   0.561  0.0286 -0.2416  0.8785
 5495TIP3    H116426   1.114   3.210   0.537 -1.0617 -0.6178  2.2353
 5495TIP3    H216427   1.259   3.177   0.565 -0.3166  0.6366  0.0659
 5496TIP3   OH216428   5.707   6.019   6.269 -0.0821  0.0103 -0.0177
 5496TIP3    H116429   5.679   5.937   6.228 -0.3607 -0.3843  0.9339
 5496TIP3    H216430   5.791   5.998   6.310 -0.4786  0.0131  0.8038
 5497TIP3   OH216431   4.196   5.097   5.688  0.0140  0.3098 -0.2405
 5497TIP3    H116432   4.173   5.147   5.610  0.7445 -1.3224 -1.5689
 5497TIP3    H216433   4.282   5.132   5.714 -0.8664  1.8345  0.7271
 5498TIP3   OH216434   0.205   7.067   1.334 -0.0425  0.2853  0.1749
 5498TIP3    H116435   0.274   7.000   1.326  0.0774  0.4131  0.1350
 5498TIP3    H216436   0.123   7.018   1.328  0.0424  0.2074 -0.4067
 5499TIP3   OH216437   8.334   6.079   2.853  0.1052 -0.4847  0.2738
 5499TIP3    H116438   8.325   6.117   2.766  1.4256  1.2082  0.8091
 5499TIP3    H216439   8.254   6.029   2.866 -1.3964  1.4826 -0.8281
 5500TIP3   OH216440   4.978   0.995   1.560  0.0977 -0.2629 -0.0614
 5500TIP3    H116441   5.057   0.941   1.557  0.8893  0.9345 -2.6012
 5500TIP3    H216442   4.935   0.968   1.642  3.4857 -0.3822  1.8763
 5501TIP3   OH216443   3.947   3.819   4.911 -0.5374 -0.3429 -0.5200
 5501TIP3    H116444   4.008   3.889   4.887 -0.4665  0.3677  1.5319
 5501TIP3    H216445   3.862   3.850   4.879 -0.3024  0.0957 -0.7259
 5502TIP3   OH216446   1.767   5.276   4.217  0.6906  0.3203  0.7266
 5502TIP3    H116447   1.835   5.315   4.272  2.4321 -2.3789  0.6918
 5502TIP3    H216448   1.766   5.183   4.243 -2.0375 -0.0087 -0.2690
 5503TIP3   OH216449   0.080   6.569   2.366  0.0333  0.3358  0.3742
 5503TIP3    H116450   0.152   6.558   2.303 -0.9168 -1.8767 -0.4398
 5503TIP3    H216451   0.044   6.655   2.347  1.1799  0.6303 -0.5945
 5504TIP3   OH216452   2.790   0.583   6.100  0.2542  0.2348  0.0393
 5504TIP3    H116453   2.754   0.499   6.128  0.3853  0.3455  0.5611
 5504TIP3    H216454   2.818   0.569   6.010 -0.8454  0.0715 -0.2907
 5505TIP3   OH216455   1.153   4.354   4.683 -0.2232  0.8270 -0.3269
 5505TIP3    H116456   1.175   4.271   4.725 -0.2142  1.3933  0.8335
 5505TIP3    H216457   1.237   4.394   4.663 -0.2232  0.7665 -0.4449
 5506TIP3   OH216458   0.308   3.827   1.133  0.1497  0.2813  1.1487
 5506TIP3    H116459   0.360   3.806   1.210 -0.4361  1.1533  1.8041
 5506TIP3    H216460   0.351   3.903   1.094  0.0568  0.2615  1.0046
 5507TIP3   OH216461   7.311   4.723   5.301  0.1489  0.4895  0.3710
 5507TIP3    H116462   7.258   4.803   5.302 -0.5480  0.0606 -0.4179
 5507TIP3    H216463   7.401   4.754   5.305 -0.1093  1.3133  0.1177
 5508TIP3   OH216464   5.276   3.695   6.255  0.1204 -0.0604  0.3228
 5508TIP3    H116465   5.225   3.739   6.323  1.3508 -0.8046  1.7834
 5508TIP3    H216466   5.214   3.633   6.216 -0.4186 -0.1863  1.3325
 5509TIP3   OH216467   6.402   1.648   4.651 -0.2010  0.2210  0.1297
 5509TIP3    H116468   6.343   1.717   4.682  0.3113  1.9000 -2.2963
 5509TIP3    H216469   6.465   1.694   4.594  0.3945 -2.1882 -1.3128
 5510TIP3   OH216470   0.661   0.828   4.107  0.5999 -0.3439  0.5875
 5510TIP3    H116471   0.746   0.839   4.066  1.5844 -0.9948  2.3462
 5510TIP3    H216472   0.656   0.735   4.129 -1.3648 -0.7219 -1.0459
 5511TIP3   OH216473   4.159   0.034   6.764  0.1930 -0.0146  0.3284
 5511TIP3    H116474   4.171  -0.050   6.807  1.2302 -0.0112  0.0650
 5511TIP3    H216475   4.097   0.081   6.820 -0.1278 -0.8188  0.6580
 5512TIP3   OH216476   1.264   0.266   6.844  0.1749  0.6898 -0.4484
 5512TIP3    H116477   1.287   0.181   6.806 -0.4200  0.8603 -1.2125
 5512TIP3    H216478   1.185   0.248   6.896  0.0348  0.7784 -0.6301
 5513TIP3   OH216479   7.155   2.897   5.382 -0.0287  0.0791 -0.1023
 5513TIP3    H116480   7.068   2.864   5.359 -2.0832  4.0102  1.1961
 5513TIP3    H216481   7.160   2.983   5.342  2.8036  0.5173  0.9321
 5514TIP3   OH216482   0.708   6.914   6.856 -0.1509 -0.4691  0.1254
 5514TIP3    H116483   0.720   7.008   6.845  1.0726 -0.7071 -0.8490
 5514TIP3    H216484   0.780   6.875   6.807 -1.2133 -1.9422 -0.3361
 5515TIP3   OH216485   6.354   5.348   4.410 -0.3850  0.9603  0.0442
 5515TIP3    H116486   6.284   5.326   4.348  0.5185 -0.8497 -0.4111
 5515TIP3    H216487   6.326   5.309   4.493  0.7753 -1.3176 -0.5372
 5516TIP3   OH216488   5.460   2.595   0.479  0.0350  1.1312 -0.4862
 5516TIP3    H116489   5.507   2.590   0.563  2.0192  1.8720 -1.4822
 5516TIP3    H216490   5.375   2.556   0.497  0.7535  0.3853  1.6372
 5517TIP3   OH216491   4.815   2.943   6.267  0.0429 -0.4095  0.3542
 5517TIP3    H116492   4.730   2.977   6.296  1.1733  2.0819  1.0480
 5517TIP3    H216493   4.867   2.937   6.347  2.1179  3.2489 -0.4753
 5518TIP3   OH216494   7.291   5.680   2.079 -0.9982 -0.2703  0.2135
 5518TIP3    H116495   7.197   5.667   2.063 -0.9778 -0.2647  0.0904
 5518TIP3    H216496   7.310   5.766   2.042 -1.1572  0.1671  1.1305
 5519TIP3   OH216497   7.396   7.240   5.261  0.1230  0.4205  0.1787
 5519TIP3    H116498   7.383   7.156   5.217  2.7194 -0.0556  0.1704
 5519TIP3    H216499   7.456   7.288   5.205 -1.8662  2.6869 -0.1900
 5520TIP3   OH216500   5.455   4.206   3.282 -0.4475 -0.4093 -0.3122
 5520TIP3    H116501   5.424   4.159   3.360 -0.9506  0.1898 -0.1444
 5520TIP3    H216502   5.462   4.138   3.215  0.0756 -0.9507  0.2712
 5521TIP3   OH216503   4.651   0.178   5.952  0.1016 -0.8715 -0.5658
 5521TIP3    H116504   4.623   0.257   5.906 -0.0278 -1.2597 -1.1512
 5521TIP3    H216505   4.747   0.185   5.956 -0.0247  0.9093  2.2292
 5522TIP3   OH216506   0.839   0.929   5.062 -0.2950  0.5835 -0.1028
 5522TIP3    H116507   0.877   0.989   5.126 -1.7301 -0.8845  2.3071
 5522TIP3    H216508   0.783   0.984   5.007  1.4953  1.9917 -0.5966
 5523TIP3   OH216509   4.358   7.792   4.050 -0.1269  0.0154  0.2343
 5523TIP3    H116510   4.331   7.883   4.062  0.4020  0.1829  0.2081
 5523TIP3    H216511   4.440   7.785   4.100  0.3431 -0.1750 -0.5437
 5524TIP3   OH216512   0.181   2.378   2.519  0.2085  0.2535 -0.0791
 5524TIP3    H116513   0.230   2.309   2.563  2.7056  2.2389  0.5041
 5524TIP3    H216514   0.104   2.393   2.574 -0.9938 -2.7044 -0.8085
 5525TIP3   OH216515   5.081   1.525   1.578 -0.2884 -0.4791 -0.2037
 5525TIP3    H116516   5.087   1.435   1.611 -0.4611  0.3617  2.3062
 5525TIP3    H216517   5.108   1.580   1.652 -1.3913  1.5996 -1.2490
 5526TIP3   OH216518   5.042   4.451   2.711  0.6902 -0.6985 -0.8243
 5526TIP3    H116519   5.056   4.543   2.734 -1.9357 -0.3757 -0.2878
 5526TIP3    H216520   5.088   4.402   2.779  2.3751  0.1547 -1.2835
 5527TIP3   OH216521   3.948   2.003   4.304 -0.2706 -0.3331  0.3382
 5527TIP3    H116522   3.939   1.908   4.312 -2.3894 -0.0449  2.6429
 5527TIP3    H216523   3.967   2.033   4.393 -1.6073  1.5258  0.0519
 5528TIP3   OH216524   0.673   4.785   6.853  0.0724  0.4429 -0.1905
 5528TIP3    H116525   0.746   4.800   6.793  0.0061 -0.0252 -0.3855
 5528TIP3    H216526   0.595   4.792   6.799 -0.1588  2.8029  0.3354
 5529TIP3   OH216527   7.770   5.825   6.036 -0.8540 -0.0735 -0.5239
 5529TIP3    H116528   7.817   5.909   6.035 -1.1007  0.1364  1.6177
 5529TIP3    H216529   7.834   5.763   6.071 -2.0701  0.2412  2.5468
 5530TIP3   OH216530   8.008   0.272   0.456 -0.4354  0.3214 -0.4151
 5530TIP3    H116531   8.088   0.286   0.506 -0.4025 -1.9294  0.2675
 5530TIP3    H216532   7.966   0.358   0.455  2.4260  1.8539 -1.7122
 5531TIP3   OH216533   0.483   6.715   5.897  0.2458 -0.7948 -0.0499
 5531TIP3    H116534   0.399   6.668   5.898  0.3583 -1.0009  1.1201
 5531TIP3    H216535   0.507   6.723   5.989  0.6144  0.9047 -0.2680
 5532TIP3   OH216536   6.621   3.540   2.234 -0.6805 -0.1638  0.5044
 5532TIP3    H116537   6.691   3.605   2.243 -1.6399  1.3588 -1.8216
 5532TIP3    H216538   6.554   3.569   2.296 -1.8525  2.3372 -1.6857
 5533TIP3   OH216539   0.429   2.774   0.188 -0.4536 -0.2314  0.2960
 5533TIP3    H116540   0.338   2.801   0.204 -0.4586 -0.0943  0.0401
 5533TIP3    H216541   0.481   2.829   0.247 -0.4438  0.5123 -0.3958
 5534TIP3   OH216542   0.050   2.967   3.858  0.5082  0.2164  0.2847
 5534TIP3    H116543   0.075   3.060   3.861  0.2803  0.2859  0.0681
 5534TIP3    H216544   0.068   2.935   3.947  0.1452  0.5905  0.4982
 5535TIP3   OH216545   4.778   3.705   2.518  0.0380 -0.1051 -0.3583
 5535TIP3    H116546   4.700   3.722   2.465  0.5428 -0.7946 -1.3721
 5535TIP3    H216547   4.790   3.610   2.512  2.0561  0.1840 -1.8716
 5536TIP3   OH216548   2.644   0.219   2.265 -0.2441 -0.1247  0.3059
 5536TIP3    H116549   2.603   0.284   2.322  1.0592  2.1002 -1.1320
 5536TIP3    H216550   2.695   0.164   2.324  0.7568  1.8631  1.3891
 5537TIP3   OH216551   6.137   7.074   6.631 -0.1478 -0.2488 -0.1400
 5537TIP3    H116552   6.125   7.165   6.658 -1.5520 -0.8183  1.3119
 5537TIP3    H216553   6.180   7.033   6.706 -0.3926 -0.9880 -0.4036
 5538TIP3   OH216554   7.830   5.113   1.639  0.1764 -0.1439  0.7353
 5538TIP3    H116555   7.864   5.172   1.571 -1.0554  0.4180  0.5705
 5538TIP3    H216556   7.780   5.047   1.590  0.1335 -0.3317  1.0297
 5539TIP3   OH216557   4.465   1.468   6.334 -0.1642  0.5608  0.2427
 5539TIP3    H116558   4.557   1.493   6.320  0.0778 -1.5896 -2.9716
 5539TIP3    H216559   4.468   1.406   6.407  1.3412 -1.1047 -1.1408
 5540TIP3   OH216560   4.182   2.009   6.599 -0.3293  0.4003 -0.3677
 5540TIP3    H116561   4.126   2.067   6.650 -1.1692 -1.6611  1.1621
 5540TIP3    H216562   4.216   2.065   6.529 -0.3809  2.9446  1.4963
 5541TIP3   OH216563   3.463   7.734   3.946  0.4516 -0.0784 -0.1936
 5541TIP3    H116564   3.527   7.682   3.896 -0.5692 -0.5281 -1.0561
 5541TIP3    H216565   3.510   7.815   3.966  0.8706  0.1412 -1.9440
 5542TIP3   OH216566   2.904   5.547   3.331 -0.7206 -0.2562  0.1825
 5542TIP3    H116567   2.976   5.488   3.355  0.0430  0.2949 -0.6925
 5542TIP3    H216568   2.936   5.594   3.254 -1.9920  0.0693 -0.1702
 5543TIP3   OH216569   2.388   1.167   1.380 -0.4802 -0.0778  0.1121
 5543TIP3    H116570   2.390   1.195   1.472 -0.0747 -2.4100  0.8670
 5543TIP3    H216571   2.463   1.108   1.372 -1.1321 -0.7191 -1.4502
 5544TIP3   OH216572   6.389   0.926   3.638  0.5962  0.1220  0.2916
 5544TIP3    H116573   6.319   0.869   3.670 -1.0827  2.0893  0.3222
 5544TIP3    H216574   6.466   0.901   3.690 -0.4055 -1.2004  1.2050
 5545TIP3   OH216575   6.663   6.108   6.440 -0.4658  0.0356 -0.2146
 5545TIP3    H116576   6.590   6.160   6.409 -1.1151 -1.1281 -0.6996
 5545TIP3    H216577   6.634   6.017   6.431 -0.3265 -0.4270  2.8859
 5546TIP3   OH216578   6.674   2.954   1.593  0.4750  0.1351  0.3676
 5546TIP3    H116579   6.595   2.914   1.557  0.4347  0.9744 -0.4954
 5546TIP3    H216580   6.729   2.879   1.618 -0.7865 -0.4736  1.4710
 5547TIP3   OH216581   3.299   6.251   6.831  0.5344 -0.1742  0.4464
 5547TIP3    H116582   3.385   6.290   6.845  1.0235 -0.7549 -0.8158
 5547TIP3    H216583   3.317   6.161   6.803 -0.4775 -0.3151  0.1823
 5548TIP3   OH216584   7.285   6.301   2.741 -0.0844 -0.0849  0.4768
 5548TIP3    H116585   7.228   6.224   2.749  1.1912 -1.2737 -1.1469
 5548TIP3    H216586   7.272   6.349   2.823 -3.0968 -0.4730  0.3382
 5549TIP3   OH216587   4.627   5.292   2.489 -0.0095  0.2303  0.3675
 5549TIP3    H116588   4.639   5.226   2.558  0.0222 -0.4106 -0.2306
 5549TIP3    H216589   4.658   5.374   2.527 -1.0934  0.1215  1.5128
 5550TIP3   OH216590   7.284   1.459   6.641 -0.7213  0.1603  0.0509
 5550TIP3    H116591   7.293   1.443   6.735 -1.2725  2.1183  0.4817
 5550TIP3    H216592   7.214   1.401   6.613  0.5930 -1.7136  0.4536
 5551TIP3   OH216593   3.801   6.042   2.186 -0.5163 -0.4816  0.5068
 5551TIP3    H116594   3.790   5.979   2.115 -2.8002  0.5565 -0.1453
 5551TIP3    H216595   3.859   6.109   2.150  0.5475 -1.3162  0.6186
 5552TIP3   OH216596   7.337   3.224   6.141  0.2320  0.4334  0.1189
 5552TIP3    H116597   7.259   3.197   6.092 -0.4747  0.4746  1.1951
 5552TIP3    H216598   7.303   3.262   6.222  1.3729 -0.6158  1.1496
 5553TIP3   OH216599   0.379   3.174   0.766 -0.2096  0.3189 -0.3051
 5553TIP3    H116600   0.349   3.088   0.735  0.3125 -0.5158  1.3411
 5553TIP3    H216601   0.394   3.161   0.860  1.5461  1.7466 -0.3367
 5554TIP3   OH216602   3.838   6.300   6.640  0.3281  0.0112 -0.0694
 5554TIP3    H116603   3.915   6.244   6.655  0.7786  0.5270 -0.4383
 5554TIP3    H216604   3.874   6.388   6.631 -0.2271  0.1474 -1.0853
 5555TIP3   OH216605   2.886   1.598   2.979 -0.1062 -0.2585  0.2259
 5555TIP3    H116606   2.822   1.615   3.048  1.4669 -0.3425  1.8006
 5555TIP3    H216607   2.962   1.652   3.004  0.7280 -0.7572 -1.1304
 5556TIP3   OH216608   4.822   2.218   1.596  0.4795  0.5118  0.0052
 5556TIP3    H116609   4.908   2.259   1.598  1.2791 -1.0514 -0.9673
 5556TIP3    H216610   4.839   2.124   1.592 -1.2918 -0.0074  2.3410
 5557TIP3   OH216611   7.320   1.468   3.231  0.1845  0.0725  0.2592
 5557TIP3    H116612   7.306   1.435   3.142 -1.4969 -2.7152  1.4402
 5557TIP3    H216613   7.333   1.390   3.284 -0.1094  1.5722  2.6748
 5558TIP3   OH216614   6.920   4.608   4.995 -0.0943 -0.2361 -0.9516
 5558TIP3    H116615   6.965   4.636   5.074 -2.5175 -1.4979  1.0206
 5558TIP3    H216616   6.990   4.579   4.936  1.7978  0.8441  0.6568
 5559TIP3   OH216617   5.278   1.961   3.715  0.1821  0.3988  0.0082
 5559TIP3    H116618   5.314   1.961   3.803  1.7582 -1.4661 -0.5756
 5559TIP3    H216619   5.299   2.048   3.681  3.4348 -0.2219  0.0577
 5560TIP3   OH216620   0.689   4.961   0.987  0.3236  0.2121 -0.2461
 5560TIP3    H116621   0.630   4.898   0.947  1.7160 -0.1731 -1.8263
 5560TIP3    H216622   0.726   5.009   0.913  0.5648  1.7371  0.8136
 5561TIP3   OH216623   8.260   4.780   4.957  0.5623 -0.0503 -0.1891
 5561TIP3    H116624   8.294   4.747   4.873 -1.5744  0.1653 -1.2035
 5561TIP3    H216625   8.334   4.772   5.017  1.8865 -1.1131 -1.8520
 5562TIP3   OH216626   4.190   4.850   0.223 -0.7298 -0.3803  0.5271
 5562TIP3    H116627   4.159   4.903   0.296  0.2300 -0.2880  0.8818
 5562TIP3    H216628   4.273   4.889   0.198  0.6428 -2.4229  1.6213
 5563TIP3   OH216629   1.366   0.359   2.041  0.0389 -0.4383 -0.4901
 5563TIP3    H116630   1.291   0.341   2.097 -0.3926  1.2035 -0.4766
 5563TIP3    H216631   1.436   0.305   2.076  0.1232  1.3822  2.4355
 5564TIP3   OH216632   6.213   1.630   2.812 -0.0774 -0.0428 -0.0858
 5564TIP3    H116633   6.253   1.631   2.898 -0.0794 -0.3139 -0.0806
 5564TIP3    H216634   6.201   1.722   2.790  1.8113  0.1074 -0.6795
 5565TIP3   OH216635   0.418   1.598   3.778  0.1648  0.5293 -0.4631
 5565TIP3    H116636   0.360   1.554   3.840 -0.4430  1.1785 -0.5579
 5565TIP3    H216637   0.503   1.601   3.822 -0.3385  1.2732  0.4742
 5566TIP3   OH216638   4.296   3.650   1.323 -0.2087  0.0485  0.0550
 5566TIP3    H116639   4.232   3.713   1.292  2.0030  3.0757  1.0856
 5566TIP3    H216640   4.381   3.687   1.297  1.2515 -2.7538  0.4010
 5567TIP3   OH216641   4.377   0.411   6.480  0.1517  0.0302 -0.3360
 5567TIP3    H116642   4.448   0.474   6.488  1.8757 -1.9251  0.7894
 5567TIP3    H216643   4.307   0.446   6.535  0.8293  1.2315 -0.2036
 5568TIP3   OH216644   7.003   1.144   3.624 -0.4679 -0.1970  0.0892
 5568TIP3    H116645   6.925   1.095   3.600 -0.9541  0.2875  0.6529
 5568TIP3    H216646   7.041   1.094   3.697 -1.2358  0.4954  0.9971
 5569TIP3   OH216647   4.454   0.432   0.448  0.1715  0.3043 -0.2912
 5569TIP3    H116648   4.458   0.368   0.377  1.2186 -0.8420  0.7376
 5569TIP3    H216649   4.419   0.511   0.408  2.2936  0.2481 -2.4872
 5570TIP3   OH216650   4.781   4.223   0.471 -0.6342  0.5044  0.3127
 5570TIP3    H116651   4.707   4.162   0.464 -0.5873  0.5868 -1.0187
 5570TIP3    H216652   4.786   4.243   0.565 -0.1113 -2.1975  0.9428
 5571TIP3   OH216653   6.920   7.309   1.359  0.0211  0.7754 -0.0557
 5571TIP3    H116654   6.945   7.224   1.396  0.1616  0.3204 -1.1780
 5571TIP3    H216655   6.919   7.368   1.435 -0.0604 -0.2140  0.7360
 5572TIP3   OH216656   1.423   6.143   1.475  0.3027 -0.1054  0.2347
 5572TIP3    H116657   1.490   6.085   1.439 -0.6733 -0.2460 -1.4876
 5572TIP3    H216658   1.471   6.203   1.532  1.5935 -1.4142  0.5800
 5573TIP3   OH216659   3.790   6.064   5.369  0.3982 -0.4924  0.2205
 5573TIP3    H116660   3.704   6.050   5.329  0.1799  1.7494 -0.2225
 5573TIP3    H216661   3.771   6.099   5.456  0.7985  1.6595 -0.5108
 5574TIP3   OH216662   7.889   6.692   4.969  0.4291  0.3120 -0.3494
 5574TIP3    H116663   7.865   6.600   4.956  0.4847  0.2830 -0.2453
 5574TIP3    H216664   7.888   6.704   5.064 -1.1194  0.8296 -0.3991
 5575TIP3   OH216665   8.215   4.191   3.658 -0.3891  0.5793  0.0356
 5575TIP3    H116666   8.197   4.121   3.596 -0.2536  0.2727  0.3346
 5575TIP3    H216667   8.138   4.194   3.714  0.7208 -1.2605  1.8075
 5576TIP3   OH216668   6.140   0.391   3.159 -0.6851 -0.7634 -0.0909
 5576TIP3    H116669   6.106   0.382   3.248 -2.9087 -1.8925 -0.9561
 5576TIP3    H216670   6.158   0.301   3.131 -3.0762 -0.8159 -1.7862
 5577TIP3   OH216671   6.384   3.095   5.513 -0.0774 -0.8889 -0.1709
 5577TIP3    H116672   6.428   3.036   5.574  0.9412 -0.1943 -0.2154
 5577TIP3    H216673   6.293   3.065   5.512  0.3249 -2.1662  0.1473
 5578TIP3   OH216674   4.272   1.353   5.302  0.0525 -0.5443  0.0728
 5578TIP3    H116675   4.363   1.329   5.315 -0.2987 -1.8312  0.2898
 5578TIP3    H216676   4.264   1.441   5.340  1.7707  0.7207 -2.2197
 5579TIP3   OH216677   2.757   6.611   3.985  0.3257 -0.1623 -0.0608
 5579TIP3    H116678   2.677   6.583   3.940  1.2906 -0.5397 -1.6113
 5579TIP3    H216679   2.747   6.706   3.993 -0.6674 -0.3096  0.5676
 5580TIP3   OH216680   4.757   0.702   5.276  0.6772  0.0772 -0.2987
 5580TIP3    H116681   4.810   0.646   5.332 -1.4730 -2.0195 -0.2337
 5580TIP3    H216682   4.685   0.731   5.332  0.6799  1.3201 -0.8996
 5581TIP3   OH216683   7.776   3.791   6.052  0.8600  0.2847 -0.5291
 5581TIP3    H116684   7.689   3.817   6.020  0.3604  1.5638  1.6445
 5581TIP3    H216685   7.821   3.874   6.067  0.9372 -0.1709  2.1998
 5582TIP3   OH216686   0.860   7.396   1.665  0.2331  0.2571 -0.5307
 5582TIP3    H116687   0.811   7.471   1.632  0.9949  1.2310  0.4603
 5582TIP3    H216688   0.905   7.360   1.588 -0.9095  0.1948 -1.1877
 5583TIP3   OH216689   2.124   1.764   0.574 -0.2128 -0.0097  0.3017
 5583TIP3    H116690   2.196   1.736   0.632 -0.1839 -0.7408 -0.0669
 5583TIP3    H216691   2.062   1.808   0.632 -0.5257 -1.3454  1.0486
 5584TIP3   OH216692   3.379   3.924   4.273 -0.1326 -0.0519 -0.2704
 5584TIP3    H116693   3.396   3.838   4.310  0.0007 -0.2473 -0.7833
 5584TIP3    H216694   3.365   3.908   4.180 -0.6118  0.4184 -0.2859
 5585TIP3   OH216695   3.803   1.252   6.522  0.2241 -0.1549 -0.1442
 5585TIP3    H116696   3.820   1.345   6.532 -1.0266  0.0550  0.2636
 5585TIP3    H216697   3.859   1.210   6.587  0.4551  0.3519 -0.0163
 5586TIP3   OH216698   6.876   7.210   0.945 -0.2452 -0.2669  0.3532
 5586TIP3    H116699   6.927   7.243   0.871  0.5741 -1.1858  0.4818
 5586TIP3    H216700   6.785   7.229   0.922  0.1183  1.1007 -0.0395
 5587TIP3   OH216701   8.175   5.248   0.092 -0.3601 -0.0739 -0.5207
 5587TIP3    H116702   8.084   5.243   0.062 -0.3858 -1.9871 -0.2236
 5587TIP3    H216703   8.202   5.157   0.103  0.7438  0.4699  1.9193
 5588TIP3   OH216704   2.955   7.367   1.281 -0.3459  0.3487  0.2342
 5588TIP3    H116705   2.951   7.463   1.281  3.6154  0.6752  0.0421
 5588TIP3    H216706   2.961   7.343   1.189  1.8721  0.2458  0.3659
 5589TIP3   OH216707   2.630   7.401   2.002 -0.2707  0.2847  0.6543
 5589TIP3    H116708   2.550   7.398   2.055  0.3598 -0.2740  1.6203
 5589TIP3    H216709   2.654   7.309   1.990  0.8233  0.4606  1.3329
 5590TIP3   OH216710   3.451   5.676   0.052 -1.0781  0.0070  0.1841
 5590TIP3    H116711   3.544   5.660   0.072 -0.9708  0.9156  0.4648
 5590TIP3    H216712   3.409   5.684   0.138 -1.1642  0.9203  0.0698
 5591TIP3   OH216713   3.138   0.776   3.426  0.1818  0.4273  0.2489
 5591TIP3    H116714   3.113   0.708   3.363  2.3058 -2.1633  2.0142
 5591TIP3    H216715   3.200   0.831   3.377 -1.0211  0.7514 -0.9861
 5592TIP3   OH216716   6.945   4.598   0.926 -0.3837 -0.1484  0.5964
 5592TIP3    H116717   6.889   4.675   0.912 -0.1464  0.1590  1.2833
 5592TIP3    H216718   6.986   4.614   1.011  1.8162  0.3267 -0.4708
 5593TIP3   OH216719   2.374   1.078   4.228 -0.3048  0.0766 -0.2702
 5593TIP3    H116720   2.459   1.035   4.216 -0.3231 -0.3169  0.9123
 5593TIP3    H216721   2.348   1.104   4.140  1.8009  1.6402 -0.5314
 5594TIP3   OH216722   6.974   0.033   2.703  0.0925  0.7448  0.3410
 5594TIP3    H116723   6.953  -0.045   2.652  0.2432  1.0749 -0.2391
 5594TIP3    H216724   6.943   0.106   2.649  0.3069  1.1023  0.6958
 5595TIP3   OH216725   3.120   5.348   1.981 -0.5299  0.3047  0.1986
 5595TIP3    H116726   3.200   5.367   1.933 -0.1887  1.2007  1.0855
 5595TIP3    H216727   3.056   5.411   1.948 -0.7540 -0.1258 -0.2014
 5596TIP3   OH216728   4.369   0.053   4.819 -0.6981 -0.4301  0.4780
 5596TIP3    H116729   4.293   0.034   4.875 -1.9580  0.7171 -0.7612
 5596TIP3    H216730   4.437   0.082   4.880 -1.6918 -0.2190  1.5252
 5597TIP3   OH216731   5.738   1.166   3.528  0.2598 -0.1804 -0.3802
 5597TIP3    H116732   5.779   1.239   3.481 -1.4903 -0.3283 -2.2400
 5597TIP3    H216733   5.717   1.202   3.614 -0.9415  1.6962 -1.3879
 5598TIP3   OH216734   0.738   3.355   3.830 -0.3969 -0.4078  0.8633
 5598TIP3    H116735   0.716   3.262   3.822 -0.6070 -0.3071  0.2155
 5598TIP3    H216736   0.654   3.398   3.844 -0.3822 -0.2413  0.4456
 5599TIP3   OH216737   0.484   6.314   2.668 -0.1894 -0.1791  0.4220
 5599TIP3    H116738   0.478   6.350   2.757  0.3553  0.8085  0.0655
 5599TIP3    H216739   0.568   6.268   2.667 -0.6574 -1.0751  0.7190
 5600TIP3   OH216740   4.583   2.297   5.807  0.2171  0.0577 -0.4505
 5600TIP3    H116741   4.611   2.385   5.833 -1.4002 -0.0366  2.0142
 5600TIP3    H216742   4.493   2.308   5.775  0.3339 -0.5805 -1.0284
 5601TIP3   OH216743   4.021   4.271   5.798  0.2434  0.4953 -0.1217
 5601TIP3    H116744   4.047   4.360   5.823 -0.1799  0.9491 -1.2342
 5601TIP3    H216745   3.958   4.283   5.727  1.5228 -0.7121 -1.5470
 5602TIP3   OH216746   4.806   4.902   1.355  0.4228  0.1261 -0.1163
 5602TIP3    H116747   4.859   4.949   1.420 -0.3093 -0.6430  1.0694
 5602TIP3    H216748   4.783   4.969   1.290  0.7200  1.0365  0.6920
 5603TIP3   OH216749   1.069   1.917   3.080 -0.1205  0.0551 -0.0176
 5603TIP3    H116750   0.985   1.961   3.068 -0.1590  0.1762  0.6708
 5603TIP3    H216751   1.088   1.877   2.995 -1.7062 -1.4500  0.2941
 5604TIP3   OH216752   3.950   3.515   3.610 -0.1434 -0.2331  0.5251
 5604TIP3    H116753   3.937   3.564   3.691 -0.8937 -1.4716  1.2036
 5604TIP3    H216754   4.043   3.493   3.610 -0.0993 -0.0592  0.9709
 5605TIP3   OH216755   3.366   6.242   5.188 -0.1926  0.3119 -0.2244
 5605TIP3    H116756   3.366   6.162   5.135 -0.8591 -0.9087  1.5158
 5605TIP3    H216757   3.458   6.268   5.194 -0.1497  0.9281 -2.5223
 5606TIP3   OH216758   2.485   0.703   2.029  0.6406  0.2303 -0.0452
 5606TIP3    H116759   2.490   0.614   1.994  0.4675  0.3630 -0.4092
 5606TIP3    H216760   2.395   0.730   2.015  0.4663  0.1460  0.8634
 5607TIP3   OH216761   3.551   2.276   2.010 -0.4164 -0.3448  0.1989
 5607TIP3    H116762   3.547   2.282   2.105 -0.6361  0.0477  0.1665
 5607TIP3    H216763   3.637   2.311   1.987 -0.6106  0.1408  0.2090
 5608TIP3   OH216764   5.542   5.338   2.967 -0.5851  1.2214 -0.0778
 5608TIP3    H116765   5.539   5.348   3.062 -0.2880 -2.3122  0.4379
 5608TIP3    H216766   5.624   5.379   2.942 -0.2192  1.4243  1.3328
 5609TIP3   OH216767   1.414   4.912   0.522  0.5236 -0.0796  0.5336
 5609TIP3    H116768   1.406   4.860   0.602  0.0804  0.9517  1.1801
 5609TIP3    H216769   1.419   5.003   0.552  2.8021  0.2073 -0.4722
 5610TIP3   OH216770   6.866   5.808   6.345  0.2120 -0.4390  0.0221
 5610TIP3    H116771   6.825   5.850   6.269  0.1087  1.8442  1.2867
 5610TIP3    H216772   6.876   5.716   6.318 -3.8840 -0.7509 -1.1444
 5611TIP3   OH216773   3.597   4.823   2.419  0.6689  0.0997  0.4604
 5611TIP3    H116774   3.590   4.918   2.427  2.6656  0.2881  0.2859
 5611TIP3    H216775   3.690   4.806   2.411  0.2384 -1.7032 -1.7681
 5612TIP3   OH216776   4.522   3.933   1.825  0.3826  0.0803  0.8188
 5612TIP3    H116777   4.430   3.946   1.800  0.1694 -0.6466  1.2074
 5612TIP3    H216778   4.532   3.838   1.831  2.0482 -0.1121 -2.5818
 5613TIP3   OH216779   7.992   1.937   3.257 -0.1872  0.1206  0.4139
 5613TIP3    H116780   7.964   1.983   3.178  1.1218 -0.7208 -0.5944
 5613TIP3    H216781   7.912   1.926   3.308 -0.8878  1.6401 -0.2689
 5614TIP3   OH216782   5.978   5.873   2.973  0.2630 -0.0897 -0.7230
 5614TIP3    H116783   5.946   5.862   3.062 -1.2813 -0.4965 -1.2986
 5614TIP3    H216784   6.051   5.811   2.967  0.2843 -0.1698  0.2056
 5615TIP3   OH216785   2.266   2.943   1.862 -0.5365  0.3975 -0.4342
 5615TIP3    H116786   2.198   2.961   1.797  0.1858  0.8333 -1.0973
 5615TIP3    H216787   2.317   2.871   1.823 -1.1027 -0.4994  0.4385
 5616TIP3   OH216788   6.690   2.576   0.873  0.4176 -0.4240 -0.1393
 5616TIP3    H116789   6.776   2.543   0.846  0.6873  1.2307 -1.4687
 5616TIP3    H216790   6.684   2.663   0.833 -1.8732 -0.4866 -0.0639
 5617TIP3   OH216791   2.647   0.539   0.360 -0.8253  0.5237  0.1075
 5617TIP3    H116792   2.730   0.529   0.313 -1.2115  0.0640 -0.5030
 5617TIP3    H216793   2.583   0.494   0.304 -1.3159  0.0485  1.0324
 5618TIP3   OH216794   0.024   1.374   3.977 -0.1290 -0.1778 -0.1833
 5618TIP3    H116795  -0.039   1.423   3.924  1.6847  2.3879 -0.1511
 5618TIP3    H216796   0.099   1.361   3.919  0.1957 -1.2010  0.4486
 5619TIP3   OH216797   3.364   1.157   0.199 -0.1362  0.1808  0.2790
 5619TIP3    H116798   3.328   1.091   0.259  0.4869  0.0862  0.5477
 5619TIP3    H216799   3.445   1.118   0.167  1.1981  1.5572  1.8253
 5620TIP3   OH216800   5.451   4.844   4.108 -0.0543 -0.1460  0.1702
 5620TIP3    H116801   5.389   4.897   4.058  1.0085  1.5747  0.5653
 5620TIP3    H216802   5.468   4.768   4.052 -0.7937  0.4882 -0.9682
 5621TIP3   OH216803   1.226   0.534   2.625 -0.2157  0.4427  0.1596
 5621TIP3    H116804   1.136   0.564   2.638 -0.6990 -0.8701 -0.0015
 5621TIP3    H216805   1.262   0.593   2.559 -1.1716  0.5742 -0.2547
 5622TIP3   OH216806   6.318   0.085   4.741 -0.0719  0.3457  0.0324
 5622TIP3    H116807   6.290   0.028   4.669  2.1848  0.5058 -1.0330
 5622TIP3    H216808   6.242   0.087   4.800 -1.1499 -1.6539 -1.1711
 5623TIP3   OH216809   3.168   6.213   0.795 -0.3664  0.2104  0.5914
 5623TIP3    H116810   3.161   6.137   0.738  3.4092 -0.2114  0.4581
 5623TIP3    H216811   3.137   6.182   0.881 -2.0265 -0.3948 -0.1793
 5624TIP3   OH216812   3.547   3.679   1.377 -0.1059 -0.0802  0.5409
 5624TIP3    H116813   3.529   3.731   1.299  0.2361 -0.8580 -0.0790
 5624TIP3    H216814   3.578   3.742   1.442  1.5258  0.3506 -0.5877
 5625TIP3   OH216815   1.649   1.556   4.837  0.2752  0.7300  0.0658
 5625TIP3    H116816   1.620   1.581   4.749 -0.7185 -1.4999 -0.3069
 5625TIP3    H216817   1.689   1.470   4.826  1.7432  1.1636  1.5571
 5626TIP3   OH216818   7.121   4.385   2.822 -0.0051  0.0631 -0.5900
 5626TIP3    H116819   7.169   4.466   2.837  0.3871 -0.2734  0.0111
 5626TIP3    H216820   7.107   4.382   2.727  0.2308  0.6842 -0.6485
 5627TIP3   OH216821   1.619   3.179   5.384 -0.2529  0.2135 -0.0837
 5627TIP3    H116822   1.659   3.264   5.404 -0.6554  0.8509 -1.8513
 5627TIP3    H216823   1.573   3.155   5.465 -0.5091  1.8931  0.3041
 5628TIP3   OH216824   5.533   0.318   4.365 -0.4000 -0.6157  0.0206
 5628TIP3    H116825   5.606   0.324   4.302 -1.1688 -2.1923 -1.0999
 5628TIP3    H216826   5.455   0.314   4.310 -1.2760  0.1102  1.1817
 5629TIP3   OH216827   5.511   3.946   0.426  0.4925 -0.3613  0.4286
 5629TIP3    H116828   5.470   3.876   0.376  3.9262 -2.6783  0.5358
 5629TIP3    H216829   5.501   4.024   0.370  0.3170 -1.8682 -1.7854
 5630TIP3   OH216830   2.363   3.061   2.219 -0.3303 -0.4701 -0.9530
 5630TIP3    H116831   2.380   3.149   2.186 -0.3205 -0.1429 -0.1018
 5630TIP3    H216832   2.269   3.058   2.235 -0.4744 -0.9165 -1.7958
 5631TIP3   OH216833   0.692   1.579   4.229  0.2658 -0.2402  0.0906
 5631TIP3    H116834   0.615   1.603   4.177  0.0953 -2.0779 -0.5846
 5631TIP3    H216835   0.766   1.607   4.176  0.0927 -2.1059 -1.2356
 5632TIP3   OH216836   3.751   7.508   5.135 -0.0458 -0.0334  0.1742
 5632TIP3    H116837   3.725   7.562   5.060 -0.2292 -1.5470 -0.9015
 5632TIP3    H216838   3.804   7.567   5.189 -1.9712  1.8263  0.1734
 5633TIP3   OH216839   6.089   6.658   2.591  0.0947 -0.0897  0.3859
 5633TIP3    H116840   6.061   6.652   2.682  0.3670  0.9397  0.5565
 5633TIP3    H216841   6.036   6.593   2.545  0.4160 -1.0712  1.3761
 5634TIP3   OH216842   4.779   5.809   4.549 -0.0881 -0.0756 -0.2031
 5634TIP3    H116843   4.803   5.838   4.461 -0.6088  1.1402  0.0330
 5634TIP3    H216844   4.806   5.880   4.607 -0.5418 -0.4681  0.5192
 5635TIP3   OH216845   1.031   3.019   5.303 -0.2934 -0.2395 -0.0674
 5635TIP3    H116846   1.017   2.927   5.325  1.0973 -0.8045 -1.3882
 5635TIP3    H216847   1.121   3.023   5.272 -0.3461  1.5697 -0.1005
 5636TIP3   OH216848   7.588   6.394   1.817  0.1356  0.2429  0.1753
 5636TIP3    H116849   7.509   6.429   1.776 -1.2127 -0.4568  2.0485
 5636TIP3    H216850   7.649   6.467   1.819 -0.5030  0.8399 -1.1543
 5637TIP3   OH216851   3.310   3.142   2.898 -0.5546  0.3866 -0.2969
 5637TIP3    H116852   3.240   3.177   2.953  0.0396 -0.7557  1.2740
 5637TIP3    H216853   3.310   3.048   2.917 -0.8617 -0.2255 -2.9169
 5638TIP3   OH216854   8.087   0.780   1.684  0.0263 -0.2397  0.2225
 5638TIP3    H116855   8.054   0.701   1.724 -0.3595  0.3629  1.1199
 5638TIP3    H216856   8.103   0.840   1.757  0.9138  0.2887 -0.3792
 5639TIP3   OH216857   6.380   7.629   5.569 -0.2430 -0.5768  0.2977
 5639TIP3    H116858   6.369   7.543   5.528  0.5595 -0.7761  0.4783
 5639TIP3    H216859   6.300   7.643   5.619 -1.1062 -0.4701 -1.0846
 5640TIP3   OH216860   0.409   6.996   6.743  0.3466  0.3797  0.2000
 5640TIP3    H116861   0.499   6.973   6.723  0.0331 -0.5852 -0.1549
 5640TIP3    H216862   0.411   7.091   6.758  1.3789  0.3947  0.0276
 5641TIP3   OH216863   3.304   3.864   4.019  0.0353  0.1196  0.5725
 5641TIP3    H116864   3.286   3.943   3.969 -0.5428  0.0209  0.6137
 5641TIP3    H216865   3.273   3.793   3.963  0.6611 -0.0910  0.4833
 5642TIP3   OH216866   7.245   3.581   4.909 -0.2049  0.2186  0.0700
 5642TIP3    H116867   7.271   3.661   4.863  2.7104 -0.8135 -0.3234
 5642TIP3    H216868   7.244   3.514   4.841 -0.6735 -0.4411  0.7153
 5643TIP3   OH216869   2.862   4.978   0.239 -0.4286  0.9334 -0.1609
 5643TIP3    H116870   2.799   5.001   0.171  0.3891  1.1786 -0.8492
 5643TIP3    H216871   2.827   5.019   0.318 -1.2047  0.9443 -0.5013
 5644TIP3   OH216872   4.721   4.534   3.406  0.3105  0.2577  0.0993
 5644TIP3    H116873   4.779   4.568   3.473  0.0522  1.0565 -0.0682
 5644TIP3    H216874   4.750   4.577   3.325 -0.2514  0.3693 -0.0517
 5645TIP3   OH216875   5.003   3.986   1.561  0.0948 -0.4259  0.0215
 5645TIP3    H116876   5.019   3.987   1.466  1.1347 -1.8867  0.1479
 5645TIP3    H216877   5.035   3.900   1.590 -2.2005 -0.9057  1.3750
 5646TIP3   OH216878   7.898   2.787   6.169 -0.8376 -0.5092 -0.0902
 5646TIP3    H116879   7.926   2.752   6.253  0.0374  0.0254 -0.1403
 5646TIP3    H216880   7.952   2.865   6.156 -1.3125 -0.2999 -0.9121
 5647TIP3   OH216881   0.783   3.120   0.796  0.3844 -0.1346  0.8593
 5647TIP3    H116882   0.807   3.028   0.788 -2.8985 -1.1744  1.4559
 5647TIP3    H216883   0.724   3.136   0.722  0.4153  1.3254  1.1091
 5648TIP3   OH216884   5.051   0.797   4.211 -0.2174  0.4068 -0.3947
 5648TIP3    H116885   5.145   0.814   4.214 -0.3146  0.8756  0.3828
 5648TIP3    H216886   5.019   0.850   4.137  0.1692 -0.0097 -0.8649
 5649TIP3   OH216887   7.064   0.476   2.602 -0.3392 -0.1978  0.5017
 5649TIP3    H116888   7.077   0.475   2.697 -0.5452 -2.2194  0.5516
 5649TIP3    H216889   7.088   0.388   2.574 -1.0202  0.1343 -1.2318
 5650TIP3   OH216890   0.489   3.975   0.311  0.0510  0.1960 -0.2269
 5650TIP3    H116891   0.411   3.922   0.330  1.0552 -1.3256 -0.2132
 5650TIP3    H216892   0.456   4.047   0.258 -1.3759 -0.4088 -0.2136
 5651TIP3   OH216893   4.368   4.004   1.150  0.2112 -0.1159  0.0515
 5651TIP3    H116894   4.390   4.097   1.151  1.3430 -0.2637 -2.6771
 5651TIP3    H216895   4.434   3.963   1.206 -0.4102  0.6613  1.4292
 5652TIP3   OH216896   1.909   5.550   1.726 -0.5047 -0.3772 -0.2437
 5652TIP3    H116897   1.839   5.584   1.671 -0.8041 -0.2533  0.2156
 5652TIP3    H216898   1.865   5.510   1.801 -0.0539  0.5326  0.5200
 5653TIP3   OH216899   0.510   3.081   3.673 -0.0816  0.0608  0.1166
 5653TIP3    H116900   0.426   3.109   3.708  0.0066  0.1216  0.2816
 5653TIP3    H216901   0.530   3.144   3.604 -0.2381 -0.0376 -0.0216
 5654TIP3   OH216902   6.759   3.534   0.037 -0.0692  0.3561  0.1100
 5654TIP3    H116903   6.793   3.609   0.086  1.6346 -0.1007 -0.2917
 5654TIP3    H216904   6.803   3.458   0.075 -0.7049 -0.2864 -0.4044
 5655TIP3   OH216905   7.817   5.910   1.666 -0.3011  0.6408 -0.3821
 5655TIP3    H116906   7.789   5.916   1.575  1.7118  1.3525 -0.9942
 5655TIP3    H216907   7.818   6.000   1.698 -0.7292  0.4223  0.2931
 5656TIP3   OH216908   7.757   5.389   2.662 -0.0156 -0.3751  0.3331
 5656TIP3    H116909   7.664   5.411   2.670  0.3902  1.8645 -0.4396
 5656TIP3    H216910   7.789   5.388   2.752 -0.1517  2.1079  0.4735
 5657TIP3   OH216911   3.723   0.116   3.772 -0.6593  0.1068  0.2127
 5657TIP3    H116912   3.785   0.043   3.767 -1.3757 -0.5214  0.3290
 5657TIP3    H216913   3.712   0.144   3.682  0.0376  0.4430  0.2202
 5658TIP3   OH216914   2.179   3.096   1.112 -0.2432  0.8389  0.6048
 5658TIP3    H116915   2.114   3.155   1.073 -1.5833 -1.9270 -1.7613
 5658TIP3    H216916   2.245   3.084   1.043 -0.6752 -1.2872  0.4847
 5659TIP3   OH216917   3.684   4.062   1.976  0.6283  0.7019 -0.3969
 5659TIP3    H116918   3.695   4.039   2.069 -0.4623  0.5127 -0.3017
 5659TIP3    H216919   3.770   4.048   1.938  0.5970 -1.4117  0.1342
 5660TIP3   OH216920   1.212   6.857   3.788  0.3363  0.0593 -0.4084
 5660TIP3    H116921   1.118   6.842   3.802  0.5268 -0.9023 -0.0699
 5660TIP3    H216922   1.216   6.931   3.727 -0.6228  0.5134  0.0694
 5661TIP3   OH216923   7.494   7.056   2.704  0.3944 -0.1673 -0.3028
 5661TIP3    H116924   7.508   7.072   2.611 -0.4398  0.0383 -0.4059
 5661TIP3    H216925   7.449   6.971   2.707  1.0333 -0.5034 -0.0352
 5662TIP3   OH216926   7.730   3.920   5.275 -0.5658  0.2256  0.2652
 5662TIP3    H116927   7.705   3.836   5.312 -0.4149  0.1194  0.1286
 5662TIP3    H216928   7.660   3.941   5.212 -0.1077 -0.2727 -0.4287
 5663TIP3   OH216929   8.299   7.251   2.375 -0.3105  0.5070 -0.0244
 5663TIP3    H116930   8.228   7.310   2.349  0.3299  1.5741  0.5332
 5663TIP3    H216931   8.379   7.299   2.352  0.2360  0.0349  0.8229
 5664TIP3   OH216932   4.549   6.875   4.484  0.0037  0.2127  0.4210
 5664TIP3    H116933   4.460   6.840   4.475 -0.4641  1.6402 -0.8738
 5664TIP3    H216934   4.605   6.798   4.489 -1.3242 -0.7176  1.6633
 5665TIP3   OH216935   0.241   7.303   4.268  0.1652 -0.0012 -0.3421
 5665TIP3    H116936   0.244   7.357   4.347 -0.1406  0.0375 -0.3577
 5665TIP3    H216937   0.312   7.240   4.280 -0.0937 -0.2057  0.1148
 5666TIP3   OH216938   4.954   3.754   6.831  0.3423 -0.3590 -0.0315
 5666TIP3    H116939   4.889   3.715   6.889  1.7178 -0.3209  1.6144
 5666TIP3    H216940   5.038   3.727   6.867  1.3592  2.7384  0.2556
 5667TIP3   OH216941   6.787   1.883   3.622  0.0955  0.4181 -0.1785
 5667TIP3    H116942   6.773   1.856   3.531 -0.6972  1.6151 -0.4447
 5667TIP3    H216943   6.877   1.858   3.641  0.3955  0.4867 -1.4220
 5668TIP3   OH216944   2.006   0.497   1.090  0.0223  0.2792 -0.5906
 5668TIP3    H116945   1.960   0.422   1.128  1.2482 -0.0223  0.3740
 5668TIP3    H216946   1.941   0.568   1.091 -0.5793 -0.2658  0.2098
 5669TIP3   OH216947   2.139   3.784   3.396  0.1219 -0.0448  0.4179
 5669TIP3    H116948   2.059   3.732   3.391 -0.2000  0.4616  0.1835
 5669TIP3    H216949   2.197   3.744   3.331 -0.3367  0.2370 -0.1777
 5670TIP3   OH216950   5.901   6.952   3.765 -0.1847  0.3243 -0.1543
 5670TIP3    H116951   5.901   6.964   3.670 -1.3479 -1.8815 -0.5196
 5670TIP3    H216952   5.974   6.892   3.781 -0.4552  0.0931  0.2294
 5671TIP3   OH216953   3.974   5.971   5.183 -0.1046  0.4633 -0.2768
 5671TIP3    H116954   3.931   6.044   5.227  1.4457  1.7317 -0.7767
 5671TIP3    H216955   4.012   5.920   5.254 -1.1349  0.1458  0.0702
 5672TIP3   OH216956   1.835   1.512   1.266 -0.2606  0.2834  0.3119
 5672TIP3    H116957   1.834   1.559   1.349 -0.8726  2.1487 -0.6894
 5672TIP3    H216958   1.743   1.500   1.244 -0.1105 -1.0819  0.3448
 5673TIP3   OH216959   0.476   5.565   5.366  0.2724 -0.3952 -0.1740
 5673TIP3    H116960   0.503   5.511   5.291  1.1993 -1.4121  0.8543
 5673TIP3    H216961   0.557   5.602   5.400 -0.1897  0.4038  0.0923
 5674TIP3   OH216962   2.530   7.399   5.893 -0.7633  0.2027 -0.1042
 5674TIP3    H116963   2.484   7.319   5.868  1.1175 -0.8900 -0.2015
 5674TIP3    H216964   2.518   7.404   5.988 -5.0329  2.5498 -0.4856
 5675TIP3   OH216965   7.751   5.294   6.592 -0.1496 -0.0897  0.2880
 5675TIP3    H116966   7.791   5.290   6.679  1.2908 -0.1157 -0.3448
 5675TIP3    H216967   7.675   5.235   6.598  1.8384 -2.8036  0.5727
 5676TIP3   OH216968   3.577   0.587   5.796 -0.0491 -0.2436 -0.1048
 5676TIP3    H116969   3.497   0.570   5.845  0.1953 -0.2058  0.3047
 5676TIP3    H216970   3.548   0.641   5.722 -0.5624 -1.0399 -0.5064
 5677TIP3   OH216971   2.750   2.725   1.472  0.0144  0.3986 -0.1562
 5677TIP3    H116972   2.710   2.656   1.525  0.9535 -0.0628 -0.0300
 5677TIP3    H216973   2.773   2.682   1.390  1.7362  0.2159  0.3822
 5678TIP3   OH216974   0.284   3.715   2.302 -0.1090  0.0282 -0.3408
 5678TIP3    H116975   0.246   3.630   2.326 -0.2102  0.1087 -0.2148
 5678TIP3    H216976   0.227   3.747   2.233 -1.0797  0.7673  0.7738
 5679TIP3   OH216977   3.524   5.821   2.010 -0.3795 -0.2111 -0.3148
 5679TIP3    H116978   3.538   5.741   1.960 -2.3368 -0.4832 -0.4968
 5679TIP3    H216979   3.510   5.791   2.100 -0.2268  0.0207 -0.2108
 5680TIP3   OH216980   5.930   2.365   0.919 -0.7034 -0.5570 -0.4788
 5680TIP3    H116981   5.861   2.390   0.858 -0.5410 -1.1815 -0.9382
 5680TIP3    H216982   5.923   2.428   0.991  0.5098  1.5918 -2.1326
 5681TIP3   OH216983   6.509   5.268   2.717  0.1343 -0.1209 -0.4269
 5681TIP3    H116984   6.564   5.346   2.717 -1.2953  0.9408  0.7700
 5681TIP3    H216985   6.561   5.202   2.671  2.0556  1.0535 -0.0547
 5682TIP3   OH216986   0.999   0.404   0.057 -0.2787  0.2154 -0.4534
 5682TIP3    H116987   0.916   0.427   0.016  0.8344  1.2681 -2.2642
 5682TIP3    H216988   1.005   0.309   0.047 -1.3260  0.1060 -0.1567
 5683TIP3   OH216989   7.923   7.101   1.002 -0.2622  0.1176  0.5649
 5683TIP3    H116990   8.008   7.065   0.977  0.1105 -0.0886  2.0068
 5683TIP3    H216991   7.925   7.103   1.098 -1.6174  0.7656  0.6099
 5684TIP3   OH216992   7.654   6.288   5.667  0.5397 -0.3129  0.0606
 5684TIP3    H116993   7.681   6.372   5.628  2.4798  0.3990  2.6721
 5684TIP3    H216994   7.559   6.293   5.670  0.6191  2.4332  1.3096
 5685TIP3   OH216995   2.695   7.365   4.837 -0.1891  0.3688  0.1057
 5685TIP3    H116996   2.754   7.423   4.886  0.0031  3.0774 -2.9609
 5685TIP3    H216997   2.611   7.374   4.880  0.2898  1.4410  0.8687
 5686TIP3   OH216998   4.285   0.443   1.071  0.0094  0.0147  0.4659
 5686TIP3    H116999   4.206   0.497   1.078 -0.1892 -0.3326  1.0061
 5686TIP3    H217000   4.357   0.504   1.087 -0.1536  0.3187  0.0510
 5687TIP3   OH217001   6.742   5.922   3.770  0.1598  0.3228  0.5340
 5687TIP3    H117002   6.727   6.013   3.746  0.8060  0.2223 -0.3118
 5687TIP3    H217003   6.821   5.897   3.721 -1.5897 -1.5209 -1.6159
 5688TIP3   OH217004   3.391   7.299   3.977 -0.6906  0.4332 -0.1417
 5688TIP3    H117005   3.459   7.272   3.914  0.0963  1.5161  0.2136
 5688TIP3    H217006   3.320   7.236   3.964  0.2974 -0.6148 -0.6672
 5689TIP3   OH217007   7.796   7.355   6.334  0.3309 -0.2037 -0.6064
 5689TIP3    H117008   7.869   7.367   6.274  0.1068  0.6995 -0.7097
 5689TIP3    H217009   7.828   7.388   6.418 -0.2718  1.1061 -0.8765
 5690TIP3   OH217010   5.095   7.230   0.188  0.1927 -0.2528  0.1773
 5690TIP3    H117011   5.036   7.248   0.262  0.8323 -0.2253  0.6891
 5690TIP3    H217012   5.142   7.311   0.174  0.3166 -0.3626 -0.0461
 5691TIP3   OH217013   5.398   6.463   3.406  0.4168  0.5019  0.2418
 5691TIP3    H117014   5.347   6.502   3.334 -0.0362 -0.5616 -0.0275
 5691TIP3    H217015   5.332   6.424   3.463  0.8905 -0.7309 -0.0153
 5692TIP3   OH217016   6.134   5.943   1.172  0.4868  0.3285  0.0769
 5692TIP3    H117017   6.226   5.947   1.200  0.4202 -1.4598  0.6955
 5692TIP3    H217018   6.121   5.853   1.143 -1.8223 -0.4168  2.8950
 5693TIP3   OH217019   6.847   1.207   6.763  0.6429 -0.0838 -0.4106
 5693TIP3    H117020   6.889   1.249   6.688 -0.2220 -0.6148 -1.2280
 5693TIP3    H217021   6.861   1.113   6.748  1.0276 -0.1656  0.4432
 5694TIP3   OH217022   8.096   2.466   5.265  0.1465  0.0577 -0.1517
 5694TIP3    H117023   8.138   2.394   5.312  0.4279 -0.0642 -0.5878
 5694TIP3    H217024   8.146   2.544   5.290  1.8782 -0.3464 -2.1509
 5695TIP3   OH217025   7.519   4.560   4.833  0.3713 -0.1148 -0.5169
 5695TIP3    H117026   7.541   4.608   4.753  0.5519 -2.7231 -2.1778
 5695TIP3    H217027   7.600   4.516   4.858 -0.1737 -0.9222 -0.1021
 5696TIP3   OH217028   7.869   6.012   1.200  0.3240  0.3593 -0.0254
 5696TIP3    H117029   7.818   6.041   1.124 -0.0106  2.5346  0.9405
 5696TIP3    H217030   7.810   6.023   1.274  0.7753 -1.3562  0.6300
 5697TIP3   OH217031   4.679   3.925   3.710  0.3401 -0.3913 -0.9783
 5697TIP3    H117032   4.655   4.010   3.748  0.3892 -0.7783 -0.0537
 5697TIP3    H217033   4.763   3.941   3.667  0.9647 -0.2432  0.2448
 5698TIP3   OH217034   7.125   2.303   3.249 -0.0656  0.5381  0.0103
 5698TIP3    H117035   7.114   2.321   3.155  2.5837  1.8878 -0.1569
 5698TIP3    H217036   7.148   2.210   3.253 -1.1209  0.2342 -0.5530
 5699TIP3   OH217037   6.057   3.703   2.377  0.1685  0.2206  0.4319
 5699TIP3    H117038   6.114   3.666   2.444  1.4312 -0.0947 -0.7717
 5699TIP3    H217039   5.968   3.691   2.412  0.6982 -1.4372  1.3092
 5700TIP3   OH217040   4.630   2.682   3.529 -0.3853 -0.3791 -0.3098
 5700TIP3    H117041   4.649   2.774   3.543 -1.3777 -0.2102  0.0010
 5700TIP3    H217042   4.625   2.672   3.433 -1.2237  0.0977 -0.3227
 5701TIP3   OH217043   2.434   6.626   0.243  0.2817  0.9505  0.0164
 5701TIP3    H117044   2.464   6.565   0.175 -2.2942 -0.4781 -0.0038
 5701TIP3    H217045   2.396   6.699   0.195 -0.4442  0.5102 -0.1065
 5702TIP3   OH217046   1.563   7.298   3.926  0.2698 -0.7681 -0.4276
 5702TIP3    H117047   1.491   7.355   3.950 -0.2866 -0.1029 -3.2971
 5702TIP3    H217048   1.611   7.284   4.007 -1.2755  1.3342  0.9490
 5703TIP3   OH217049   6.896   3.626   4.827  0.3665 -0.1259 -0.4485
 5703TIP3    H117050   6.913   3.552   4.769  0.8376  0.7138 -1.3940
 5703TIP3    H217051   6.803   3.617   4.849  0.2983 -0.7280 -0.9468
 5704TIP3   OH217052   2.557   0.965   3.650 -0.0349  0.3417 -0.2257
 5704TIP3    H117053   2.534   0.962   3.743 -1.1149  0.8523 -0.4680
 5704TIP3    H217054   2.647   0.931   3.647 -0.6384 -1.4932  0.7843
 5705TIP3   OH217055   6.185   1.652   0.577 -0.2506 -0.0233  0.2047
 5705TIP3    H117056   6.163   1.743   0.558 -0.6939 -0.1861 -0.0920
 5705TIP3    H217057   6.262   1.634   0.522  0.9767  0.7034  1.6386
 5706TIP3   OH217058   0.557   1.716   5.331 -0.1181 -0.2240  0.0538
 5706TIP3    H117059   0.474   1.754   5.304  0.4550  0.2496 -1.1674
 5706TIP3    H217060   0.563   1.634   5.282  1.7015  1.4399 -2.8451
 5707TIP3   OH217061   2.334   7.744   6.757 -0.2005 -0.2626 -0.1335
 5707TIP3    H117062   2.266   7.683   6.784 -0.1463  0.4541  1.7848
 5707TIP3    H217063   2.370   7.706   6.677 -3.7188  0.0246 -2.0575
 5708TIP3   OH217064   8.254   0.952   1.057  0.7067  0.0491 -0.3000
 5708TIP3    H117065   8.312   1.022   1.086 -0.9250  1.5600 -0.5459
 5708TIP3    H217066   8.185   0.949   1.123 -1.6172  1.7309 -2.4396
 5709TIP3   OH217067   2.836   2.118   0.805 -0.0384 -0.1325  0.2826
 5709TIP3    H117068   2.817   2.184   0.738 -0.2439  0.1849  0.6502
 5709TIP3    H217069   2.927   2.133   0.828 -1.1042  2.8840  3.4188
 5710TIP3   OH217070   4.702   2.459   3.004  0.4565 -0.4409 -0.5292
 5710TIP3    H117071   4.630   2.493   3.057 -0.1593  1.0793 -2.2302
 5710TIP3    H217072   4.701   2.365   3.019 -1.0110 -0.2859  0.5316
 5711TIP3   OH217073   8.140   0.744   5.902  0.3060  0.1526 -0.0683
 5711TIP3    H117074   8.073   0.700   5.955  0.2130  0.4607  0.0698
 5711TIP3    H217075   8.096   0.820   5.866  0.5789  0.3482  0.0130
 5712TIP3   OH217076   4.030   6.098   4.725 -0.2838  0.0702  0.0648
 5712TIP3    H117077   4.024   6.049   4.808  0.3977  1.1739  0.7961
 5712TIP3    H217078   4.064   6.034   4.662  0.8619 -0.3536  1.0614
 5713TIP3   OH217079   4.754   3.613   4.868  0.5378  0.1784 -0.1891
 5713TIP3    H117080   4.758   3.696   4.916 -2.1152  0.1045  0.3045
 5713TIP3    H217081   4.826   3.562   4.904  1.4215  1.7897  0.4298
 5714TIP3   OH217082   0.987   5.706   0.849 -0.3963  0.2374 -0.1695
 5714TIP3    H117083   1.022   5.659   0.773 -1.0688  1.2774 -1.1527
 5714TIP3    H217084   0.898   5.728   0.825  0.0016  2.3319  0.0802
 5715TIP3   OH217085   4.637   7.046   0.606 -0.0350  0.2478  0.0894
 5715TIP3    H117086   4.636   7.140   0.625 -1.2283 -0.3220  3.5415
 5715TIP3    H217087   4.554   7.014   0.641  0.1792 -2.0814 -1.3316
 5716TIP3   OH217088   4.540   2.094   6.027 -0.1298 -0.4948 -0.0476
 5716TIP3    H117089   4.482   2.041   5.972 -0.7822  0.2902 -0.1277
 5716TIP3    H217090   4.545   2.178   5.982  0.7312 -0.4104  0.1906
 5717TIP3   OH217091   3.528  -0.004   5.602 -0.1921  0.4355  0.7756
 5717TIP3    H117092   3.513  -0.012   5.696 -1.5160 -2.1553  0.4565
 5717TIP3    H217093   3.449   0.039   5.569 -0.4934 -0.1750  0.6859
 5718TIP3   OH217094   2.937   4.019   3.625  0.2496 -0.6604  0.0103
 5718TIP3    H117095   2.847   4.010   3.592  0.0434 -0.9778  0.6527
 5718TIP3    H217096   2.962   4.109   3.601 -0.9358  0.1119  1.5085
 5719TIP3   OH217097   0.977   4.316   5.845 -0.5290  0.5548 -0.1667
 5719TIP3    H117098   0.893   4.300   5.889 -0.7094  1.4567 -0.1627
 5719TIP3    H217099   1.040   4.268   5.897 -1.1353 -0.7838 -0.6152
 5720TIP3   OH217100   0.209   4.922   2.013 -0.5223 -0.1917  0.1313
 5720TIP3    H117101   0.133   4.884   1.968 -0.4682  1.8460 -1.8668
 5720TIP3    H217102   0.284   4.878   1.974 -0.6074 -1.1580  1.0388
 5721TIP3   OH217103   4.777   0.752   6.687 -0.0082 -0.1080 -0.1908
 5721TIP3    H117104   4.808   0.788   6.604  0.2749  0.5399  0.1911
 5721TIP3    H217105   4.841   0.780   6.752 -0.0208 -0.9265  0.1981
 5722TIP3   OH217106   1.165   4.300   2.455  0.0087 -0.0081  0.4391
 5722TIP3    H117107   1.253   4.309   2.491  0.3346  1.0674 -0.5631
 5722TIP3    H217108   1.107   4.328   2.526  0.4227 -1.2097  1.2826
 5723TIP3   OH217109   5.402   5.998   0.831 -0.2061  0.0055  0.1966
 5723TIP3    H117110   5.457   6.012   0.753 -1.0233  0.3548 -0.3375
 5723TIP3    H217111   5.458   5.950   0.892  2.0385  3.4507  1.1880
 5724TIP3   OH217112   4.995   4.084   4.447 -0.2128 -0.5876 -0.3157
 5724TIP3    H117113   4.967   4.028   4.519  2.0641 -1.4040  0.0197
 5724TIP3    H217114   4.980   4.173   4.480  2.3495 -0.8621  2.0054
 5725TIP3   OH217115   3.307   4.852   0.111  0.5904  0.1342  0.1024
 5725TIP3    H117116   3.368   4.797   0.062  0.0956  0.4202 -0.8776
 5725TIP3    H217117   3.271   4.794   0.178  1.0320 -0.3734 -0.0912
 5726TIP3   OH217118   5.906   0.287   1.601  0.0847 -1.0606 -0.3600
 5726TIP3    H117119   5.937   0.210   1.554 -0.1118 -1.1270 -0.3821
 5726TIP3    H217120   5.959   0.289   1.681 -0.4538 -1.6716  0.0203
 5727TIP3   OH217121   2.565   5.648   5.558  0.1065 -0.0339  0.3874
 5727TIP3    H117122   2.543   5.735   5.591  0.9098 -0.0279  0.9188
 5727TIP3    H217123   2.584   5.663   5.465 -1.4613  0.0612  0.0547
 5728TIP3   OH217124   6.209   7.330   4.167 -0.5014  0.0010  0.0849
 5728TIP3    H117125   6.154   7.268   4.215  0.3462  0.0385  1.1509
 5728TIP3    H217126   6.154   7.407   4.155 -1.4317 -0.7902 -0.8926
 5729TIP3   OH217127   5.181   2.400   6.783  0.4096  0.2505  0.3175
 5729TIP3    H117128   5.273   2.425   6.788  0.2115  0.8192  1.2140
 5729TIP3    H217129   5.161   2.400   6.689  1.4057 -0.2215  0.0909
 5730TIP3   OH217130   5.929   4.879   5.944 -0.4872 -0.0332  0.1968
 5730TIP3    H117131   5.868   4.806   5.953 -0.4756 -0.1350 -0.4989
 5730TIP3    H217132   6.010   4.840   5.910 -0.3308  0.2333  0.2565
 5731TIP3   OH217133   8.074   3.379   0.848 -0.4552 -0.6390 -0.8967
 5731TIP3    H117134   8.085   3.389   0.943 -1.9508 -1.3027 -0.6165
 5731TIP3    H217135   8.161   3.357   0.816  0.0064 -0.7563  0.3812
 5732TIP3   OH217136   2.870   2.414   5.614  0.0319  0.1017 -0.3951
 5732TIP3    H117137   2.882   2.489   5.556 -0.3981 -1.2507 -2.3431
 5732TIP3    H217138   2.932   2.348   5.581 -0.1800 -0.6896  0.7305
 5733TIP3   OH217139   2.115   6.635   1.241  0.6647  0.0296 -0.3688
 5733TIP3    H117140   2.063   6.565   1.280  1.1116 -0.7958 -1.2157
 5733TIP3    H217141   2.195   6.637   1.293  0.8038 -0.3405 -0.5637
 5734TIP3   OH217142   6.097   3.045   3.885 -0.1320 -0.0193  0.1413
 5734TIP3    H117143   6.094   3.113   3.952  0.6334 -0.2147  0.3887
 5734TIP3    H217144   6.118   3.091   3.804  1.7521 -0.0784  0.5374
 5735TIP3   OH217145   1.637   5.508   6.886 -0.5270 -0.6550 -0.6360
 5735TIP3    H117146   1.683   5.428   6.858 -0.9189 -0.8709 -0.6677
 5735TIP3    H217147   1.671   5.576   6.829  0.0942 -0.7248 -0.3552
 5736TIP3   OH217148   6.987   0.643   3.086 -0.5783 -0.3050 -0.1460
 5736TIP3    H117149   7.059   0.705   3.098 -0.3948 -0.7877  1.5179
 5736TIP3    H217150   6.912   0.698   3.062 -0.4695  0.6235  1.4798
 5737TIP3   OH217151   7.107   7.210   6.208 -0.1397 -0.5700 -0.5280
 5737TIP3    H117152   7.023   7.165   6.200 -1.7844  2.3678 -1.2999
 5737TIP3    H217153   7.116   7.225   6.303  0.3069 -2.2287 -0.2925
 5738TIP3   OH217154   3.882   0.544   6.029  0.5077 -0.2137 -0.2746
 5738TIP3    H117155   3.921   0.561   5.943 -0.0644 -0.6975 -0.6360
 5738TIP3    H217156   3.793   0.516   6.010  0.1789  0.2609  0.5118
 5739TIP3   OH217157   2.972   4.640   3.624 -0.0942  0.1996 -1.0608
 5739TIP3    H117158   3.064   4.617   3.610  0.0254  0.8681 -1.4322
 5739TIP3    H217159   2.960   4.721   3.575 -0.9789 -0.0679 -1.3123
 5740TIP3   OH217160   0.565   3.011   5.628 -0.3370  0.2455 -0.1310
 5740TIP3    H117161   0.500   2.942   5.644  1.5444 -2.0517 -1.7427
 5740TIP3    H217162   0.522   3.070   5.567 -1.1679 -0.8431 -0.6330
 5741TIP3   OH217163   0.942   1.679   0.203 -0.0672 -0.2711  0.2022
 5741TIP3    H117164   0.965   1.722   0.120 -1.2976 -1.9628 -1.0741
 5741TIP3    H217165   1.024   1.644   0.235  0.7733  1.9784  0.7081
 5742TIP3   OH217166   2.381   3.916   1.066 -0.2881  0.3754 -0.1995
 5742TIP3    H117167   2.400   3.988   1.125  0.6427 -0.1590  0.1805
 5742TIP3    H217168   2.409   3.948   0.980  3.2623 -0.5860  0.4057
 5743TIP3   OH217169   7.732   2.822   1.887 -0.0156  0.4338  0.3093
 5743TIP3    H117170   7.701   2.732   1.899 -0.8432  0.7745  0.7925
 5743TIP3    H217171   7.758   2.850   1.975  0.7285  0.5007  0.0751
 5744TIP3   OH217172   2.966   1.832   5.073 -0.1768  0.2180 -0.0840
 5744TIP3    H117173   3.036   1.809   5.011  0.0012  0.5363 -0.0039
 5744TIP3    H217174   2.975   1.768   5.144 -1.2758 -1.0611 -1.0337
 5745TIP3   OH217175   4.381   5.921   1.591  0.2696 -0.2685  0.0474
 5745TIP3    H117176   4.469   5.922   1.628 -0.4505 -1.4630  1.9131
 5745TIP3    H217177   4.375   5.838   1.544 -0.1244 -0.5813  0.6405
 5746TIP3   OH217178   5.259   1.001   3.385 -0.0574  0.1954  0.2476
 5746TIP3    H117179   5.297   1.065   3.444  2.2359 -0.1736 -0.7152
 5746TIP3    H217180   5.292   0.917   3.416  0.2869 -0.1082 -0.9034
 5747TIP3   OH217181   0.231   4.686   4.935 -0.2841  0.0492 -0.3187
 5747TIP3    H117182   0.200   4.617   4.876  0.0793  0.1955 -0.6851
 5747TIP3    H217183   0.159   4.698   4.997  0.2076 -1.6833  0.6659
 5748TIP3   OH217184   5.588   2.260   3.426 -0.6384  0.1683  0.1681
 5748TIP3    H117185   5.600   2.294   3.337 -0.3840  1.2320  0.5937
 5748TIP3    H217186   5.519   2.314   3.463 -1.4190 -0.8950  0.3155
 5749TIP3   OH217187   7.725   5.990   4.333  0.0428  0.0703  0.0695
 5749TIP3    H117188   7.715   5.966   4.241  0.6764 -0.3808  0.1145
 5749TIP3    H217189   7.746   5.908   4.377  0.6800  0.4401  0.4684
 5750TIP3   OH217190   6.801   1.852   0.116  0.2522  0.1450  0.0995
 5750TIP3    H117191   6.783   1.901   0.036  1.4397 -0.6155 -0.6576
 5750TIP3    H217192   6.893   1.871   0.136  0.6284 -1.4312  0.0023
 5751TIP3   OH217193   1.831   7.462   5.756  0.3016 -0.1009 -0.0338
 5751TIP3    H117194   1.900   7.447   5.691 -0.1908  2.5656 -1.3399
 5751TIP3    H217195   1.871   7.520   5.821 -0.1099 -0.2079  0.3183
 5752TIP3   OH217196   1.058   7.538   4.997  0.2749  0.2823 -0.6173
 5752TIP3    H117197   1.148   7.507   5.003 -0.6235 -2.3295  1.7081
 5752TIP3    H217198   1.057   7.619   5.048  1.1972 -0.0183 -0.0882
 5753TIP3   OH217199   2.027   5.939   6.409  0.2646  0.3762  0.1637
 5753TIP3    H117200   2.015   6.033   6.422 -0.9763  0.0398  1.6893
 5753TIP3    H217201   2.089   5.913   6.477 -2.2568 -0.5078  2.2496
 5754TIP3   OH217202   5.887   1.053   4.092  0.0115  0.4362 -0.1053
 5754TIP3    H117203   5.865   0.964   4.120 -1.6437  1.1280  0.9224
 5754TIP3    H217204   5.952   1.083   4.156 -0.0869  0.2758  0.0714
 5755TIP3   OH217205   7.532   4.189   6.686  0.3929 -0.0475  0.2411
 5755TIP3    H117206   7.448   4.234   6.690  0.1448 -0.5259  0.4990
 5755TIP3    H217207   7.596   4.258   6.666  0.0994  0.5162  1.1953
 5756TIP3   OH217208   3.109   1.429   1.000  0.4566  0.4465  0.2375
 5756TIP3    H117209   3.142   1.379   0.925 -2.1610  1.9032 -2.0828
 5756TIP3    H217210   3.135   1.520   0.982 -0.9340  0.9487  0.6009
 5757TIP3   OH217211   8.060   2.639   5.961 -0.1756  0.0290 -0.4806
 5757TIP3    H117212   8.001   2.670   6.029 -0.2684 -0.0665 -0.5166
 5757TIP3    H217213   8.060   2.707   5.894  2.3736  1.6595  1.0230
 5758TIP3   OH217214   3.262   4.934   0.387 -0.5784  0.0599  0.1905
 5758TIP3    H117215   3.221   5.008   0.431  0.3540  0.4100  0.4888
 5758TIP3    H217216   3.340   4.970   0.346 -1.1630 -0.3663 -1.3472
 5759TIP3   OH217217   6.094   1.601   5.803  0.3230  0.8382  0.7334
 5759TIP3    H117218   6.149   1.599   5.725  0.6816 -1.3022  0.9800
 5759TIP3    H217219   6.141   1.659   5.863  1.2727  0.6430  0.2077
 5760TIP3   OH217220   5.868   6.470   3.286  0.2522 -0.8412  0.0091
 5760TIP3    H117221   5.824   6.401   3.236  1.2269 -1.2105 -0.3712
 5760TIP3    H217222   5.804   6.498   3.351 -0.1586 -2.1467  0.1987
 5761TIP3   OH217223   3.772   7.537   4.562 -0.3501 -0.2645  0.3592
 5761TIP3    H117224   3.742   7.627   4.576 -0.6744 -0.3309  0.1137
 5761TIP3    H217225   3.866   7.539   4.580 -0.0634  0.4441 -1.1117
 5762TIP3   OH217226   4.001   5.864   2.607  0.0260  0.5895 -0.1464
 5762TIP3    H117227   3.934   5.804   2.574  0.4363  0.2914 -0.4501
 5762TIP3    H217228   4.041   5.901   2.528  0.4485  0.5082  0.0244
 5763TIP3   OH217229   7.405   6.983   0.955  0.7104  0.4397 -0.4126
 5763TIP3    H117230   7.324   6.934   0.946  0.6489  0.4500  0.0731
 5763TIP3    H217231   7.429   7.006   0.865 -0.3373  1.2808 -0.4969
 5764TIP3   OH217232   7.679   3.006   5.812 -0.2358  0.1746 -0.1957
 5764TIP3    H117233   7.679   2.958   5.895  0.2159  1.0260  0.3087
 5764TIP3    H217234   7.769   3.034   5.801  0.1500 -1.5715 -1.9743
 5765TIP3   OH217235   0.742   5.074   2.829 -0.2366 -0.2255  0.0139
 5765TIP3    H117236   0.723   5.093   2.738 -2.5286 -1.2959  0.2164
 5765TIP3    H217237   0.728   4.980   2.838  1.8657 -0.5147  1.0852
 5766TIP3   OH217238   7.140   1.827   4.887 -0.4285 -0.3478 -0.0564
 5766TIP3    H117239   7.194   1.853   4.962 -0.3269  0.1350 -0.2950
 5766TIP3    H217240   7.177   1.743   4.859 -1.1848 -1.1087  1.1384
 5767TIP3   OH217241   3.460   1.804   6.212 -0.6854 -0.3545 -0.2821
 5767TIP3    H117242   3.452   1.718   6.171 -1.3519 -0.9466  1.0394
 5767TIP3    H217243   3.506   1.787   6.294  3.6322  1.2382 -2.0708
 5768TIP3   OH217244   1.420   4.086   1.960 -0.2975  0.2897 -0.4520
 5768TIP3    H117245   1.504   4.121   1.990 -0.2484  1.4520 -1.8642
 5768TIP3    H217246   1.439   4.050   1.874 -0.7732 -1.5952  0.1912
 5769TIP3   OH217247   4.906   6.312   3.849 -0.6916 -0.2079 -0.3438
 5769TIP3    H117248   4.933   6.327   3.940  0.3938 -1.7879 -0.3512
 5769TIP3    H217249   4.817   6.345   3.844  0.1081  2.2551  0.5930
 5770TIP3   OH217250   6.295   1.832   5.721  0.0906 -0.7289  0.5221
 5770TIP3    H117251   6.315   1.739   5.728 -0.7827 -1.1123 -1.4446
 5770TIP3    H217252   6.320   1.856   5.632 -1.0179  0.5721  0.5166
 5771TIP3   OH217253   3.037   5.852   3.883 -0.5491  0.2701  0.1341
 5771TIP3    H117254   3.077   5.911   3.946 -0.7910 -0.9218  1.4425
 5771TIP3    H217255   3.019   5.908   3.807 -1.2241  2.0006  1.4822
 5772TIP3   OH217256   5.444   0.457   1.658  0.5890  0.6273  0.5780
 5772TIP3    H117257   5.440   0.470   1.563 -1.1522  0.6321  0.6212
 5772TIP3    H217258   5.531   0.419   1.673  1.2100  1.3700 -0.9069
 5773TIP3   OH217259   5.814   4.146   3.537 -0.0005 -0.0686 -0.4122
 5773TIP3    H117260   5.785   4.211   3.474  0.1720  1.4926  1.0582
 5773TIP3    H217261   5.734   4.117   3.580 -0.1284 -1.1973 -1.3441
 5774TIP3   OH217262   3.840   4.904   3.368  0.1664 -0.5162  0.5533
 5774TIP3    H117263   3.888   4.911   3.285  1.8949 -0.3365  1.5130
 5774TIP3    H217264   3.896   4.850   3.423 -0.7471 -0.2750  1.7528
 5775TIP3   OH217265   3.142   1.940   3.508 -0.4216 -0.3149  0.0212
 5775TIP3    H117266   3.130   1.942   3.603 -0.7596  0.3842 -0.0323
 5775TIP3    H217267   3.061   1.901   3.474 -1.5976  2.1351 -0.1675
 5776TIP3   OH217268   2.368   6.327   0.264 -0.3364 -0.2596 -0.5203
 5776TIP3    H117269   2.319   6.393   0.215 -1.8654 -0.6274  0.4275
 5776TIP3    H217270   2.319   6.317   0.346 -0.1842 -2.5337 -0.6275
 5777TIP3   OH217271   1.245   4.536   6.638 -0.4760 -0.0476 -0.7055
 5777TIP3    H117272   1.240   4.581   6.554 -0.5514  1.1831 -0.0642
 5777TIP3    H217273   1.161   4.554   6.680  0.4726  1.4840  0.6549
 5778TIP3   OH217274   5.705   4.857   0.948  0.3582  0.3933  0.0404
 5778TIP3    H117275   5.721   4.914   0.874  0.3043 -0.7076 -0.8511
 5778TIP3    H217276   5.627   4.892   0.990  1.2048  1.8600  0.4393
 5779TIP3   OH217277   5.125   7.099   6.004 -0.6044  0.2125 -0.3575
 5779TIP3    H117278   5.173   7.167   6.051  1.4934  0.8347 -3.1561
 5779TIP3    H217279   5.081   7.145   5.933 -1.3705 -1.0201 -0.7171
 5780TIP3   OH217280   3.861   4.944   2.982  0.0975  0.6599 -0.0958
 5780TIP3    H117281   3.819   5.021   3.022 -0.7245 -0.3762  1.1255
 5780TIP3    H217282   3.953   4.951   3.008  0.0628  1.3083 -0.1204
 5781TIP3   OH217283   0.256   7.330   1.740 -0.0903  0.2852  0.3154
 5781TIP3    H117284   0.181   7.325   1.680  0.1793  0.1977 -0.0215
 5781TIP3    H217285   0.259   7.245   1.783  1.4361 -0.7467 -1.6665
 5782TIP3   OH217286   7.824   6.501   1.988  0.1503 -0.7950 -0.6858
 5782TIP3    H117287   7.823   6.588   2.028  0.1892  1.2246 -4.6064
 5782TIP3    H217288   7.737   6.465   2.007 -0.6673  1.0438 -0.7610
 5783TIP3   OH217289   0.523   0.098   5.621 -0.4156  0.3919 -0.3885
 5783TIP3    H117290   0.443   0.093   5.673  0.3147  1.5611  0.8847
 5783TIP3    H217291   0.526   0.188   5.588  0.0229  0.1536 -1.0375
 5784TIP3   OH217292   7.906   1.677   0.686  0.0679 -0.1754 -0.1538
 5784TIP3    H117293   7.909   1.749   0.622  0.7509 -0.3099 -0.2799
 5784TIP3    H217294   7.886   1.599   0.634  0.0880 -0.2003 -0.1243
 5785TIP3   OH217295   3.335   7.191   0.312 -1.0350 -0.3313 -0.4683
 5785TIP3    H117296   3.312   7.283   0.327  0.4791  0.0051 -0.0654
 5785TIP3    H217297   3.316   7.148   0.394  2.2557  0.5008  0.9067
 5786TIP3   OH217298   0.105   4.505   4.732 -0.0476 -0.2475 -0.1916
 5786TIP3    H117299   0.132   4.469   4.648 -0.5698 -0.0568 -0.4452
 5786TIP3    H217300   0.023   4.551   4.714 -0.1226 -0.1325  0.4027
 5787TIP3   OH217301   3.010   1.050   5.329 -0.2824  0.7709  0.2023
 5787TIP3    H117302   2.928   1.026   5.371 -0.3905  1.5846  0.4820
 5787TIP3    H217303   3.007   1.009   5.243 -0.2016 -0.6563  0.8538
 5788TIP3   OH217304   1.963   4.559   3.748  0.1416  0.0375  0.1473
 5788TIP3    H117305   1.944   4.471   3.716 -0.4840  0.2149  0.0174
 5788TIP3    H217306   2.019   4.545   3.824  0.8296 -0.4309 -0.4280
 5789TIP3   OH217307   2.396   5.101   1.752 -0.3470 -0.6583 -0.3339
 5789TIP3    H117308   2.427   5.159   1.822  0.5430  0.1469 -1.3838
 5789TIP3    H217309   2.415   5.148   1.671 -1.3762 -1.5798 -1.1374
 5790TIP3   OH217310   2.512   7.688   3.025  0.4569 -0.1646 -0.7408
 5790TIP3    H117311   2.428   7.654   3.056 -0.9009  0.8751 -3.0202
 5790TIP3    H217312   2.545   7.621   2.965  0.2393  0.3189 -1.4081
 5791TIP3   OH217313   7.372   4.669   5.916  0.2095 -0.2168 -0.1022
 5791TIP3    H117314   7.353   4.670   6.010  2.7296  2.7535  0.5316
 5791TIP3    H217315   7.346   4.756   5.886  0.8959 -0.5902 -1.8375
 5792TIP3   OH217316   8.175   1.324   4.063 -0.1083 -0.3731  0.1769
 5792TIP3    H117317   8.150   1.366   3.980 -1.5288 -0.5937  0.4533
 5792TIP3    H217318   8.267   1.302   4.053  0.1871  1.1399 -0.6837
 5793TIP3   OH217319   8.237   3.326   3.759 -0.5686  0.1189  0.0691
 5793TIP3    H117320   8.200   3.267   3.694 -0.9090  0.9717 -0.5325
 5793TIP3    H217321   8.162   3.357   3.809 -0.5632  1.0233 -0.4570
 5794TIP3   OH217322   4.269   2.198   0.709 -0.0092 -0.2152 -0.2589
 5794TIP3    H117323   4.358   2.233   0.716 -0.0502  0.3360 -1.8649
 5794TIP3    H217324   4.237   2.194   0.799  1.5135 -0.1028  0.3208
 5795TIP3   OH217325   3.674   7.114   3.698  0.0141  0.5570  0.9440
 5795TIP3    H117326   3.617   7.039   3.682  0.5967  0.6238 -2.1432
 5795TIP3    H217327   3.616   7.190   3.692 -0.0743  0.4864  0.9045
 5796TIP3   OH217328   7.026   7.326   4.679 -0.0424  0.6569  0.2458
 5796TIP3    H117329   7.072   7.255   4.634 -3.3134  1.4181 -5.2013
 5796TIP3    H217330   7.077   7.404   4.659 -0.3366  0.7151 -0.3000
 5797TIP3   OH217331   5.089   0.125   1.478 -0.5825 -0.3584  0.1480
 5797TIP3    H117332   5.086   0.141   1.573  1.7134  1.8521 -0.0492
 5797TIP3    H217333   5.055   0.205   1.439 -0.9159 -1.0027 -0.9468
 5798TIP3   OH217334   0.301   2.386   4.171  0.0443 -0.1224 -0.3128
 5798TIP3    H117335   0.233   2.448   4.146  0.9375  1.4321  0.8768
 5798TIP3    H217336   0.310   2.397   4.266  1.5851 -0.6481 -0.3623
 5799TIP3   OH217337   6.325   5.095   0.994  0.1886  0.5337  0.0240
 5799TIP3    H117338   6.274   5.017   0.972  1.2854  0.1394 -1.2970
 5799TIP3    H217339   6.327   5.097   1.089 -0.7630 -0.4434  0.0781
 5800TIP3   OH217340   6.717   2.790   2.573 -0.0866  0.1497 -0.2487
 5800TIP3    H117341   6.623   2.807   2.569 -0.4837 -1.7427  0.0225
 5800TIP3    H217342   6.750   2.851   2.639 -0.5263  2.9880 -2.4283
 5801TIP3   OH217343   0.785   4.949   5.840  0.1473  0.7982 -0.4015
 5801TIP3    H117344   0.846   4.966   5.912 -0.4834  3.1683 -0.3392
 5801TIP3    H217345   0.701   4.929   5.883  0.0725  0.9208 -0.4905
 5802TIP3   OH217346   2.101   1.160   4.381  0.3172 -0.6692  0.3270
 5802TIP3    H117347   2.183   1.137   4.336  0.4175 -0.4999  0.4212
 5802TIP3    H217348   2.109   1.121   4.468  1.0023  0.6944  0.9074
 5803TIP3   OH217349   6.556   6.596   4.331 -0.0573 -0.2001  0.3870
 5803TIP3    H117350   6.574   6.690   4.332  0.8877 -0.3736  0.6648
 5803TIP3    H217351   6.502   6.582   4.409 -1.3696  0.3167 -0.4029
 5804TIP3   OH217352   2.053   2.577   1.376 -0.2324  0.0994  0.1335
 5804TIP3    H117353   1.965   2.546   1.397  0.1908 -1.5246 -0.3555
 5804TIP3    H217354   2.097   2.501   1.339  0.4133  1.6481 -2.5795
 5805TIP3   OH217355   2.710   4.049   5.845  0.4492  0.1147  0.1058
 5805TIP3    H117356   2.761   4.102   5.784  1.0613 -1.0919 -0.4866
 5805TIP3    H217357   2.758   3.966   5.850 -0.0232 -0.1072  1.6280
 5806TIP3   OH217358   5.119   0.757   3.175  0.2918 -0.0603  0.1462
 5806TIP3    H117359   5.039   0.709   3.197  1.2362 -1.4533  0.6643
 5806TIP3    H217360   5.189   0.705   3.214  1.3112  2.2344  1.5590
 5807TIP3   OH217361   2.464   5.129   6.576 -0.1934  0.5473 -0.6873
 5807TIP3    H117362   2.546   5.147   6.530  0.4254  0.2261  0.2547
 5807TIP3    H217363   2.433   5.047   6.538  0.0983  0.4966 -0.8168
 5808TIP3   OH217364   4.120   3.308   0.770  0.2955 -0.6161  0.0060
 5808TIP3    H117365   4.159   3.225   0.743  0.0747 -0.0588 -2.2228
 5808TIP3    H217366   4.070   3.338   0.694  0.1285  1.4193  0.8326
 5809TIP3   OH217367   0.951   7.893   6.272  0.1703 -0.1895  0.4546
 5809TIP3    H117368   0.992   7.884   6.186 -0.1194 -1.1358  0.4106
 5809TIP3    H217369   1.018   7.936   6.326  0.2569  0.6538 -0.3047
 5810TIP3   OH217370   7.566   3.395   1.454 -0.2917 -0.0898  0.3479
 5810TIP3    H117371   7.577   3.392   1.359  0.1380 -1.6685  0.4174
 5810TIP3    H217372   7.524   3.312   1.475  0.8557 -0.3561  1.6837
 5811TIP3   OH217373   1.149   6.679   5.168 -0.1332 -0.4458  0.3265
 5811TIP3    H117374   1.149   6.764   5.213  0.5646  0.0127 -0.5019
 5811TIP3    H217375   1.240   6.651   5.170 -0.4685 -1.5215  1.1889
 5812TIP3   OH217376   4.503   5.005   5.066 -0.5926  0.3968  0.3913
 5812TIP3    H117377   4.512   5.078   5.005  0.9648 -0.5112 -0.5140
 5812TIP3    H217378   4.412   4.977   5.058 -0.6142  0.8052 -0.9180
 5813TIP3   OH217379   1.475   6.349   5.021  0.1279  0.4556 -0.1705
 5813TIP3    H117380   1.418   6.315   5.091  1.4692  0.2485  0.8560
 5813TIP3    H217381   1.551   6.291   5.021  0.5296  0.9620 -1.2451
 5814TIP3   OH217382   0.822   1.605   1.010  0.1330 -0.0104 -0.4578
 5814TIP3    H117383   0.779   1.522   1.027 -0.5273  0.0709 -1.6650
 5814TIP3    H217384   0.751   1.665   0.987  0.6510  0.7590 -0.0879
 5815TIP3   OH217385   1.080   7.005   1.832  0.0644 -0.1956 -0.6698
 5815TIP3    H117386   1.036   6.976   1.752 -1.3474  0.1222 -0.0266
 5815TIP3    H217387   1.112   7.092   1.812 -0.7461  0.0936 -0.7318
 5816TIP3   OH217388   2.397   5.383   5.767  0.2485  0.5083 -0.5890
 5816TIP3    H117389   2.485   5.410   5.742  0.9163  0.1979  1.2733
 5816TIP3    H217390   2.400   5.376   5.862 -1.4216 -0.8146 -0.5854
 5817TIP3   OH217391   6.063   0.608   4.426 -0.6455  0.0449 -0.6007
 5817TIP3    H117392   6.111   0.690   4.415  0.1199 -0.3932 -0.6074
 5817TIP3    H217393   5.978   0.634   4.462 -0.4780  0.8490 -0.7646
 5818TIP3   OH217394   6.760   2.748   4.910  0.5447 -0.4048  0.0346
 5818TIP3    H117395   6.784   2.821   4.852  0.7029  0.0806  0.7047
 5818TIP3    H217396   6.814   2.675   4.879  1.9142  0.3090  0.6491
 5819TIP3   OH217397   3.716   7.917   3.402 -0.0321  0.1489  0.0242
 5819TIP3    H117398   3.629   7.926   3.442 -0.4878  0.5655 -1.0397
 5819TIP3    H217399   3.777   7.918   3.476 -0.9865 -1.0687  0.8690
 5820TIP3   OH217400   4.826   5.267   1.026  0.4611  0.0417 -0.3123
 5820TIP3    H117401   4.885   5.310   0.965  0.6105  1.7653  0.9779
 5820TIP3    H217402   4.740   5.273   0.985  1.0591 -2.4073 -2.1633
 5821TIP3   OH217403   6.416   1.080   4.680  0.5745 -0.2673 -0.4697
 5821TIP3    H117404   6.499   1.127   4.673  0.0714  0.8001  0.3706
 5821TIP3    H217405   6.404   1.067   4.774  1.3883 -3.4027 -0.7150
 5822TIP3   OH217406   1.737   2.812   1.117 -0.6544  0.5299  0.2759
 5822TIP3    H117407   1.809   2.821   1.179 -0.1710 -1.2703  0.0371
 5822TIP3    H217408   1.774   2.834   1.032 -0.7102  0.7756  0.3147
 5823TIP3   OH217409   3.689   5.867   5.894 -0.6116  0.4203  0.3918
 5823TIP3    H117410   3.599   5.897   5.882 -0.5612  0.6757  0.6378
 5823TIP3    H217411   3.702   5.801   5.825 -0.6173  1.1905 -0.3541
 5824TIP3   OH217412   8.251   6.007   0.919  0.1735  0.5379 -0.0692
 5824TIP3    H117413   8.325   5.956   0.953 -1.1132 -0.4266  1.3909
 5824TIP3    H217414   8.205   6.037   0.997 -2.6759 -1.4175 -0.8383
 5825TIP3   OH217415   6.169   4.814   0.561 -0.1994  0.1818  1.0302
 5825TIP3    H117416   6.153   4.893   0.509  1.2433 -1.4946 -2.2853
 5825TIP3    H217417   6.262   4.818   0.582 -0.3961 -0.0430  1.9776
 5826TIP3   OH217418   4.924   7.492   4.003 -0.5391  0.9194  0.3516
 5826TIP3    H117419   4.965   7.566   3.959  1.4672 -2.2233 -3.7931
 5826TIP3    H217420   4.980   7.475   4.079  1.5332  1.1777 -1.0307
 5827TIP3   OH217421   6.554   5.195   5.951 -0.1986 -0.0543  0.2786
 5827TIP3    H117422   6.594   5.188   5.864  2.0327 -0.4969  1.2692
 5827TIP3    H217423   6.528   5.286   5.959  1.1596  0.4080 -0.2428
 5828TIP3   OH217424   6.589   1.208   1.502  0.5926  0.3521 -0.1130
 5828TIP3    H117425   6.674   1.179   1.537  1.3828  0.9711 -1.4653
 5828TIP3    H217426   6.539   1.232   1.580  1.7424  0.2124  0.6955
 5829TIP3   OH217427   4.831   1.518   2.059 -0.1586  0.1031 -0.3348
 5829TIP3    H117428   4.798   1.559   1.980 -2.0463  0.2486  0.4772
 5829TIP3    H217429   4.922   1.495   2.039 -0.6240  0.0499 -2.5479
 5830TIP3   OH217430   0.698   7.200   2.961  0.1593 -0.3293  0.2383
 5830TIP3    H117431   0.744   7.283   2.976  0.0858  0.1971 -2.0765
 5830TIP3    H217432   0.765   7.140   2.930 -0.1705 -0.4779 -0.1967
 5831TIP3   OH217433   2.566   6.961   6.737  0.1125 -0.0220 -0.0966
 5831TIP3    H117434   2.661   6.954   6.730  0.0362 -0.6455 -0.5646
 5831TIP3    H217435   2.533   6.875   6.710 -0.5799  0.1643  0.1345
 5832TIP3   OH217436   4.491   2.751   0.928 -0.3047 -0.2522  0.1216
 5832TIP3    H117437   4.436   2.675   0.947 -3.2306  1.5604 -0.4803
 5832TIP3    H217438   4.574   2.733   0.973 -1.5903 -2.8543  1.6630
 5833TIP3   OH217439   2.541   1.000   0.215 -0.6327 -0.4763  0.6325
 5833TIP3    H117440   2.543   1.078   0.270  0.0455 -1.0473  1.4639
 5833TIP3    H217441   2.517   0.929   0.275 -0.6366 -0.9965  0.0295
 5834TIP3   OH217442   0.521   2.173   3.419 -0.6636 -0.4131  0.6572
 5834TIP3    H117443   0.521   2.078   3.403 -0.8669 -0.3150  0.0477
 5834TIP3    H217444   0.470   2.183   3.500 -4.1009 -0.5528 -1.2786
 5835TIP3   OH217445   6.727   4.991   3.239 -0.1371 -0.2429 -0.0319
 5835TIP3    H117446   6.735   4.895   3.241 -1.3753 -0.3755 -0.4407
 5835TIP3    H217447   6.633   5.006   3.228  0.0700  1.0266 -0.1278
 5836TIP3   OH217448   3.496   2.704   1.267  0.1298  0.0652  0.3159
 5836TIP3    H117449   3.529   2.789   1.296 -0.7484 -0.2178  2.3642
 5836TIP3    H217450   3.546   2.684   1.188  0.7233  2.2272  0.0901
 5837TIP3   OH217451   0.071   3.525   4.256  0.0032  0.7820  0.5999
 5837TIP3    H117452   0.062   3.481   4.172  1.3387  0.5764  0.5515
 5837TIP3    H217453   0.123   3.603   4.237  1.4781  0.0413  1.4336
 5838TIP3   OH217454   2.972   4.390   2.839  0.2786  0.1253 -0.6882
 5838TIP3    H117455   3.062   4.396   2.807  0.2278 -3.8583 -2.0657
 5838TIP3    H217456   2.975   4.323   2.907 -1.4930  0.7672  0.0850
 5839TIP3   OH217457   5.368   2.130   6.253 -0.7287 -0.1875 -0.4278
 5839TIP3    H117458   5.399   2.162   6.337 -2.9842 -0.3820  0.5459
 5839TIP3    H217459   5.341   2.209   6.206  0.1048 -0.1229 -0.8303
 5840TIP3   OH217460   0.050   3.438   0.009 -0.1440  0.2181 -0.6702
 5840TIP3    H117461   0.133   3.470   0.043 -0.3177 -1.5151  1.6553
 5840TIP3    H217462  -0.016   3.496   0.046 -0.1668 -0.3236  0.1668
 5841TIP3   OH217463   1.137   3.562   2.476 -0.0755 -0.3106  0.2606
 5841TIP3    H117464   1.162   3.498   2.410  1.6716 -0.9405  1.4415
 5841TIP3    H217465   1.057   3.526   2.516 -0.1076 -0.8449 -0.2806
 5842TIP3   OH217466   0.342   0.839   1.041  0.4343  0.5284  0.0569
 5842TIP3    H117467   0.397   0.768   1.076 -1.4433 -0.3361  1.4867
 5842TIP3    H217468   0.329   0.816   0.949  1.0512 -0.1985  0.1386
 5843TIP3   OH217469   5.064   3.909   0.264  0.5578 -0.0700 -0.7225
 5843TIP3    H117470   5.092   4.000   0.251  0.7798 -0.5167 -4.6003
 5843TIP3    H217471   5.137   3.868   0.310  0.5665  1.6030  0.8485
 5844TIP3   OH217472   0.847   4.296   3.828  0.1586  0.6822  0.2009
 5844TIP3    H117473   0.866   4.207   3.802 -0.6760  0.5944 -0.1682
 5844TIP3    H217474   0.839   4.293   3.923 -2.3834 -0.1948  0.0275
 5845TIP3   OH217475   6.105   5.052   1.653 -0.6766  0.0968 -0.0081
 5845TIP3    H117476   6.078   4.960   1.648  0.7831 -0.2851 -2.3983
 5845TIP3    H217477   6.023   5.101   1.645 -1.2237 -1.0344 -2.1213
 5846TIP3   OH217478   3.948   0.866   5.894 -0.6156 -0.4634 -0.6310
 5846TIP3    H117479   3.890   0.875   5.818 -0.4363 -0.4966 -0.7718
 5846TIP3    H217480   4.033   0.843   5.857  0.2739  2.4896 -0.6837
 5847TIP3   OH217481   5.710   6.539   5.078 -0.1458  0.2033 -0.1069
 5847TIP3    H117482   5.698   6.456   5.032 -0.6497  0.8811 -1.2540
 5847TIP3    H217483   5.621   6.566   5.102  0.0900 -0.0372  1.1343
 5848TIP3   OH217484   3.789   3.490   6.508 -0.7450  0.2279  0.0317
 5848TIP3    H117485   3.796   3.407   6.461  1.0325  0.3930 -0.0714
 5848TIP3    H217486   3.821   3.471   6.596  0.6301  0.9942 -0.2775
 5849TIP3   OH217487   1.189   5.650   4.553  0.7102 -0.0199 -0.2476
 5849TIP3    H117488   1.206   5.686   4.466  0.8055  0.4769 -0.0266
 5849TIP3    H217489   1.200   5.556   4.543  1.9493  0.1413 -0.4888
 5850TIP3   OH217490   6.327   1.162   2.974 -0.4419 -0.3598 -0.2221
 5850TIP3    H117491   6.239   1.124   2.972 -0.0122 -1.5062  1.2161
 5850TIP3    H217492   6.317   1.248   2.932 -2.3395 -0.2937  0.2808
 5851TIP3   OH217493   3.483   2.981   5.861  0.2558 -0.7284 -0.5076
 5851TIP3    H117494   3.469   2.886   5.869 -1.0423 -0.4323  1.9042
 5851TIP3    H217495   3.395   3.018   5.871  0.5897  0.7261 -2.5585
 5852TIP3   OH217496   0.841   5.166   0.208 -0.1827  0.0738  0.0803
 5852TIP3    H117497   0.815   5.251   0.173  0.6868  0.2617 -0.1329
 5852TIP3    H217498   0.899   5.187   0.282  0.0101 -0.3250  0.0489
 5853TIP3   OH217499   2.707   5.959   3.777 -0.2796  0.4522  0.1268
 5853TIP3    H117500   2.641   6.017   3.740  1.6952  1.0266 -2.8965
 5853TIP3    H217501   2.762   6.017   3.829 -0.9497  0.3609  0.9519
 5854TIP3   OH217502   1.207   6.527   4.528 -0.0822  0.4443  0.4372
 5854TIP3    H117503   1.168   6.468   4.592 -2.9946  2.2097  0.4617
 5854TIP3    H217504   1.152   6.605   4.530  0.3905  1.0770 -3.3509
 5855TIP3   OH217505   1.175   0.071   4.882 -0.1008 -0.0214  0.7156
 5855TIP3    H117506   1.197  -0.017   4.911  2.4069  0.1908 -0.3304
 5855TIP3    H217507   1.161   0.064   4.788 -0.6409  0.5719  0.7417
 5856TIP3   OH217508   0.849   4.803   4.730 -0.1237  0.7346 -0.0345
 5856TIP3    H117509   0.838   4.795   4.635 -0.8668  0.9443  0.0339
 5856TIP3    H217510   0.778   4.860   4.758 -0.7748 -0.4567  0.8351
 5857TIP3   OH217511   8.290   4.695   4.668  0.1153  0.6899 -0.3997
 5857TIP3    H117512   8.318   4.758   4.602 -0.0723  1.0306 -0.1563
 5857TIP3    H217513   8.208   4.659   4.634  0.8013 -0.2653 -1.0851
 5858TIP3   OH217514   7.101   6.974   4.483 -0.5111  0.4066 -0.6476
 5858TIP3    H117515   7.153   6.921   4.544 -0.9000 -0.2407 -0.8668
 5858TIP3    H217516   7.020   6.991   4.531  0.3424  2.4533  0.1795
 5859TIP3   OH217517   0.098   3.068   6.856 -0.1924 -0.2491  0.5164
 5859TIP3    H117518   0.116   2.994   6.914 -0.8153 -0.2934  0.6619
 5859TIP3    H217519   0.182   3.087   6.814  0.0483 -0.8204  0.7326
 5860TIP3   OH217520   0.043   6.809   1.885  0.2612 -0.4935  0.0010
 5860TIP3    H117521  -0.035   6.777   1.930  0.8482 -0.0384  1.4053
 5860TIP3    H217522   0.071   6.884   1.938  0.4590  0.6666 -1.6639
 5861TIP3   OH217523   7.083   2.799   5.672 -0.2417 -0.3466  0.0155
 5861TIP3    H117524   7.073   2.883   5.717  1.0013  0.0535 -0.4213
 5861TIP3    H217525   7.116   2.822   5.585 -0.7549 -1.2350 -0.4252
 5862TIP3   OH217526   4.834   4.163   5.957 -0.1199 -0.4143 -0.0972
 5862TIP3    H117527   4.865   4.254   5.948  0.8283 -0.5918  1.0981
 5862TIP3    H217528   4.831   4.131   5.867 -1.9453  1.2384 -0.7006
 5863TIP3   OH217529   8.416   0.549   4.944 -0.2621 -0.5881  0.5014
 5863TIP3    H117530   8.372   0.468   4.918 -0.8176 -0.3208  0.5875
 5863TIP3    H217531   8.373   0.574   5.026 -1.7870  1.0770 -0.7203
 5864TIP3   OH217532   7.090   5.354   1.992  1.2243  0.2771  0.9606
 5864TIP3    H117533   7.065   5.368   1.901  1.4799 -0.4757  0.7726
 5864TIP3    H217534   7.081   5.440   2.033  1.3320  0.6623  0.1757
 5865TIP3   OH217535   5.060   4.707   0.268  0.2804  0.1211  0.1111
 5865TIP3    H117536   5.146   4.749   0.261 -0.2648  1.1459 -0.8077
 5865TIP3    H217537   5.011   4.742   0.194 -0.9739 -0.3561  0.6938
 5866TIP3   OH217538   0.921   3.969   4.152  0.0363 -0.0821  0.0134
 5866TIP3    H117539   0.958   3.887   4.121  1.2362  1.1730 -2.1217
 5866TIP3    H217540   0.995   4.016   4.191 -0.3887  0.4180  0.2392
 5867TIP3   OH217541   5.191   1.426   4.176 -0.5095 -1.5213 -0.1775
 5867TIP3    H117542   5.204   1.486   4.249  0.2012 -2.5940  0.6122
 5867TIP3    H217543   5.096   1.422   4.165 -0.7018 -2.2340  1.4772
 5868TIP3   OH217544   5.540   1.540   0.325 -0.4523  0.1557  0.2720
 5868TIP3    H117545   5.511   1.474   0.387 -1.0626 -0.3674 -0.5419
 5868TIP3    H217546   5.630   1.559   0.349 -0.2404 -1.0309  0.4730
 5869TIP3   OH217547   3.285   0.892   4.259 -0.1205  0.4710  0.1047
 5869TIP3    H117548   3.266   0.952   4.187 -0.7329 -0.0752 -0.1943
 5869TIP3    H217549   3.363   0.844   4.230 -0.5388  0.0486 -0.3202
 5870TIP3   OH217550   3.021   7.570   3.618 -0.1686 -0.0858  0.3461
 5870TIP3    H117551   3.038   7.517   3.696 -1.6501  0.7370  1.2697
 5870TIP3    H217552   3.064   7.522   3.547  1.3455 -0.7852  1.6629
 5871TIP3   OH217553   4.262   7.084   4.585 -0.2106  0.2171 -0.5756
 5871TIP3    H117554   4.227   7.157   4.636 -0.0015  0.8177 -1.2809
 5871TIP3    H217555   4.356   7.102   4.579 -0.4258  0.9346 -2.3878
 5872TIP3   OH217556   2.368   0.813   5.465 -0.1896  0.2081  0.5220
 5872TIP3    H117557   2.434   0.800   5.396 -0.1830 -0.7782  0.7036
 5872TIP3    H217558   2.284   0.800   5.420 -0.1920 -0.2639  0.6636
 5873TIP3   OH217559   5.157   3.139   6.657  0.0827  0.4207 -0.2569
 5873TIP3    H117560   5.138   3.065   6.715 -0.2658  0.0222 -0.8612
 5873TIP3    H217561   5.252   3.148   6.659  0.1525 -0.2511 -0.4202
 5874TIP3   OH217562   1.227   0.087   1.136 -0.0196 -0.2339  0.0181
 5874TIP3    H117563   1.234   0.016   1.199 -0.0061 -0.3961 -0.1649
 5874TIP3    H217564   1.311   0.131   1.139 -0.5998  0.8462  1.3945
 5875TIP3   OH217565   1.247   4.606   4.854  0.4202  0.3719  0.1616
 5875TIP3    H117566   1.330   4.648   4.873  0.4863  0.0662  0.5597
 5875TIP3    H217567   1.255   4.575   4.764  1.4021 -1.2038  0.7520
 5876TIP3   OH217568   7.351   5.731   5.197 -0.2060 -0.5284  0.1444
 5876TIP3    H117569   7.386   5.790   5.264 -1.8861  1.7212 -0.7952
 5876TIP3    H217570   7.288   5.677   5.244  0.0211 -0.3020  0.7268
 5877TIP3   OH217571   0.554   4.623   3.209  0.0022 -0.0672  0.1908
 5877TIP3    H117572   0.465   4.615   3.175  0.1079 -2.8301  0.3714
 5877TIP3    H217573   0.610   4.592   3.139  0.7197  0.1426  0.6542
 5878TIP3   OH217574   6.233   7.688   3.967 -0.1600  0.2754  0.5166
 5878TIP3    H117575   6.248   7.696   4.061 -2.3040 -0.7651  1.0084
 5878TIP3    H217576   6.257   7.597   3.946  0.1157  0.4418  0.0884
 5879TIP3   OH217577   7.716   6.846   2.758  0.6399 -0.0699 -0.5876
 5879TIP3    H117578   7.754   6.925   2.798 -1.5536 -0.0135  1.6494
 5879TIP3    H217579   7.656   6.813   2.825  1.2978 -3.5345 -1.5510
 5880TIP3   OH217580   5.795   2.290   2.075 -0.4934 -0.3074 -0.2179
 5880TIP3    H117581   5.710   2.309   2.114  0.3679 -0.1322  1.7069
 5880TIP3    H217582   5.857   2.299   2.148  1.5968  2.5981 -2.1333
 5881TIP3   OH217583   4.157   0.042   2.004 -0.4222  0.2134  0.5254
 5881TIP3    H117584   4.135  -0.032   2.060 -1.4763  0.5465  0.5722
 5881TIP3    H217585   4.205   0.103   2.060  0.0846 -0.2395  0.5903
 5882TIP3   OH217586   0.413   6.610   1.367 -0.0279  0.0683 -0.1673
 5882TIP3    H117587   0.429   6.541   1.431 -0.2457  2.2217  2.3796
 5882TIP3    H217588   0.380   6.564   1.290  3.0612 -2.9751  0.0604
 5883TIP3   OH217589   7.855   1.958   3.943 -0.0536  0.1935 -0.1504
 5883TIP3    H117590   7.870   1.999   3.858  0.6879 -2.4227 -1.3636
 5883TIP3    H217591   7.760   1.965   3.956 -0.0980  1.1469 -0.8686
 5884TIP3   OH217592   3.605   7.584   0.880 -0.1848  0.0834  0.3964
 5884TIP3    H117593   3.700   7.572   0.882 -0.4167 -2.4022  0.1715
 5884TIP3    H217594   3.577   7.563   0.970 -0.5959 -0.2965  0.1828
 5885TIP3   OH217595   4.256   0.468   6.080 -0.4841  1.0080  0.3079
 5885TIP3    H117596   4.325   0.526   6.050 -0.8611  1.3183  0.0222
 5885TIP3    H217597   4.189   0.472   6.011  0.0051 -0.7186 -0.3208
 5886TIP3   OH217598   6.923   3.561   5.130 -0.0727  0.9323  0.3092
 5886TIP3    H117599   6.974   3.642   5.129 -0.3257  1.0929 -0.8139
 5886TIP3    H217600   6.882   3.557   5.044  3.6686 -2.7844 -1.6178
 5887TIP3   OH217601   6.461   2.991   2.062  0.1578 -0.4473  0.0938
 5887TIP3    H117602   6.470   3.025   1.973  0.0288 -1.6461 -0.3848
 5887TIP3    H217603   6.381   2.939   2.061  0.7233 -1.3638  0.6130
 5888TIP3   OH217604   6.727   6.872   3.258 -0.3218  0.2576 -0.2325
 5888TIP3    H117605   6.759   6.956   3.294 -2.7272  0.7470  0.9862
 5888TIP3    H217606   6.633   6.872   3.277 -0.9243 -1.5122 -2.7129
 5889TIP3   OH217607   0.654   1.365   1.273  0.8502  0.0900  0.0168
 5889TIP3    H117608   0.704   1.425   1.328  0.8184 -0.1882  0.3527
 5889TIP3    H217609   0.720   1.306   1.236  0.7395 -0.5211  0.7660
 5890TIP3   OH217610   2.790   6.671   4.270 -0.1672 -0.4000  0.0172
 5890TIP3    H117611   2.735   6.609   4.318 -1.2179  0.6210  0.1661
 5890TIP3    H217612   2.804   6.630   4.184 -2.8799  0.1805 -0.7887
 5891TIP3   OH217613   4.102   2.327   2.287  0.0142  0.4519 -0.1420
 5891TIP3    H117614   4.118   2.408   2.334 -1.0068  0.3788  0.3637
 5891TIP3    H217615   4.150   2.337   2.204  1.2215  0.8828  0.5892
 5892TIP3   OH217616   5.975   5.368   5.055  0.0237 -0.1968  0.8161
 5892TIP3    H117617   6.055   5.315   5.060 -0.0584 -0.5371 -0.8410
 5892TIP3    H217618   5.906   5.304   5.037  0.1049  0.4854 -2.5275
 5893TIP3   OH217619   2.329   5.971   4.653 -0.6751 -0.3693 -0.2922
 5893TIP3    H117620   2.244   5.968   4.610 -1.6803  1.6025  1.4039
 5893TIP3    H217621   2.320   5.916   4.731 -0.3352 -0.3055 -0.2035
 5894TIP3   OH217622   2.802   4.998   5.307  0.0935  0.0496  0.1416
 5894TIP3    H117623   2.858   5.074   5.296  1.1301 -0.9074 -1.5307
 5894TIP3    H217624   2.799   4.983   5.401  0.7418  1.4927  0.4082
 5895TIP3   OH217625   7.390   0.727   4.235  0.2840  0.1929  0.2161
 5895TIP3    H117626   7.457   0.665   4.206  0.4561  0.6601 -0.4077
 5895TIP3    H217627   7.337   0.743   4.157 -3.1412 -3.2832  1.5184
 5896TIP3   OH217628   6.997   4.589   2.151  0.3785  0.0822 -0.1351
 5896TIP3    H117629   7.047   4.583   2.233  2.3962 -0.8641 -1.3391
 5896TIP3    H217630   6.916   4.633   2.175  0.8519 -0.2665  2.3850
 5897TIP3   OH217631   2.279   4.879   2.071 -0.3301  0.1769  0.3677
 5897TIP3    H117632   2.226   4.803   2.093  2.4557 -1.5054  1.7756
 5897TIP3    H217633   2.218   4.939   2.028 -2.7931 -2.5455 -0.2568
 5898TIP3   OH217634   2.076   6.288   3.846  0.2056 -0.0407  0.4752
 5898TIP3    H117635   2.155   6.261   3.799 -0.3049 -0.8980  0.0907
 5898TIP3    H217636   2.094   6.378   3.873  1.8719 -0.6724  1.6289
 5899TIP3   OH217637   5.888   6.517   6.197  0.5369  0.2124  0.1429
 5899TIP3    H117638   5.937   6.595   6.224 -1.2558  1.6809 -0.6538
 5899TIP3    H217639   5.803   6.527   6.239 -0.5420 -0.0819 -1.8893
 5900TIP3   OH217640   6.515   0.879   6.067  0.2625 -0.5879 -0.0410
 5900TIP3    H117641   6.445   0.932   6.028  0.3928 -0.4568 -0.0988
 5900TIP3    H217642   6.483   0.789   6.061 -0.4098 -0.4360  0.9684
 5901TIP3   OH217643   6.100   3.412   1.721 -0.0612 -0.2339 -0.3052
 5901TIP3    H117644   6.019   3.434   1.676  0.2066  0.6540 -0.3630
 5901TIP3    H217645   6.142   3.496   1.739  0.6617 -0.6614  0.0662
 5902TIP3   OH217646   2.214   2.078   2.504 -0.0192 -0.6773 -0.7797
 5902TIP3    H117647   2.264   2.157   2.481  0.9088 -0.0333  2.9218
 5902TIP3    H217648   2.280   2.011   2.519 -0.5846 -1.1664 -0.4506
 5903TIP3   OH217649   6.726   5.499   2.606  0.1257  0.3544  0.5607
 5903TIP3    H117650   6.784   5.429   2.639  0.7539  0.0209 -1.1678
 5903TIP3    H217651   6.785   5.559   2.561 -0.7351  0.6549 -0.1800
 5904TIP3   OH217652   4.808   6.283   0.932  0.0184 -0.3659 -1.0193
 5904TIP3    H117653   4.849   6.366   0.959  1.8149 -2.0403  1.9906
 5904TIP3    H217654   4.769   6.249   1.012 -0.8488 -2.3905 -2.2280
 5905TIP3   OH217655   6.438   7.225   0.370  0.1567 -0.0214 -0.1995
 5905TIP3    H117656   6.494   7.287   0.323  2.4696 -1.6505  0.2556
 5905TIP3    H217657   6.353   7.233   0.327  0.7882  2.2829 -1.1947
 5906TIP3   OH217658   3.719   3.539   1.651 -0.0282 -0.7183  0.4196
 5906TIP3    H117659   3.768   3.480   1.709  3.8161  1.8334  0.0806
 5906TIP3    H217660   3.750   3.517   1.563  1.0531  1.2852  0.2435
 5907TIP3   OH217661   6.650   7.426   4.256  0.2274 -0.0804 -0.4948
 5907TIP3    H117662   6.643   7.394   4.167 -0.8201 -1.1916 -0.0369
 5907TIP3    H217663   6.703   7.360   4.301  2.3784  1.3967 -0.6784
 5908TIP3   OH217664   0.472   0.366   1.098  0.1335  0.0677 -0.2565
 5908TIP3    H117665   0.396   0.308   1.093  0.6663 -0.6525 -0.1121
 5908TIP3    H217666   0.540   0.321   1.049  1.3577 -0.7463  2.0404
 5909TIP3   OH217667   7.190   0.702   3.502  0.2254 -0.1207  0.3018
 5909TIP3    H117668   7.205   0.754   3.581  0.5271 -1.1326  0.9174
 5909TIP3    H217669   7.145   0.624   3.532  0.9358 -0.8270 -0.4284
 5910TIP3   OH217670   2.991   7.686   4.593  0.4927 -0.2970 -0.0169
 5910TIP3    H117671   3.030   7.608   4.632  0.2633  0.0782  0.9805
 5910TIP3    H217672   2.974   7.744   4.667 -0.3687  0.2477 -0.6307
 5911TIP3   OH217673   8.222   5.037   2.042  0.2323 -0.2972 -0.0450
 5911TIP3    H117674   8.265   4.960   2.005 -0.0135 -0.5718  0.2318
 5911TIP3    H217675   8.246   5.036   2.135  0.9292  0.4430 -0.2074
 5912TIP3   OH217676   3.706   4.058   3.179  0.4054  0.1803  0.0543
 5912TIP3    H117677   3.725   3.969   3.150 -0.9425  0.4672 -1.9486
 5912TIP3    H217678   3.685   4.050   3.272  0.6158 -1.5318 -0.0247
 5913TIP3   OH217679   1.785   5.827   4.494 -0.0028  0.3833  0.3104
 5913TIP3    H117680   1.762   5.852   4.584  0.9937  0.1754  0.6330
 5913TIP3    H217681   1.754   5.900   4.441 -2.0736 -0.2027  0.6166
 5914TIP3   OH217682   7.622   7.309   6.869  0.4761 -0.1803  0.3425
 5914TIP3    H117683   7.526   7.319   6.869  0.4237 -0.5587  1.1724
 5914TIP3    H217684   7.649   7.338   6.782 -0.3298  0.5492  0.3122
 5915TIP3   OH217685   5.835   1.777   5.897  0.2958 -0.1221 -0.2695
 5915TIP3    H117686   5.903   1.842   5.879  1.6363 -0.1796  3.5405
 5915TIP3    H217687   5.788   1.813   5.973 -1.8354 -1.6162 -0.7996
 5916TIP3   OH217688   0.659   1.023   2.709 -0.3326  0.1840  0.0717
 5916TIP3    H117689   0.631   0.940   2.747  0.4491  0.3974  1.1661
 5916TIP3    H217690   0.755   1.018   2.709 -0.2726 -0.0403 -2.4544
 5917TIP3   OH217691   5.880   4.818   0.506 -0.5484  0.4510  0.1330
 5917TIP3    H117692   5.967   4.816   0.546 -0.1964  0.0254 -0.6361
 5917TIP3    H217693   5.835   4.889   0.551 -0.2363 -0.1368  1.4159
 5918TIP3   OH217694   8.183   0.921   1.913  0.3142  0.6463 -0.0499
 5918TIP3    H117695   8.118   0.976   1.956 -0.5039  0.3219 -0.8422
 5918TIP3    H217696   8.208   0.856   1.979 -2.2908 -1.0141 -0.5694
 5919TIP3   OH217697   5.597   7.257   5.738 -0.1414 -0.0550 -0.5062
 5919TIP3    H117698   5.529   7.189   5.734  0.0767 -0.3616  0.5637
 5919TIP3    H217699   5.614   7.280   5.647 -0.9268 -0.7325 -0.8355
 5920TIP3   OH217700   2.348   0.781   6.214  0.1763 -0.0393 -0.6273
 5920TIP3    H117701   2.409   0.754   6.283 -0.7946 -0.8229 -0.0525
 5920TIP3    H217702   2.380   0.739   6.135 -0.0916 -1.1591 -0.1580
 5921TIP3   OH217703   2.716   2.573   1.812 -0.3050  0.5903 -0.0094
 5921TIP3    H117704   2.629   2.595   1.779 -0.2639  2.6537  1.0977
 5921TIP3    H217705   2.751   2.656   1.844  1.2381 -0.5812  1.5030
 5922TIP3   OH217706   5.216   6.140   1.323  0.4164 -0.1043 -0.0861
 5922TIP3    H117707   5.301   6.135   1.368  0.0829 -0.3137  0.5229
 5922TIP3    H217708   5.234   6.193   1.245  1.0893 -0.0664  0.0873
 5923TIP3   OH217709   2.703   1.978   0.402 -0.0764 -0.6723  0.0280
 5923TIP3    H117710   2.777   1.950   0.456  0.4095 -1.1909 -0.8830
 5923TIP3    H217711   2.715   2.073   0.392 -0.5114 -0.4667  1.3089
 5924TIP3   OH217712   6.597   4.329   3.040  0.1514  0.2070  0.0469
 5924TIP3    H117713   6.527   4.363   3.095 -0.7220 -0.4535 -0.6300
 5924TIP3    H217714   6.641   4.407   3.006  1.7158  0.6747  2.8364
 5925TIP3   OH217715   6.525   7.155   4.890 -0.0652  0.5205 -0.0054
 5925TIP3    H117716   6.500   7.101   4.964  1.7935  0.6404  0.7701
 5925TIP3    H217717   6.467   7.231   4.894  1.8971  2.0637  3.2312
 5926TIP3   OH217718   2.168   3.305   2.718  0.0394  0.0821 -0.1681
 5926TIP3    H117719   2.239   3.341   2.772  0.5912  0.4728 -1.1334
 5926TIP3    H217720   2.088   3.326   2.766  0.5966 -0.9875  1.3002
 5927TIP3   OH217721   3.187   6.533   1.560  0.2717  0.6099 -0.0294
 5927TIP3    H117722   3.159   6.623   1.576  0.8314  0.7643  0.1189
 5927TIP3    H217723   3.115   6.493   1.512  1.0496  1.8536 -2.3805
 5928TIP3   OH217724   7.603   3.826   0.557  0.0121 -0.4462 -0.3511
 5928TIP3    H117725   7.538   3.875   0.608 -0.8008 -1.0549 -0.7805
 5928TIP3    H217726   7.597   3.737   0.590  0.1921 -0.6334 -0.8185
 5929TIP3   OH217727   7.795   5.377   0.179  0.1626  0.2714  0.2425
 5929TIP3    H117728   7.737   5.414   0.113  1.4784  0.6562 -0.7510
 5929TIP3    H217729   7.739   5.363   0.256 -1.2669  0.4125 -0.7300
 5930TIP3   OH217730   1.470   0.231   5.924 -0.2440  0.1415  0.7855
 5930TIP3    H117731   1.544   0.248   5.865 -0.3377  0.2830  0.7081
 5930TIP3    H217732   1.462   0.311   5.976  0.6908 -0.4903  1.9254
 5931TIP3   OH217733   8.323   2.371   3.241 -0.0003 -0.7013  0.1355
 5931TIP3    H117734   8.311   2.277   3.251 -0.5410 -0.4645  2.0325
 5931TIP3    H217735   8.235   2.408   3.254  0.3276  0.1174  0.1018
 5932TIP3   OH217736   0.984   7.118   6.513  0.1469 -0.3068  0.7287
 5932TIP3    H117737   0.942   7.190   6.559  0.2933 -1.1981  2.3144
 5932TIP3    H217738   1.053   7.088   6.572  0.0030 -1.8296  0.1821
 5933TIP3   OH217739   1.316   0.857   1.656 -0.1290 -0.1171 -0.0079
 5933TIP3    H117740   1.320   0.762   1.658 -0.4333 -0.1290  0.3065
 5933TIP3    H217741   1.352   0.882   1.571 -1.1412 -0.5773 -0.5946
 5934TIP3   OH217742   1.016   6.136   0.573 -0.3659  0.1519 -0.0775
 5934TIP3    H117743   0.979   6.166   0.490 -0.9467 -0.6636 -0.1240
 5934TIP3    H217744   0.954   6.167   0.640 -0.0402  0.5736  0.0338
 5935TIP3   OH217745   0.539   7.368   4.112  0.6112  0.3763 -0.0857
 5935TIP3    H117746   0.633   7.364   4.095  0.2922 -0.4878 -1.8104
 5935TIP3    H217747   0.531   7.426   4.188  2.5219  0.4779  0.0810
 5936TIP3   OH217748   4.976   0.277   4.611  0.0316 -0.2421  0.2558
 5936TIP3    H117749   4.899   0.262   4.556 -0.2240  0.1824  0.5016
 5936TIP3    H217750   5.033   0.202   4.592  0.1176  0.0951 -0.8878
 5937TIP3   OH217751   2.757   6.366   0.545 -0.3154  0.1485  0.5651
 5937TIP3    H117752   2.684   6.409   0.500 -0.3526 -0.4844  0.0097
 5937TIP3    H217753   2.744   6.273   0.528  0.8040  0.0536  0.1734
 5938TIP3   OH217754   0.464   2.282   1.065 -0.1175  0.0873  0.5139
 5938TIP3    H117755   0.532   2.343   1.094 -1.5941  2.0865 -0.0051
 5938TIP3    H217756   0.506   2.231   0.995  0.9194  1.1248  0.3510
 5939TIP3   OH217757   1.165   2.878   3.604 -0.0586  0.5022  0.0979
 5939TIP3    H117758   1.120   2.924   3.675 -0.6649 -1.2310  0.8893
 5939TIP3    H217759   1.095   2.840   3.552  0.4205  0.5882 -0.6159
 5940TIP3   OH217760   0.901   5.725   3.508  0.2807  0.6878 -0.0249
 5940TIP3    H117761   0.960   5.696   3.578 -0.1977  0.7378  0.4077
 5940TIP3    H217762   0.900   5.652   3.446 -1.0774 -0.3682  1.1636
 5941TIP3   OH217763   6.771   0.551   0.814  0.2775 -0.1761 -0.5456
 5941TIP3    H117764   6.840   0.618   0.815 -0.1038  0.2979  2.0261
 5941TIP3    H217765   6.695   0.596   0.778  0.8248 -0.1988 -1.7861
 5942TIP3   OH217766   0.992   7.065   5.741 -0.3614  0.5622 -0.3419
 5942TIP3    H117767   0.926   7.008   5.703 -1.0101  0.0046  1.5258
 5942TIP3    H217768   1.023   7.017   5.819  1.7296  1.1259 -0.7687
 5943TIP3   OH217769   1.939   1.357   5.920  0.3544 -0.0848  0.2296
 5943TIP3    H117770   1.936   1.265   5.895  1.4093 -0.4762  1.4443
 5943TIP3    H217771   1.862   1.396   5.879  0.1014 -1.4229 -0.6042
 5944TIP3   OH217772   2.160   3.491   0.819  0.3560 -0.1690  0.4876
 5944TIP3    H117773   2.187   3.583   0.824  0.3964 -0.1594  0.1260
 5944TIP3    H217774   2.191   3.453   0.901 -0.9383  0.4629  1.2965
 5945TIP3   OH217775   4.682   6.121   4.967  0.0523 -0.4840  0.2260
 5945TIP3    H117776   4.775   6.126   4.948  0.4458  0.6014  2.1731
 5945TIP3    H217777   4.641   6.172   4.897  1.0264  0.0468  0.0284
 5946TIP3   OH217778   7.118   5.462   3.890 -0.5901 -0.0229  0.2573
 5946TIP3    H117779   7.122   5.481   3.796 -0.6264 -2.1736 -0.2244
 5946TIP3    H217780   7.037   5.504   3.919 -0.3562  1.0327 -0.5653
 5947TIP3   OH217781   0.466   0.357   5.586  0.3176 -0.1469 -0.0603
 5947TIP3    H117782   0.487   0.450   5.601  0.9533 -0.4465  1.0067
 5947TIP3    H217783   0.474   0.347   5.491  0.0763  0.9300 -0.2151
 5948TIP3   OH217784   1.075   7.912   1.348 -0.3924  0.5972 -0.3539
 5948TIP3    H117785   1.157   7.934   1.393 -1.5079  0.2704  1.9702
 5948TIP3    H217786   1.037   7.841   1.399 -2.3256  1.0034 -1.1212
 5949TIP3   OH217787   2.135   5.722   4.670 -0.3190 -0.2269  0.3170
 5949TIP3    H117788   2.090   5.746   4.751 -0.3584  0.6743  0.0432
 5949TIP3    H217789   2.188   5.646   4.693 -0.9808 -0.5031  0.9717
 5950TIP3   OH217790   7.537   5.232   5.307  0.2238  0.1732 -0.4838
 5950TIP3    H117791   7.525   5.139   5.290 -0.2404  0.0173  0.5911
 5950TIP3    H217792   7.632   5.242   5.318  0.1839 -0.3803  0.4583
 5951TIP3   OH217793   3.767   7.575   0.377  0.2339 -0.3684  0.3953
 5951TIP3    H117794   3.839   7.579   0.440 -0.0866 -2.1732  0.9470
 5951TIP3    H217795   3.692   7.609   0.425  0.5189  0.6631  0.1221
 5952TIP3   OH217796   1.880   3.204   6.104  0.2342 -0.6695 -0.3088
 5952TIP3    H117797   1.898   3.269   6.171  0.8678 -0.9542 -0.1908
 5952TIP3    H217798   1.802   3.157   6.135  0.6610 -0.9485  0.3398
 5953TIP3   OH217799   1.217   5.757   5.685 -0.6780  0.1180 -0.6338
 5953TIP3    H117800   1.251   5.843   5.657  0.1529  0.2090  0.5587
 5953TIP3    H217801   1.165   5.727   5.611 -0.1526  1.2014 -1.4877
 5954TIP3   OH217802   5.453   6.435   0.064  0.0549 -0.0179  0.1984
 5954TIP3    H117803   5.398   6.451  -0.012  0.2632 -2.1329 -0.4763
 5954TIP3    H217804   5.528   6.493   0.052  0.9906 -1.5688 -2.2634
 5955TIP3   OH217805   7.156   4.486   3.173  0.1129 -0.0663 -0.6594
 5955TIP3    H117806   7.222   4.514   3.109  0.9752  0.0570  0.2653
 5955TIP3    H217807   7.159   4.553   3.241  0.6790 -1.2471  0.5221
 5956TIP3   OH217808   1.294   1.245   4.561 -0.0808 -0.3581 -0.0468
 5956TIP3    H117809   1.320   1.313   4.499 -1.4462 -0.1897 -0.4492
 5956TIP3    H217810   1.311   1.284   4.647 -1.5015  0.7852 -0.2526
 5957TIP3   OH217811   0.777   6.669   0.397 -0.1652  0.1493 -0.2700
 5957TIP3    H117812   0.697   6.616   0.395 -0.2744  0.3153 -0.2986
 5957TIP3    H217813   0.750   6.755   0.365  0.5876 -0.5439 -3.0681
 5958TIP3   OH217814   0.200   0.661   6.648  0.3112 -0.3275 -0.3499
 5958TIP3    H117815   0.240   0.595   6.704  0.7204 -0.8078 -1.1945
 5958TIP3    H217816   0.273   0.713   6.614 -0.1164  2.6916  2.7735
 5959TIP3   OH217817   0.712   5.736   0.858 -0.5979 -0.5066  0.4303
 5959TIP3    H117818   0.728   5.821   0.898 -1.3582 -0.1214 -0.0660
 5959TIP3    H217819   0.617   5.735   0.841 -0.7943 -1.8836  1.4301
 5960TIP3   OH217820   5.146   6.190   0.667 -0.3455 -0.4796  0.1733
 5960TIP3    H117821   5.051   6.198   0.665 -0.2363  0.7951 -0.7300
 5960TIP3    H217822   5.178   6.258   0.608  1.0975 -1.5428 -0.3474
 5961TIP3   OH217823   3.385   2.006   4.747  0.6882  0.3287  0.4508
 5961TIP3    H117824   3.460   1.963   4.788  0.6312  0.9555  1.2437
 5961TIP3    H217825   3.401   2.100   4.762  1.2424  0.6843 -1.9551
 5962TIP3   OH217826   5.238   3.626   4.859 -0.7645  0.5794  0.1820
 5962TIP3    H117827   5.222   3.669   4.943 -2.1699 -0.0558  0.2731
 5962TIP3    H217828   5.214   3.692   4.794  1.1333  1.3685  0.2338
 5963TIP3   OH217829   0.638   2.239   1.757 -0.0348 -0.0968 -0.5485
 5963TIP3    H117830   0.592   2.216   1.837  1.7353 -0.9268  0.2957
 5963TIP3    H217831   0.569   2.258   1.694 -1.4869 -0.4237  0.8743
 5964TIP3   OH217832   2.976   0.777   3.993 -0.0973  0.4026 -0.0091
 5964TIP3    H117833   2.982   0.850   3.931 -0.1302 -1.7417 -2.7447
 5964TIP3    H217834   3.064   0.738   3.992 -0.3974 -0.2963  0.4591
 5965TIP3   OH217835   3.699   3.747   6.532 -0.4153 -0.5705 -0.2809
 5965TIP3    H117836   3.656   3.782   6.454 -1.2170 -1.5687 -0.3158
 5965TIP3    H217837   3.723   3.657   6.508 -0.3160 -0.7545  0.4803
 5966TIP3   OH217838   2.319   6.538   5.381  0.0729 -0.2816 -0.1435
 5966TIP3    H117839   2.385   6.607   5.391 -0.2922 -0.1198  1.3421
 5966TIP3    H217840   2.274   6.535   5.465  0.4713 -2.7252  0.0722
 5967TIP3   OH217841   0.793   3.267   5.431 -0.5933 -0.4886  0.4259
 5967TIP3    H117842   0.849   3.220   5.493 -0.1107  1.4609  1.5386
 5967TIP3    H217843   0.706   3.231   5.446 -0.6315  0.4462  2.8422
 5968TIP3   OH217844   4.451   3.443   3.673 -0.1961  0.1971  0.4076
 5968TIP3    H117845   4.361   3.442   3.642 -0.5731  0.1911  1.4535
 5968TIP3    H217846   4.487   3.525   3.640 -0.9175  0.7055  0.8631
 5969TIP3   OH217847   2.157   4.515   6.315 -0.7227 -0.2058  0.0277
 5969TIP3    H117848   2.088   4.573   6.346  0.1298  1.1731 -0.5632
 5969TIP3    H217849   2.163   4.446   6.381 -1.6301  0.4712  0.8340
 5970TIP3   OH217850   4.515   1.869   0.243  0.3842 -0.5105  0.0493
 5970TIP3    H117851   4.604   1.889   0.269  0.4037 -0.4682 -0.0475
 5970TIP3    H217852   4.490   1.793   0.295  0.0038  0.2743  1.0610
 5971TIP3   OH217853   4.578   0.545   0.897  0.6025 -0.4049 -0.0585
 5971TIP3    H117854   4.533   0.462   0.886  0.3706 -0.2386 -0.3962
 5971TIP3    H217855   4.618   0.562   0.811  1.9940 -0.9426  0.4452
 5972TIP3   OH217856   5.507   4.614   3.987 -0.5244 -0.3739  0.5874
 5972TIP3    H117857   5.596   4.580   3.972 -0.5250  0.1213 -0.6829
 5972TIP3    H217858   5.457   4.538   4.018  0.7757 -0.2399  3.3494
 5973TIP3   OH217859   2.875   5.439   4.084 -0.0507 -0.2668 -0.3810
 5973TIP3    H117860   2.869   5.535   4.089 -0.7684 -0.1924 -1.9835
 5973TIP3    H217861   2.784   5.410   4.071  0.1910 -1.1503 -0.1438
 5974TIP3   OH217862   2.333   1.827   5.938  0.3646 -0.0013  0.0478
 5974TIP3    H117863   2.299   1.747   5.980  0.3826  0.6874  1.4478
 5974TIP3    H217864   2.421   1.804   5.909  0.2579 -0.5831  0.1804
 5975TIP3   OH217865   4.150   3.935   6.294  0.2471 -0.0789  0.0994
 5975TIP3    H117866   4.197   3.853   6.279  1.2826  0.6611 -0.8999
 5975TIP3    H217867   4.084   3.938   6.224 -2.1937 -1.6552  2.1473
 5976TIP3   OH217868   1.911   7.498   3.379  1.1601 -0.1757  0.0582
 5976TIP3    H117869   1.974   7.521   3.447 -0.0735 -1.7815  1.8446
 5976TIP3    H217870   1.880   7.410   3.403  0.2648 -0.5767 -2.2895
 5977TIP3   OH217871   0.870   3.876  -0.002  0.2743  0.2091  0.1330
 5977TIP3    H117872   0.929   3.923   0.057  0.3446 -0.5797  0.7140
 5977TIP3    H217873   0.783   3.907   0.023  0.3403  0.2640  0.2977
 5978TIP3   OH217874   1.068   6.720   3.574 -0.4656 -0.2186 -0.0286
 5978TIP3    H117875   1.098   6.638   3.613 -0.5236  0.1973  0.9205
 5978TIP3    H217876   1.146   6.775   3.569 -0.4314 -0.3140 -0.6404
 5979TIP3   OH217877   5.623   6.144   3.230  0.1776  0.4646  0.2218
 5979TIP3    H117878   5.691   6.201   3.194 -0.5699  1.1140 -0.1809
 5979TIP3    H217879   5.589   6.097   3.154  1.6787 -1.5476  0.6990
 5980TIP3   OH217880   4.368   7.468   1.578  0.6224 -0.2416 -0.0633
 5980TIP3    H117881   4.404   7.414   1.649  2.6408  0.4920 -0.4784
 5980TIP3    H217882   4.442   7.519   1.546 -0.4880  0.2848 -1.9659
 5981TIP3   OH217883   5.357   7.368   0.897 -0.9797 -0.1796  0.3918
 5981TIP3    H117884   5.294   7.356   0.825 -1.2698 -2.0678  0.9075
 5981TIP3    H217885   5.309   7.343   0.975 -0.9533  2.7066  1.4677
 5982TIP3   OH217886   7.213   0.502   4.725  0.3141 -0.7493  0.6124
 5982TIP3    H117887   7.164   0.584   4.741 -0.2628 -0.5996 -1.6172
 5982TIP3    H217888   7.304   0.529   4.722  0.0625 -0.0036 -0.9775
 5983TIP3   OH217889   4.499   4.707   2.466 -0.0379 -0.0400  0.0463
 5983TIP3    H117890   4.574   4.653   2.441  0.3324  0.3471  0.3133
 5983TIP3    H217891   4.480   4.757   2.387 -0.5373 -0.7276 -0.2809
 5984TIP3   OH217892   1.215   5.746   3.460 -0.4520 -0.6532 -0.2822
 5984TIP3    H117893   1.295   5.741   3.407 -1.4608 -1.8201 -1.7913
 5984TIP3    H217894   1.192   5.654   3.476 -0.3819 -0.3273  1.9381
 5985TIP3   OH217895   3.006   0.929   1.096  0.0022  0.6069  0.2227
 5985TIP3    H117896   3.013   1.024   1.088  1.5207  0.5817  0.8942
 5985TIP3    H217897   3.097   0.899   1.104 -0.4892 -0.8359  0.7209
 5986TIP3   OH217898   7.676   1.116   2.710 -0.1946  0.3889 -0.1214
 5986TIP3    H117899   7.596   1.117   2.762 -0.7095  0.2830 -0.9042
 5986TIP3    H217900   7.682   1.027   2.675  0.5810  0.2202  0.4047
 5987TIP3   OH217901   0.812   4.531   1.841 -0.2105  0.0024 -0.0310
 5987TIP3    H117902   0.830   4.439   1.821 -0.5598 -0.2875  0.9055
 5987TIP3    H217903   0.865   4.581   1.779  0.2477 -0.8327 -0.3200
 5988TIP3   OH217904   7.421   0.343   1.736 -0.0672 -0.0835  0.0578
 5988TIP3    H117905   7.331   0.310   1.734  0.2446 -0.9305 -0.9504
 5988TIP3    H217906   7.454   0.327   1.648  1.5488 -1.1583  0.7986
 5989TIP3   OH217907   2.759   0.224   5.101 -0.7206  0.6575  0.1692
 5989TIP3    H117908   2.802   0.254   5.021  0.9438 -0.7217  0.4872
 5989TIP3    H217909   2.827   0.227   5.168 -1.2196 -1.1203  0.8149
 5990TIP3   OH217910   2.958   4.189   0.009 -0.6967  0.4764  0.3933
 5990TIP3    H117911   3.053   4.179   0.014 -0.3307  2.8081 -0.5906
 5990TIP3    H217912   2.924   4.133   0.079  1.4050 -0.1276  1.0079
 5991TIP3   OH217913   0.763   7.797   4.671 -0.6667 -0.4541 -0.0544
 5991TIP3    H117914   0.815   7.743   4.612  0.8059 -0.7532  1.4391
 5991TIP3    H217915   0.696   7.737   4.706 -0.7960 -0.5717 -0.4966
 5992TIP3   OH217916   3.242   0.361   3.230  0.0952  0.4049 -0.2102
 5992TIP3    H117917   3.327   0.365   3.274  1.6471  4.6006 -2.9282
 5992TIP3    H217918   3.263   0.327   3.143 -0.3062  3.7459 -1.7754
 5993TIP3   OH217919   2.454   7.300   2.242 -0.1935 -0.0899  0.0333
 5993TIP3    H117920   2.443   7.224   2.185  0.1939 -0.7956  0.8536
 5993TIP3    H217921   2.485   7.262   2.325 -1.0277  0.8573  0.8100
 5994TIP3   OH217922   7.646   1.209   2.417  0.1126  0.5238  0.2304
 5994TIP3    H117923   7.682   1.235   2.502 -1.1404 -1.4308  1.4473
 5994TIP3    H217924   7.555   1.186   2.436  0.0094 -0.6597 -1.4981
 5995TIP3   OH217925   0.900   1.883   2.857  0.2047 -0.1403  0.3038
 5995TIP3    H117926   0.831   1.899   2.792 -1.6191 -0.8023  1.9551
 5995TIP3    H217927   0.967   1.949   2.838 -0.3250 -0.2062 -2.0907
 5996TIP3   OH217928   0.769   6.907   5.614  0.2177 -0.2876  0.4677
 5996TIP3    H117929   0.681   6.920   5.648  0.3924  0.0951  0.7837
 5996TIP3    H217930   0.765   6.937   5.523  0.1878  0.3661  0.6811
 5997TIP3   OH217931   1.844   1.762   4.750  0.0689  0.0492 -0.2027
 5997TIP3    H117932   1.883   1.703   4.814  0.7637  0.6933 -0.0249
 5997TIP3    H217933   1.760   1.721   4.728  0.0870 -0.4872  0.6700
 5998TIP3   OH217934   3.124   2.518   5.245  0.3981  0.0129  0.0371
 5998TIP3    H117935   3.084   2.437   5.275 -0.5563  0.8813  1.2178
 5998TIP3    H217936   3.207   2.524   5.294 -0.5385  0.7721  1.6138
 5999TIP3   OH217937   2.980   2.581   1.641 -0.3136 -0.0845  0.1058
 5999TIP3    H117938   3.025   2.665   1.644  0.6192 -0.5422 -0.7103
 5999TIP3    H217939   2.887   2.603   1.647 -0.0951  1.0226 -0.3936
 6000TIP3   OH217940   8.357   3.543   2.406  0.3149  0.3483  0.5205
 6000TIP3    H117941   8.360   3.622   2.460 -1.3565  1.1484 -0.4942
 6000TIP3    H217942   8.449   3.516   2.399  1.4057  3.9316 -1.5755
 6001TIP3   OH217943   5.118   5.897   2.269 -0.0873 -0.0422 -0.1824
 6001TIP3    H117944   5.068   5.936   2.340  0.0647 -1.0397  0.4943
 6001TIP3    H217945   5.052   5.878   2.201 -0.0720  1.9046 -0.7938
 6002TIP3   OH217946   1.826   2.865   4.061  0.0933 -0.4330 -0.0487
 6002TIP3    H117947   1.754   2.898   4.115  0.2077  0.3163 -0.3414
 6002TIP3    H217948   1.896   2.846   4.123  0.1120  0.1123  0.0991
 6003TIP3   OH217949   5.903   0.713   3.126 -0.0252  0.1644 -0.5897
 6003TIP3    H117950   5.902   0.807   3.145  1.8819  0.2212 -0.5029
 6003TIP3    H217951   5.836   0.676   3.183 -0.1084  1.3496  0.1210
 6004TIP3   OH217952   0.638   2.005   5.343 -0.0327 -0.4931 -0.5160
 6004TIP3    H117953   0.651   2.037   5.254  0.3719 -0.1918 -0.3491
 6004TIP3    H217954   0.622   1.911   5.333 -0.3194 -0.4021 -0.9318
 6005TIP3   OH217955   7.347   7.591   4.010 -0.2419  0.6014  0.4957
 6005TIP3    H117956   7.275   7.653   4.019 -1.2418 -0.6938  1.9537
 6005TIP3    H217957   7.347   7.541   4.092 -1.3647 -3.2851 -1.6031
 6006TIP3   OH217958   2.352   5.751   0.630 -0.3086  0.6418 -0.5323
 6006TIP3    H117959   2.279   5.717   0.682 -0.3528 -1.3547 -1.7790
 6006TIP3    H217960   2.344   5.846   0.636 -1.4411  0.4634  1.4812
 6007TIP3   OH217961   7.507   3.954   5.098  0.5660  0.4751 -0.0854
 6007TIP3    H117962   7.472   3.865   5.106  0.8843  0.2863 -0.6879
 6007TIP3    H217963   7.447   3.998   5.038  0.6369  0.5402 -0.1096
 6008TIP3   OH217964   7.220   3.009   3.018 -0.8258  0.1483 -0.2417
 6008TIP3    H117965   7.307   2.999   3.057 -1.3143  0.3604  0.9322
 6008TIP3    H217966   7.170   3.060   3.082 -1.1971  1.8898 -1.8267
 6009TIP3   OH217967   4.133   4.344   1.558 -0.2596  0.4056 -0.1683
 6009TIP3    H117968   4.054   4.342   1.611 -0.2854 -0.8794 -0.2164
 6009TIP3    H217969   4.105   4.312   1.472  0.1200  0.8582 -0.4675
 6010TIP3   OH217970   0.988   7.112   1.513 -0.3791  0.5058  0.2579
 6010TIP3    H117971   0.948   7.180   1.459 -0.0677  0.3696 -0.1530
 6010TIP3    H217972   0.915   7.064   1.550 -0.6222 -0.4650 -1.3861
 6011TIP3   OH217973   5.733   7.401   3.890 -0.2517  0.1654 -0.0777
 6011TIP3    H117974   5.727   7.309   3.865 -0.7651  0.1785 -0.0132
 6011TIP3    H217975   5.822   7.427   3.866 -0.0933 -0.3568 -0.0597
 6012TIP3   OH217976   8.257   7.775   5.867  0.0533 -0.0529 -0.3590
 6012TIP3    H117977   8.331   7.817   5.823  0.0969  0.1969 -0.0490
 6012TIP3    H217978   8.185   7.838   5.859  0.3572  0.4621  0.8603
 6013TIP3   OH217979   7.033   4.112   4.654  0.5198  0.1454 -0.0243
 6013TIP3    H117980   7.009   4.122   4.746  0.6443 -1.2800  0.1954
 6013TIP3    H217981   6.954   4.136   4.606  0.1758  0.0814  0.4980
 6014TIP3   OH217982   3.327   5.477   4.928 -0.6789 -0.5506  0.5351
 6014TIP3    H117983   3.309   5.450   5.019  0.2109 -0.9108  0.6145
 6014TIP3    H217984   3.414   5.442   4.910 -0.6276 -0.0145 -0.2842
 6015TIP3   OH217985   0.268   3.316   2.123 -0.4381  0.4059 -0.5295
 6015TIP3    H117986   0.324   3.369   2.179 -0.2621 -1.5469  1.2447
 6015TIP3    H217987   0.327   3.252   2.083 -1.2125 -1.2554  0.8508
 6016TIP3   OH217988   5.258   7.049   1.200 -0.2672  0.5349 -0.1267
 6016TIP3    H117989   5.287   7.088   1.117  1.4752 -0.1240  0.1317
 6016TIP3    H217990   5.164   7.039   1.189 -0.0983  0.5461 -2.0063
 6017TIP3   OH217991   1.859   1.177   4.500  0.3229 -0.2304 -0.4332
 6017TIP3    H117992   1.927   1.148   4.440  1.6627  0.2535  0.8099
 6017TIP3    H217993   1.777   1.147   4.460  1.3056 -1.4600 -1.5882
 6018TIP3   OH217994   3.307   4.135   3.416 -0.7596  0.0928  0.0662
 6018TIP3    H117995   3.352   4.152   3.333  0.6330 -1.7878  0.3635
 6018TIP3    H217996   3.296   4.040   3.417  0.2750 -0.0694  2.5037
 6019TIP3   OH217997   4.700   3.430   3.333  0.0569 -1.0461  0.1935
 6019TIP3    H117998   4.751   3.496   3.378 -0.3781 -1.0744  0.7389
 6019TIP3    H217999   4.662   3.476   3.257  0.8229 -1.0125 -0.1792
 6020TIP3   OH218000   5.929   0.747   6.089 -0.8611 -0.0529  0.1823
 6020TIP3    H118001   5.943   0.813   6.021 -1.8423 -0.0307 -0.0165
 6020TIP3    H218002   5.846   0.772   6.130  1.4651  2.2527  4.1343
 6021TIP3   OH218003   7.357   3.519   0.921 -0.0440  0.2658  0.7017
 6021TIP3    H118004   7.340   3.484   0.834 -0.9800 -0.4492  1.1460
 6021TIP3    H218005   7.358   3.442   0.978 -1.4202  0.8684  1.5970
 6022TIP3   OH218006   2.016   3.101   3.412 -0.4903  0.5866  0.5175
 6022TIP3    H118007   1.933   3.074   3.374 -0.8915  2.9779 -0.4704
 6022TIP3    H218008   2.040   3.030   3.470 -3.1489 -0.2379  0.7256
 6023TIP3   OH218009   0.787   3.085   3.092  0.6198 -0.0442 -0.5067
 6023TIP3    H118010   0.783   3.047   3.004  0.2797 -0.0723 -0.4791
 6023TIP3    H218011   0.754   3.016   3.149  0.1621  0.2342 -0.4360
 6024TIP3   OH218012   8.369   1.560   6.030 -0.3166 -0.0312 -0.1518
 6024TIP3    H118013   8.348   1.640   5.981 -0.6364 -0.2517 -0.3844
 6024TIP3    H218014   8.327   1.490   5.979  1.5643 -0.5810 -1.0140
 6025TIP3   OH218015   7.801   1.293   1.566 -0.2538  0.3505  0.4605
 6025TIP3    H118016   7.797   1.237   1.643  0.2042 -1.4872 -0.7804
 6025TIP3    H218017   7.715   1.284   1.525  0.4922 -1.2694 -0.8971
 6026TIP3   OH218018   1.904   2.970   2.375  0.3306 -0.4623  0.1473
 6026TIP3    H118019   1.865   3.050   2.341 -0.4719 -0.5827  0.7510
 6026TIP3    H218020   1.924   2.918   2.297  1.2562  0.4930 -0.2665
 6027TIP3   OH218021   8.196   6.775   2.736  0.4919  0.4745  0.2085
 6027TIP3    H118022   8.141   6.851   2.717 -0.7881 -0.1729  1.1532
 6027TIP3    H218023   8.149   6.728   2.805  1.4657 -0.9519 -0.0505
 6028TIP3   OH218024   5.964   5.245   4.692 -0.0396 -0.4708  0.2367
 6028TIP3    H118025   5.877   5.228   4.728 -0.9563  0.9641 -1.1686
 6028TIP3    H218026   5.957   5.224   4.599  1.3590 -1.0863  0.2397
 6029TIP3   OH218027   5.367   7.324   1.757 -0.5429  0.1702 -0.7273
 6029TIP3    H118028   5.342   7.407   1.797  0.5335 -0.0469  0.4578
 6029TIP3    H218029   5.461   7.332   1.740 -0.2296 -1.1034  0.2134
 6030TIP3   OH218030   0.498   0.304   0.452  0.3969  0.5209 -0.4514
 6030TIP3    H118031   0.402   0.304   0.446  0.3860 -1.0137 -0.7949
 6030TIP3    H218032   0.518   0.237   0.517  1.2218  1.9606  0.8519
 6031TIP3   OH218033   4.903   2.174   4.162  0.1790 -0.1542  0.1958
 6031TIP3    H118034   4.940   2.169   4.073  1.8942  0.8813  0.7979
 6031TIP3    H218035   4.962   2.233   4.209 -2.1418  1.4235  1.3261
 6032TIP3   OH218036   4.494   1.951   2.970  0.0108  0.4909 -0.3231
 6032TIP3    H118037   4.511   1.859   2.986 -3.7224 -0.4543 -0.8007
 6032TIP3    H218038   4.547   1.997   3.035  0.1643 -2.1202  1.5579
 6033TIP3   OH218039   6.316   0.109   2.280  0.2214  0.1450  0.0843
 6033TIP3    H118040   6.267   0.130   2.201 -0.7564  0.0393  0.6400
 6033TIP3    H218041   6.251   0.113   2.350  1.0628  0.2281  0.8815
 6034TIP3   OH218042   0.504   0.987   2.348 -0.4802 -0.5582 -0.2806
 6034TIP3    H118043   0.530   0.903   2.386 -2.9527 -1.1674  0.2383
 6034TIP3    H218044   0.581   1.017   2.301  1.4380 -1.6943  1.9353
 6035TIP3   OH218045   3.693   1.720   1.027  0.0585 -0.1758  0.0402
 6035TIP3    H118046   3.750   1.775   0.973  0.3803  0.6891  1.2305
 6035TIP3    H218047   3.680   1.641   0.974  1.2199  0.1903 -0.8518
 6036TIP3   OH218048   0.365   7.422   6.017  0.3524 -0.1173  0.5545
 6036TIP3    H118049   0.436   7.441   6.078  0.5532 -1.0220  0.6188
 6036TIP3    H218050   0.377   7.330   5.993  0.3300  0.2291 -0.9218
 6037TIP3   OH218051   1.633   4.977   4.859 -0.5070  0.6039 -0.0957
 6037TIP3    H118052   1.728   4.978   4.875 -0.5960 -0.6791  0.5740
 6037TIP3    H218053   1.598   5.036   4.925 -0.2534  0.4071  0.2197
 6038TIP3   OH218054   3.298   3.805   1.775  0.3824 -0.0212 -0.0130
 6038TIP3    H118055   3.237   3.805   1.701 -1.7750 -0.2167  1.6522
 6038TIP3    H218056   3.338   3.718   1.774 -1.0853 -0.7350  0.1234
 6039TIP3   OH218057   7.333   2.360   0.361  1.4260 -0.8752  0.6068
 6039TIP3    H118058   7.395   2.351   0.289  0.2796 -1.2445 -0.3723
 6039TIP3    H218059   7.280   2.436   0.337 -0.1058 -2.0480  0.1279
 6040TIP3   OH218060   4.796   5.237   5.571  0.5225  0.5868  0.3938
 6040TIP3    H118061   4.818   5.286   5.649  1.3370  1.3332 -0.2783
 6040TIP3    H218062   4.869   5.253   5.511  1.3982 -2.3212  0.5240
 6041TIP3   OH218063   5.311   5.446   3.786 -0.4150  0.3856 -0.2251
 6041TIP3    H118064   5.244   5.420   3.850 -1.9641 -0.5090 -2.1052
 6041TIP3    H218065   5.264   5.453   3.703  1.7966 -0.1449 -1.6218
 6042TIP3   OH218066   2.168   7.772   2.129  0.1507  0.7939 -0.7453
 6042TIP3    H118067   2.217   7.822   2.194  1.5715  0.6413 -1.6633
 6042TIP3    H218068   2.161   7.831   2.054  0.5751  0.1407 -1.3058
 6043TIP3   OH218069   0.246   3.250   5.755  0.3721 -0.1875  0.4384
 6043TIP3    H118070   0.340   3.255   5.771  0.1584  1.1620  1.4253
 6043TIP3    H218071   0.207   3.313   5.815 -1.0229  0.6424 -1.2218
 6044TIP3   OH218072   0.784   4.812   1.490  0.2550 -0.0688 -0.2979
 6044TIP3    H118073   0.718   4.870   1.527  1.3954  0.8930  0.3133
 6044TIP3    H218074   0.799   4.845   1.402 -0.3213 -0.5024 -0.5603
 6045TIP3   OH218075   1.305   6.036   2.266  0.0871  0.2964  0.2450
 6045TIP3    H118076   1.275   6.127   2.265  1.9786  1.0200  2.1831
 6045TIP3    H218077   1.369   6.031   2.195  0.1724  0.5454  0.3047
 6046TIP3   OH218078   1.054   4.371   2.223 -0.3741  0.2861 -0.0866
 6046TIP3    H118079   1.082   4.307   2.158 -1.4558  0.6365 -0.9186
 6046TIP3    H218080   1.093   4.341   2.305 -0.9156 -1.4639 -0.4469
 6047TIP3   OH218081   6.509   2.303   5.803 -0.9590 -0.0008  0.1874
 6047TIP3    H118082   6.597   2.305   5.842 -1.2737  2.5834  0.9148
 6047TIP3    H218083   6.481   2.212   5.815  0.2570 -0.1227  3.1174
 6048TIP3   OH218084   6.820   5.659   5.693 -0.1209 -0.1352 -0.3368
 6048TIP3    H118085   6.835   5.634   5.785 -1.1577 -0.6723 -0.2951
 6048TIP3    H218086   6.833   5.577   5.645  1.3554  0.3427 -0.8029
 6049TIP3   OH218087   5.428   4.829   3.336  0.2460 -0.3482  0.1256
 6049TIP3    H118088   5.475   4.867   3.263  0.0401 -0.7309 -0.2114
 6049TIP3    H218089   5.496   4.796   3.395  0.4058 -1.0415 -0.4365
 6050TIP3   OH218090   3.654   6.950   0.158 -0.3755 -0.3125 -0.6979
 6050TIP3    H118091   3.729   6.900   0.191 -0.7692  0.0470  0.7978
 6050TIP3    H218092   3.688   7.039   0.145 -0.5272 -0.1453 -0.0025
 6051TIP3   OH218093   7.492   5.878   5.392  0.2309 -0.1017 -0.2461
 6051TIP3    H118094   7.555   5.922   5.334  1.3840 -0.0247  1.0071
 6051TIP3    H218095   7.546   5.833   5.456 -0.9788  0.8831  1.5657
 6052TIP3   OH218096   1.775   4.565   0.367  0.3649 -0.5856 -0.0666
 6052TIP3    H118097   1.804   4.474   0.369 -0.3301 -0.7941  0.5824
 6052TIP3    H218098   1.841   4.609   0.313  0.5539 -1.5200 -0.6258
 6053TIP3   OH218099   2.580   2.874   5.036 -0.2801  0.1383  0.4269
 6053TIP3    H118100   2.613   2.913   4.956 -1.4661  1.1693  0.4067
 6053TIP3    H218101   2.634   2.911   5.106  0.4580 -0.4121  0.1608
 6054TIP3   OH218102   4.414   6.299   1.934 -0.0483 -0.3387 -0.0357
 6054TIP3    H118103   4.408   6.244   2.013 -2.2755  0.1485  0.1849
 6054TIP3    H218104   4.454   6.380   1.964 -2.0458  0.3351  0.9137
 6055TIP3   OH218105   5.309   2.865   0.552 -0.3417  0.4448 -0.1650
 6055TIP3    H118106   5.260   2.820   0.620 -0.3129  1.2180  0.3748
 6055TIP3    H218107   5.398   2.831   0.559 -0.8896 -1.4677 -1.5863
 6056TIP3   OH218108   3.307   1.942   6.612 -0.3328  0.1811 -0.1785
 6056TIP3    H118109   3.377   1.976   6.557  1.2949 -0.7387  1.2382
 6056TIP3    H218110   3.332   1.965   6.701 -1.1424 -1.3053  0.4785
 6057TIP3   OH218111   7.263   0.147   1.328 -0.5192 -0.4723  0.0520
 6057TIP3    H118112   7.318   0.144   1.250  1.0830  1.3795  1.0148
 6057TIP3    H218113   7.274   0.061   1.369 -0.4679 -1.0457 -1.1396
 6058TIP3   OH218114   0.825   6.647   1.134  0.1775 -0.1098 -0.1438
 6058TIP3    H118115   0.771   6.724   1.118 -1.9648 -1.4155  0.3600
 6058TIP3    H218116   0.872   6.633   1.052 -3.1770 -1.0496 -2.1137
 6059TIP3   OH218117   7.157   1.165   4.080 -0.3866  0.3490 -0.1122
 6059TIP3    H118118   7.110   1.229   4.027 -0.5862  3.4573  3.4075
 6059TIP3    H218119   7.089   1.107   4.114 -0.5278 -0.2308 -1.3175
 6060TIP3   OH218120   4.805   1.947   3.540 -0.0471 -0.6371 -0.3992
 6060TIP3    H118121   4.831   1.920   3.452  0.9993  1.1137 -0.6705
 6060TIP3    H218122   4.884   1.934   3.594 -0.0324  0.2184 -0.1890
 6061TIP3   OH218123   2.064   4.428   1.811 -0.2402 -0.7215 -0.2911
 6061TIP3    H118124   2.046   4.486   1.738  1.3097 -1.3355 -1.2054
 6061TIP3    H218125   2.002   4.455   1.879  0.4012  1.9515 -0.6874
 6062TIP3   OH218126   7.783   6.252   2.513 -0.0196 -0.2245  0.0080
 6062TIP3    H118127   7.699   6.246   2.559 -0.3131 -1.2607 -0.6334
 6062TIP3    H218128   7.849   6.238   2.581 -0.3186  1.2124  0.6332
 6063TIP3   OH218129   7.041   6.176   3.336  0.0767 -0.1853 -0.4428
 6063TIP3    H118130   7.087   6.101   3.298  1.3198  1.1537 -1.6728
 6063TIP3    H218131   7.110   6.234   3.367 -0.8269  0.8909 -0.3738
 6064TIP3   OH218132   1.048   7.290   5.308 -0.8275  0.1413 -0.8284
 6064TIP3    H118133   1.118   7.309   5.245  0.6774 -0.3873  0.6062
 6064TIP3    H218134   1.033   7.373   5.352 -0.6552  0.1151 -0.7178
 6065TIP3   OH218135   0.529   6.122   6.175  0.3611 -0.0100 -0.0524
 6065TIP3    H118136   0.448   6.122   6.125 -0.0241 -0.9296  0.5414
 6065TIP3    H218137   0.507   6.167   6.256  0.6064  0.2745 -0.1454
 6066TIP3   OH218138   2.127   1.803   3.055  0.5786 -0.0864 -0.1054
 6066TIP3    H118139   2.098   1.756   2.976 -1.2582 -2.6117  1.8807
 6066TIP3    H218140   2.211   1.762   3.077  1.4483  1.1137 -1.0643
 6067TIP3   OH218141   5.925   2.675   2.257  0.3917  0.3453  0.4472
 6067TIP3    H118142   5.952   2.741   2.192  0.4983 -1.0050 -0.9491
 6067TIP3    H218143   6.002   2.619   2.268  0.6260  0.9776  2.3644
 6068TIP3   OH218144   8.372   5.395   2.974 -0.2629 -0.3891 -0.0793
 6068TIP3    H118145   8.295   5.380   2.919 -1.1699  1.9964  0.3916
 6068TIP3    H218146   8.338   5.397   3.064  0.4185  0.1632  0.1813
 6069TIP3   OH218147   1.321   5.114   6.725 -0.2156  0.7485  0.3921
 6069TIP3    H118148   1.415   5.127   6.713  0.1584  0.2880  2.4670
 6069TIP3    H218149   1.295   5.178   6.791 -1.2341  0.4144  0.3409
 6070TIP3   OH218150   1.372   6.313   3.668  0.0575 -0.1398 -0.1825
 6070TIP3    H118151   1.328   6.364   3.599 -0.1684 -0.1239 -0.0294
 6070TIP3    H218152   1.314   6.239   3.684 -0.8707  0.8556  1.3270
 6071TIP3   OH218153   4.858   6.882   2.407 -1.2264 -0.3675  0.0820
 6071TIP3    H118154   4.949   6.900   2.383 -1.6022  2.0846  0.1890
 6071TIP3    H218155   4.852   6.908   2.499 -1.9414 -0.9265  0.2054
 6072TIP3   OH218156   4.683   5.835   4.054  0.3996 -0.2859 -0.3751
 6072TIP3    H118157   4.594   5.804   4.038  1.1984 -2.2666 -1.3877
 6072TIP3    H218158   4.714   5.864   3.968  0.6921  0.5654  0.0071
 6073TIP3   OH218159   3.062   1.437   0.622 -0.1274  0.2614 -0.4924
 6073TIP3    H118160   3.003   1.369   0.587  0.1893 -1.1216  1.5095
 6073TIP3    H218161   3.003   1.507   0.651 -0.9427 -1.3512  2.0258
 6074TIP3   OH218162   7.308   5.820   1.338 -0.6242  0.3375 -0.3756
 6074TIP3    H118163   7.327   5.862   1.422  0.0134  1.6043 -1.1174
 6074TIP3    H218164   7.385   5.840   1.284 -1.2135 -0.0948 -1.3895
 6075TIP3   OH218165   7.070   1.420   3.970  0.1039  0.0759  0.4568
 6075TIP3    H118166   6.986   1.412   3.925  0.2673  0.4929  0.0624
 6075TIP3    H218167   7.135   1.413   3.900  0.4191 -0.7410  0.8221
 6076TIP3   OH218168   6.436   0.334   2.511  0.1964 -0.4763  0.1013
 6076TIP3    H118169   6.453   0.341   2.605  0.5239 -0.3828  0.0379
 6076TIP3    H218170   6.488   0.259   2.482  0.1717 -0.4465 -0.0231
 6077TIP3   OH218171   4.744   3.313   0.459 -0.3101  0.3847  0.3582
 6077TIP3    H118172   4.727   3.388   0.402 -0.5187  0.4401  0.4928
 6077TIP3    H218173   4.753   3.239   0.399  0.5952  0.6262  0.1675
 6078TIP3   OH218174   0.437   6.009   5.556  0.1183 -0.0373 -0.3007
 6078TIP3    H118175   0.530   5.988   5.550  0.2304  0.3794 -0.0678
 6078TIP3    H218176   0.393   5.939   5.508  0.5035 -0.6339  0.2070
 6079TIP3   OH218177   5.792   2.814   6.671 -0.1262 -0.5589 -0.1195
 6079TIP3    H118178   5.847   2.809   6.594  1.8637  0.1414  1.1774
 6079TIP3    H218179   5.744   2.731   6.672  1.7470 -1.7069 -0.7041
 6080TIP3   OH218180   5.882   1.255   3.911  0.3743  0.3374 -0.0806
 6080TIP3    H118181   5.872   1.173   3.960 -1.5129 -0.0555 -1.0108
 6080TIP3    H218182   5.884   1.323   3.978  0.9864 -0.4006  0.6620
 6081TIP3   OH218183   0.234   0.256   1.066 -0.6421 -0.0783 -0.1996
 6081TIP3    H118184   0.159   0.254   1.126 -1.5888 -0.5542 -1.3652
 6081TIP3    H218185   0.217   0.330   1.008 -0.4287 -0.4396 -0.7342
 6082TIP3   OH218186   1.525   3.761   1.180  0.0193 -0.3093 -0.0024
 6082TIP3    H118187   1.530   3.736   1.272 -0.4163  1.4546  0.5511
 6082TIP3    H218188   1.616   3.765   1.151  0.1987 -0.2343  0.5539
 6083TIP3   OH218189   3.436   2.301   1.018 -0.1780  0.1921 -0.0365
 6083TIP3    H118190   3.418   2.208   1.010 -1.5679  0.1399  2.6281
 6083TIP3    H218191   3.530   2.307   1.031 -0.1597 -0.8852  0.3837
 6084TIP3   OH218192   8.322   3.375   6.087 -0.3635 -0.2107  0.4218
 6084TIP3    H118193   8.354   3.315   6.155 -1.5126  1.1976  2.3192
 6084TIP3    H218194   8.227   3.361   6.087 -0.3890 -0.1302 -0.8934
 6085TIP3   OH218195   0.257   1.592   3.129 -0.0412 -0.3684 -0.5733
 6085TIP3    H118196   0.165   1.606   3.106  0.0107  1.2790  0.1002
 6085TIP3    H218197   0.278   1.505   3.093 -1.4923 -0.2340 -1.8344
 6086TIP3   OH218198   1.617   3.161   3.466 -0.1696 -0.0819  0.0005
 6086TIP3    H118199   1.565   3.081   3.477 -0.5844  0.2234  0.3010
 6086TIP3    H218200   1.552   3.231   3.467  0.2568  0.3123  0.5101
 6087TIP3   OH218201   3.550   5.286   0.304  0.2252  0.1487  0.5046
 6087TIP3    H118202   3.508   5.213   0.259  0.7796 -0.2538  0.6280
 6087TIP3    H218203   3.617   5.317   0.243 -0.0349  0.5876  0.4351
 6088TIP3   OH218204   6.763   0.196   4.408 -0.5738  0.0994  0.2420
 6088TIP3    H118205   6.770   0.235   4.495 -0.2114  0.6447 -0.0295
 6088TIP3    H218206   6.710   0.117   4.421 -1.0721  0.5272  0.8424
 6089TIP3   OH218207   2.201   3.789   1.968  0.0075 -0.2737  0.9639
 6089TIP3    H118208   2.229   3.854   1.903  0.7983  0.6598  2.1916
 6089TIP3    H218209   2.128   3.743   1.926  0.8890 -0.1398 -0.8144
 6090TIP3   OH218210   8.227   1.518  -0.016  0.4231 -0.7118 -0.7927
 6090TIP3    H118211   8.167   1.448   0.012 -1.8618  1.4762  0.1158
 6090TIP3    H218212   8.257   1.558   0.066  0.8918  0.0433 -1.3224
 6091TIP3   OH218213   5.880   0.479   3.947  0.0624 -0.3998  0.0581
 6091TIP3    H118214   5.848   0.549   4.004 -1.2927 -1.4351  0.6322
 6091TIP3    H218215   5.963   0.451   3.987 -0.6612 -0.8315  1.3409
 6092TIP3   OH218216   1.682   2.124   4.233 -0.3047 -0.0389 -0.5935
 6092TIP3    H118217   1.749   2.115   4.301  0.3804  0.2099 -1.2066
 6092TIP3    H218218   1.636   2.040   4.232 -0.8984  0.2451  0.7437
 6093TIP3   OH218219   2.409   3.799   0.349  0.2812 -0.2156  0.0794
 6093TIP3    H118220   2.439   3.709   0.361 -0.0467 -0.4560 -0.8698
 6093TIP3    H218221   2.379   3.826   0.436  1.1391 -0.7341  0.5539
 6094TIP3   OH218222   0.286   0.135   3.984  0.1079 -0.4324 -0.1690
 6094TIP3    H118223   0.366   0.085   4.000 -0.3582 -1.5815 -1.1718
 6094TIP3    H218224   0.315   0.215   3.942  0.7843 -0.5089  0.1480
 6095TIP3   OH218225   3.408   3.059   0.046 -0.3650 -0.0953 -0.1523
 6095TIP3    H118226   3.421   2.973   0.006 -0.8678  0.2793 -1.1699
 6095TIP3    H218227   3.478   3.068   0.110  0.6748 -0.5868 -1.2000
 6096TIP3   OH218228   8.030   3.518   2.662  0.3738 -0.3248  0.0067
 6096TIP3    H118229   7.969   3.582   2.628  0.3014 -0.7097 -0.6021
 6096TIP3    H218230   8.006   3.436   2.618  0.9212 -0.6120  0.2338
 6097TIP3   OH218231   4.603   3.232   2.361 -0.1840 -0.1164 -0.1281
 6097TIP3    H118232   4.516   3.256   2.328 -0.1783  0.2502  0.1088
 6097TIP3    H218233   4.642   3.180   2.292 -0.3734  0.1971 -0.4754
 6098TIP3   OH218234   4.912   2.076   1.255  0.0931 -0.4504  0.0562
 6098TIP3    H118235   4.963   2.078   1.336 -0.4829  0.9282  0.4253
 6098TIP3    H218236   4.877   1.988   1.250 -0.1521 -0.4575  1.5049
 6099TIP3   OH218237   6.784   0.336   0.406 -0.0508  0.2431  0.7555
 6099TIP3    H118238   6.805   0.243   0.405 -0.2005  0.2025  1.2825
 6099TIP3    H218239   6.864   0.379   0.375 -0.5715 -0.1537 -1.2472
 6100TIP3   OH218240   2.366   2.946   5.605 -0.9640  0.3999 -0.2550
 6100TIP3    H118241   2.329   3.033   5.591  0.1578  0.8301 -0.7270
 6100TIP3    H218242   2.418   2.955   5.685 -0.4375  0.3112 -0.5815
 6101TIP3   OH218243   6.985   6.809   6.474  0.1617 -0.5660  0.6083
 6101TIP3    H118244   7.069   6.778   6.439 -0.4169 -1.5898  0.0972
 6101TIP3    H218245   7.009   6.882   6.531  1.7834 -2.7567  2.9638
 6102TIP3   OH218246   5.356   5.806   3.102 -0.1068 -0.3166 -0.1117
 6102TIP3    H118247   5.401   5.732   3.063 -1.1014 -0.9044 -0.1761
 6102TIP3    H218248   5.270   5.806   3.060  0.0463  1.1793 -0.4833
 6103TIP3   OH218249   6.978   2.605   4.038  0.1084  0.5398  0.3786
 6103TIP3    H118250   7.059   2.628   4.084  0.8763 -0.4060 -0.4574
 6103TIP3    H218251   6.949   2.523   4.078 -1.0213  1.3874  1.3646
 6104TIP3   OH218252   7.935   7.421   3.350 -0.3973  0.2247  0.1699
 6104TIP3    H118253   7.917   7.327   3.349  2.0268 -0.3092  0.6631
 6104TIP3    H218254   7.960   7.439   3.441  0.7623  0.9914 -0.2854
 6105TIP3   OH218255   5.571   5.110   5.083  0.3766  0.2989 -0.5712
 6105TIP3    H118256   5.510   5.062   5.139 -0.8335  1.2849 -0.9924
 6105TIP3    H218257   5.587   5.192   5.129 -0.8126  1.2201 -1.7105
 6106TIP3   OH218258   3.679   7.014   5.350 -0.3209  0.1224 -0.0784
 6106TIP3    H118259   3.773   7.026   5.355 -0.3615  0.2331  0.5077
 6106TIP3    H218260   3.645   7.095   5.312 -0.4761  1.4680  2.6768
 6107TIP3   OH218261   7.945   0.071   1.929 -0.3898 -0.2546  0.4264
 6107TIP3    H118262   7.849   0.062   1.926 -0.7926  2.0070  2.9051
 6107TIP3    H218263   7.962   0.157   1.890  0.5690 -0.3199  0.6884
 6108TIP3   OH218264   6.749   4.948   1.892 -0.4007 -0.3306 -0.4417
 6108TIP3    H118265   6.818   5.001   1.932 -1.6934  1.3258 -0.2924
 6108TIP3    H218266   6.796   4.882   1.842  1.2854 -0.4622  1.1861
 6109TIP3   OH218267   0.668   6.789   5.233 -0.0988 -0.3138 -0.7044
 6109TIP3    H118268   0.710   6.864   5.275  1.1733 -1.3679  0.0004
 6109TIP3    H218269   0.735   6.753   5.175 -0.8522 -0.6241 -1.4019
 6110TIP3   OH218270   7.758   0.422   1.011  0.3474  0.1690  0.5740
 6110TIP3    H118271   7.831   0.389   1.064  0.5691 -0.3200 -0.0278
 6110TIP3    H218272   7.801   0.470   0.940  0.2171 -1.9954 -1.0841
 6111TIP3   OH218273   4.274   7.818   0.820  0.0406  0.0166  0.7184
 6111TIP3    H118274   4.351   7.870   0.798  0.8582 -1.2026  0.5737
 6111TIP3    H218275   4.208   7.844   0.756  0.2759  1.1717  0.9180
 6112TIP3   OH218276   0.587   1.206   0.869  0.0408  0.4632 -0.0657
 6112TIP3    H118277   0.569   1.297   0.893  0.5087  0.1147  1.7694
 6112TIP3    H218278   0.634   1.212   0.786  2.7304  2.1634  1.4258
 6113TIP3   OH218279   3.550   0.980   4.759  0.2306  0.2739  0.3002
 6113TIP3    H118280   3.538   1.050   4.695 -0.0400 -0.3918 -0.3927
 6113TIP3    H218281   3.470   0.928   4.754 -0.1314  0.6584  1.7617
 6114TIP3   OH218282   3.732   3.229   0.070  0.2356 -0.4953 -0.8737
 6114TIP3    H118283   3.738   3.319   0.039 -1.3567 -0.6590 -1.7730
 6114TIP3    H218284   3.730   3.176  -0.011  4.1616 -1.6701 -0.4272
 6115TIP3   OH218285   5.431   0.972   2.197 -0.4458  0.3987 -0.0712
 6115TIP3    H118286   5.483   0.973   2.277  0.1278 -1.0786 -0.3742
 6115TIP3    H218287   5.342   0.952   2.225 -0.6288  1.7514  0.3483
 6116TIP3   OH218288   5.417   7.183   3.694  0.0860 -0.2601 -0.4679
 6116TIP3    H118289   5.397   7.270   3.728 -0.4594 -0.1070 -1.1621
 6116TIP3    H218290   5.440   7.131   3.772 -0.4211  0.2718  0.0421
 6117TIP3   OH218291   6.130   5.857   5.896  0.4517 -0.1319  0.1596
 6117TIP3    H118292   6.109   5.917   5.967  0.3046  0.9158 -0.7369
 6117TIP3    H218293   6.055   5.797   5.892  0.3367 -0.0264  0.7007
 6118TIP3   OH218294   6.811   0.595   6.872 -0.2225  0.0079  0.0025
 6118TIP3    H118295   6.726   0.572   6.834 -0.2208 -0.5821  0.3496
 6118TIP3    H218296   6.871   0.598   6.798 -0.4417 -0.0845 -0.1772
 6119TIP3   OH218297   5.721   5.583   4.243  0.0183  0.5502 -0.3201
 6119TIP3    H118298   5.687   5.579   4.154  0.9043  0.9931 -0.6919
 6119TIP3    H218299   5.685   5.665   4.278 -1.6230 -0.3989  0.2963
 6120TIP3   OH218300   8.207   1.259   1.963 -0.3043  0.0610 -0.3701
 6120TIP3    H118301   8.151   1.184   1.940  0.9259 -0.2521 -2.6553
 6120TIP3    H218302   8.258   1.275   1.884  0.2244  2.6888  0.4226
 6121TIP3   OH218303   5.305   6.750   5.036 -0.1485 -0.0520 -0.3421
 6121TIP3    H118304   5.214   6.750   5.005 -0.5002 -0.3828  0.6485
 6121TIP3    H218305   5.350   6.812   4.978 -1.5703  2.0596  0.6763
 6122TIP3   OH218306   5.065   7.123   2.909  0.1628 -0.4054 -0.0873
 6122TIP3    H118307   5.091   7.130   3.000 -0.1255  1.0902 -0.0971
 6122TIP3    H218308   4.969   7.123   2.912  0.1504  0.1767 -0.4195
 6123TIP3   OH218309   7.444   4.241   5.476 -0.2357 -0.1114  0.7512
 6123TIP3    H118310   7.397   4.158   5.473 -0.8242  0.0886  2.6655
 6123TIP3    H218311   7.375   4.308   5.471  0.1993  0.2715 -0.3573
 6124TIP3   OH218312   8.187   7.140   1.383  0.0332 -0.0829 -0.4140
 6124TIP3    H118313   8.094   7.144   1.362 -0.0561  0.7895  0.0833
 6124TIP3    H218314   8.222   7.224   1.351  0.7068 -0.5127 -0.8399
 6125TIP3   OH218315   8.246   3.476   4.418 -0.1652  0.0018  0.0481
 6125TIP3    H118316   8.334   3.512   4.408  0.1683 -1.2059 -1.9555
 6125TIP3    H218317   8.254   3.408   4.485  0.7103 -0.8745 -0.9222
 6126TIP3   OH218318   0.363   4.087   4.918  0.4950  0.2445 -0.1112
 6126TIP3    H118319   0.337   4.000   4.948 -2.1087 -0.4197 -3.6278
 6126TIP3    H218320   0.457   4.079   4.899  0.6307 -1.2905  1.0706
 6127TIP3   OH218321   7.812   0.507   0.258  0.7056 -0.3490 -0.2560
 6127TIP3    H118322   7.751   0.580   0.252  1.5153  0.3092 -0.6344
 6127TIP3    H218323   7.843   0.495   0.168  2.8446  0.8310  0.2584
 6128TIP3   OH218324   3.367   2.932   5.078  0.3728 -0.0867  0.3941
 6128TIP3    H118325   3.316   2.853   5.093 -1.0423  0.8397  0.5999
 6128TIP3    H218326   3.349   2.956   4.987 -0.2658  0.7251  0.7251
 6129TIP3   OH218327   1.832   0.682   2.441 -0.1261 -0.2127 -0.3435
 6129TIP3    H118328   1.821   0.634   2.523 -2.1885  0.4343 -0.1832
 6129TIP3    H218329   1.762   0.650   2.385 -1.9941  2.8746 -0.0336
 6130TIP3   OH218330   3.271   0.442   2.683  0.2023 -0.0718  0.0797
 6130TIP3    H118331   3.227   0.524   2.705  1.3638  0.5072  0.3519
 6130TIP3    H218332   3.348   0.440   2.741  1.1529 -0.4689 -1.1558
 6131TIP3   OH218333   2.524   5.632   4.605  0.5184  0.5641 -0.1363
 6131TIP3    H118334   2.470   5.560   4.572 -2.4970  1.2160  2.7745
 6131TIP3    H218335   2.489   5.710   4.561  0.7687  0.7252 -0.0496
 6132TIP3   OH218336   5.567   2.657   6.690 -0.2075  0.0430  0.6466
 6132TIP3    H118337   5.500   2.590   6.678  0.4504 -0.4709 -0.2489
 6132TIP3    H218338   5.518   2.740   6.690 -1.0903 -0.4327  2.3883
 6133TIP3   OH218339   1.882   5.791   5.696  0.6079 -0.0282  0.0184
 6133TIP3    H118340   1.933   5.872   5.692  0.8887 -0.2582 -2.8061
 6133TIP3    H218341   1.889   5.754   5.608 -0.7268 -2.3883  0.8321
 6134TIP3   OH218342   7.270   0.784   0.468 -0.2780  0.3538  0.2586
 6134TIP3    H118343   7.268   0.696   0.506  1.0459  0.1001 -0.2117
 6134TIP3    H218344   7.353   0.822   0.499 -0.4573  1.1429 -0.1918
 6135TIP3   OH218345   3.397   2.161   3.879 -0.3367 -0.1026  0.1601
 6135TIP3    H118346   3.430   2.134   3.965 -0.2752  0.7037  0.3961
 6135TIP3    H218347   3.427   2.093   3.819 -1.3422 -1.2929  0.9422
 6136TIP3   OH218348   7.293   4.130   5.776  0.1906  0.5523 -0.0242
 6136TIP3    H118349   7.252   4.044   5.793  1.1988  0.1761  0.6347
 6136TIP3    H218350   7.242   4.167   5.705  0.7298 -1.3042 -1.4537
 6137TIP3   OH218351   2.289   3.997   5.148  0.4693 -0.0711 -0.3904
 6137TIP3    H118352   2.276   3.991   5.053  0.6477 -0.8131 -0.3737
 6137TIP3    H218353   2.328   4.084   5.161 -1.2515  0.7882 -0.7820
 6138TIP3   OH218354   5.260   2.804   2.466 -0.4119  0.1155 -0.0665
 6138TIP3    H118355   5.240   2.794   2.373 -1.5003 -0.6295  0.2174
 6138TIP3    H218356   5.353   2.783   2.473 -0.8509 -2.3820 -0.6587
 6139TIP3   OH218357   3.205   7.900   4.635 -0.7428 -0.2063  0.3399
 6139TIP3    H118358   3.228   7.827   4.578 -1.3399 -0.4643  0.4199
 6139TIP3    H218359   3.238   7.977   4.590 -0.5259 -0.4822  0.0238
 6140TIP3   OH218360   5.706   7.876   5.976 -0.5574  0.2644 -0.4551
 6140TIP3    H118361   5.659   7.827   5.909 -1.0130 -0.4307  0.3647
 6140TIP3    H218362   5.657   7.862   6.056  1.6248 -1.3944  0.6874
 6141TIP3   OH218363   4.204   7.578   1.331 -0.0562  0.1552 -0.1084
 6141TIP3    H118364   4.176   7.519   1.261 -1.5968  0.3212  0.3350
 6141TIP3    H218365   4.207   7.524   1.409  1.3478  0.0439 -0.2211
 6142TIP3   OH218366   0.992   2.302   0.660 -0.1665 -0.0063 -0.7037
 6142TIP3    H118367   1.035   2.386   0.643 -1.8963  0.7549 -1.6593
 6142TIP3    H218368   0.974   2.304   0.754  0.7574  0.2101 -0.5238
 6143TIP3   OH218369   7.136   5.629   1.263 -0.6291  0.0539  0.0800
 6143TIP3    H118370   7.194   5.556   1.287  0.2536  1.4893  2.6571
 6143TIP3    H218371   7.181   5.707   1.294 -2.8094  1.4798 -0.1126
 6144TIP3   OH218372   6.790   2.745   0.003  0.1387  0.1075  0.2317
 6144TIP3    H118373   6.866   2.752  -0.054  0.9850 -2.3869  0.9560
 6144TIP3    H218374   6.825   2.727   0.090 -1.2427  0.1994  0.8465
 6145TIP3   OH218375   5.933   6.252   6.279 -0.6968 -0.3522  0.6898
 6145TIP3    H118376   5.853   6.236   6.329  0.3902 -1.8251  2.0545
 6145TIP3    H218377   5.916   6.335   6.233 -3.0544 -0.7251  0.7506
 6146TIP3   OH218378   7.998   2.359   1.109  0.7281  0.1962 -0.0434
 6146TIP3    H118379   7.998   2.266   1.086 -0.1563  0.1003  0.3000
 6146TIP3    H218380   7.993   2.360   1.205  3.3589  0.5982  0.1759
 6147TIP3   OH218381   3.641   1.288   6.268 -0.1017  0.1112 -0.5453
 6147TIP3    H118382   3.550   1.270   6.293 -0.1883  1.7533  0.4275
 6147TIP3    H218383   3.692   1.271   6.347  0.2293  0.7534 -0.6186
 6148TIP3   OH218384   2.233   4.412   1.194 -0.0397 -0.0138 -0.2758
 6148TIP3    H118385   2.328   4.413   1.208  0.0224 -1.0039 -0.5823
 6148TIP3    H218386   2.220   4.357   1.117 -0.9535 -1.0812  0.6090
 6149TIP3   OH218387   6.374   0.204   6.318  0.4923 -0.0969 -0.4226
 6149TIP3    H118388   6.434   0.162   6.379 -0.4247  0.1065  0.6598
 6149TIP3    H218389   6.372   0.296   6.345 -1.0666 -0.2968  0.2294
 6150TIP3   OH218390   7.361   7.734   4.357  0.0507 -0.0663  0.0698
 6150TIP3    H118391   7.434   7.722   4.295  0.6681 -0.3093  0.8215
 6150TIP3    H218392   7.286   7.753   4.301  0.7021  0.2716 -0.7281
 6151TIP3   OH218393   6.507   3.251   3.803  0.5560 -0.5269 -0.0614
 6151TIP3    H118394   6.426   3.299   3.787 -0.0016 -1.3147  0.3817
 6151TIP3    H218395   6.511   3.186   3.733 -0.1848 -1.7633  1.0210
 6152TIP3   OH218396   4.374   4.746   5.367  0.1973 -0.0843 -0.0851
 6152TIP3    H118397   4.468   4.748   5.383  0.2777  1.3843 -0.6498
 6152TIP3    H218398   4.335   4.785   5.446  0.0737 -0.4169  0.0205
 6153TIP3   OH218399   4.586   4.184   4.886  0.0823  0.1110 -0.2553
 6153TIP3    H118400   4.671   4.197   4.928  0.5099 -3.8149  0.4733
 6153TIP3    H218401   4.608   4.161   4.796 -0.3065  0.3273 -0.4063
 6154TIP3   OH218402   5.018   1.426   6.475 -0.2304 -0.4022  0.4569
 6154TIP3    H118403   5.014   1.518   6.501  1.5284  0.0049 -0.5522
 6154TIP3    H218404   5.110   1.411   6.455 -0.7209 -2.0084 -0.7624
 6155TIP3   OH218405   1.005   3.725   5.144 -0.0953  0.2865 -0.3268
 6155TIP3    H118406   0.910   3.722   5.132 -0.3468 -2.0015  1.6642
 6155TIP3    H218407   1.041   3.705   5.057 -1.3864  1.4043 -1.1565
 6156TIP3   OH218408   2.134   0.838   3.552 -0.0577  0.7631  0.2269
 6156TIP3    H118409   2.223   0.804   3.548  0.0956  1.1949 -0.1620
 6156TIP3    H218410   2.125   0.870   3.642 -0.4274 -0.8598  0.7861
 6157TIP3   OH218411   1.460   3.575   5.352 -0.3046 -0.1561 -0.0847
 6157TIP3    H118412   1.386   3.556   5.294  0.4386 -0.1766 -1.0447
 6157TIP3    H218413   1.538   3.564   5.297  0.5972 -2.6009  1.5435
 6158TIP3   OH218414   2.648   6.050   6.231  0.1126  0.1834 -0.3624
 6158TIP3    H118415   2.681   6.119   6.288 -1.5836 -0.2450  1.2743
 6158TIP3    H218416   2.725   5.999   6.206  1.1321  1.5115 -0.0032
 6159TIP3   OH218417   4.070   3.769   1.211 -0.3894  0.2996  0.0582
 6159TIP3    H118418   4.004   3.719   1.162 -0.7115 -0.4093  1.1753
 6159TIP3    H218419   4.027   3.851   1.233 -0.4970  0.3155 -0.2079
 6160TIP3   OH218420   8.070   3.961   5.633  0.6118 -0.0801 -0.0338
 6160TIP3    H118421   8.012   4.035   5.618  0.8765  0.2996  0.7750
 6160TIP3    H218422   8.112   3.946   5.548 -0.0407  0.1734 -0.4057
 6161TIP3   OH218423   0.884   6.179   0.323 -0.1952  0.3019 -0.3781
 6161TIP3    H118424   0.900   6.269   0.294  2.7067  0.0768  0.2436
 6161TIP3    H218425   0.905   6.125   0.247  2.3987  0.0031  0.4377
 6162TIP3   OH218426   4.712   2.378   6.128  0.0332 -0.4429 -0.0290
 6162TIP3    H118427   4.803   2.367   6.158  0.0625 -1.1993 -0.3788
 6162TIP3    H218428   4.659   2.354   6.204  0.1195 -0.4238  0.0376
 6163TIP3   OH218429   7.442   1.144   1.326  0.0728 -0.2810  0.0626
 6163TIP3    H118430   7.521   1.195   1.345 -0.1643 -1.1042  4.2903
 6163TIP3    H218431   7.371   1.208   1.326  0.3138 -0.0127  0.2480
 6164TIP3   OH218432   6.808   6.791   2.735  0.5684  0.1145  0.4688
 6164TIP3    H118433   6.835   6.875   2.699  0.4657  0.6595  1.6076
 6164TIP3    H218434   6.847   6.789   2.823 -0.3225 -0.5513  0.8639
 6165TIP3   OH218435   4.019   0.762   3.305  0.3356 -0.7786 -0.0846
 6165TIP3    H118436   4.087   0.829   3.310  0.3324 -0.7450 -0.4820
 6165TIP3    H218437   4.035   0.706   3.381 -0.1012  0.0797  0.6596
 6166TIP3   OH218438   5.003   0.275   2.475 -0.2379 -0.6197  0.3193
 6166TIP3    H118439   5.013   0.190   2.518 -1.5544 -0.6420  0.6253
 6166TIP3    H218440   5.037   0.338   2.539 -1.3555 -0.7323  1.0567
 6167TIP3   OH218441   7.448   4.182   3.695  0.0965 -0.2239 -0.3935
 6167TIP3    H118442   7.471   4.232   3.773 -0.0317 -0.0762 -0.4492
 6167TIP3    H218443   7.352   4.184   3.693  0.0605  3.0205 -2.6070
 6168TIP3   OH218444   3.384   7.448   3.450 -0.1726 -0.5626 -0.0809
 6168TIP3    H118445   3.420   7.536   3.439  1.0866 -1.0364  0.1233
 6168TIP3    H218446   3.290   7.459   3.434  0.0124  0.7467 -0.4200
 6169TIP3   OH218447   5.149   5.754   0.307  0.1329  0.5610  0.2842
 6169TIP3    H118448   5.135   5.810   0.231  1.4737  1.7648  0.8570
 6169TIP3    H218449   5.244   5.747   0.314  0.0671  0.9873  2.1769
 6170TIP3   OH218450   7.223   7.868   1.189 -0.1923  0.2716 -0.2791
 6170TIP3    H118451   7.158   7.921   1.235 -1.7050 -1.3814 -0.4383
 6170TIP3    H218452   7.249   7.801   1.253  0.3492  0.0972 -0.6745
 6171TIP3   OH218453   0.816   5.979   0.987  0.0870 -0.0339 -0.6495
 6171TIP3    H118454   0.778   6.063   0.961  0.6623  0.6813  0.7037
 6171TIP3    H218455   0.898   6.002   1.031  0.4749 -1.3359 -0.6305
 6172TIP3   OH218456   0.514   0.259   3.259  0.4840  0.2519 -0.1366
 6172TIP3    H118457   0.515   0.192   3.327 -1.8977  0.0015 -0.2794
 6172TIP3    H218458   0.462   0.330   3.296  0.5179  0.7869 -1.0801
 6173TIP3   OH218459   6.433   2.767   3.421 -0.1886 -0.0976  0.5231
 6173TIP3    H118460   6.417   2.673   3.426 -0.1846 -0.0829  0.8011
 6173TIP3    H218461   6.508   2.782   3.478 -0.3918  0.1216  0.7352
 6174TIP3   OH218462   7.410   2.490   2.463 -0.2723  0.0973 -0.1287
 6174TIP3    H118463   7.503   2.486   2.486  0.8069 -2.3265 -3.8547
 6174TIP3    H218464   7.395   2.582   2.441  1.0509  0.6435  1.0946
 6175TIP3   OH218465   6.296   3.705   2.201 -0.0901  0.4487  0.1475
 6175TIP3    H118466   6.360   3.676   2.266  0.9604  0.7065 -0.7312
 6175TIP3    H218467   6.212   3.679   2.237  0.5893 -1.0313  0.7813
 6176TIP3   OH218468   5.266   0.314   4.257 -0.3815 -0.2218 -0.2866
 6176TIP3    H118469   5.226   0.386   4.306  0.8512  1.6199 -1.8453
 6176TIP3    H218470   5.192   0.264   4.223 -1.2878  0.6829  0.2939
 6177TIP3   OH218471   1.673   6.999   4.220  0.5836  0.1940  0.2022
 6177TIP3    H118472   1.639   7.084   4.191 -0.1001 -0.4564 -0.9846
 6177TIP3    H218473   1.690   7.011   4.314  1.7769  2.0311 -0.1942
 6178TIP3   OH218474   5.683   6.802   3.795  0.3007 -0.0992  0.0154
 6178TIP3    H118475   5.764   6.852   3.789  0.7943 -0.9489 -0.7896
 6178TIP3    H218476   5.679   6.754   3.712 -0.7577 -0.4694  0.2676
 6179TIP3   OH218477   3.778   1.341   5.277 -0.2873  0.1787 -0.2140
 6179TIP3    H118478   3.691   1.306   5.295 -0.0853 -0.8370 -1.0773
 6179TIP3    H218479   3.770   1.435   5.290 -0.7496 -0.1587  2.6912
 6180TIP3   OH218480   2.337   6.670   2.378  0.1529  0.1345 -0.3837
 6180TIP3    H118481   2.392   6.626   2.313 -1.5235 -0.1721 -1.6661
 6180TIP3    H218482   2.298   6.743   2.330 -2.2612 -0.9547 -0.2319
 6181TIP3   OH218483   2.870   2.272   6.581 -0.3412 -0.0990  0.6593
 6181TIP3    H118484   2.894   2.276   6.488 -0.0307 -0.4009  0.7234
 6181TIP3    H218485   2.923   2.341   6.622 -0.1433 -0.2620  0.6807
 6182TIP3   OH218486   0.745   2.314   2.019 -0.2352 -0.1006  0.6818
 6182TIP3    H118487   0.710   2.309   1.930  0.3271  2.7630  0.2080
 6182TIP3    H218488   0.837   2.339   2.007 -0.0099 -0.1925  2.0622
 6183TIP3   OH218489   7.183   6.482   2.973  0.1304  0.4507 -0.6449
 6183TIP3    H118490   7.123   6.520   3.037  0.1045 -0.1879 -0.2839
 6183TIP3    H218491   7.247   6.435   3.026  0.1864  0.0263 -1.0843
 6184TIP3   OH218492   7.693   2.227   0.836 -0.2806 -0.0780 -0.1319
 6184TIP3    H118493   7.722   2.315   0.862 -0.4710 -0.1631  0.3773
 6184TIP3    H218494   7.599   2.227   0.851  0.0647 -1.2657  2.6484
 6185TIP3   OH218495   3.515   5.583   0.766 -1.0271  0.2551 -0.5980
 6185TIP3    H118496   3.485   5.645   0.699  2.2338  1.0271 -1.5343
 6185TIP3    H218497   3.548   5.508   0.716  1.2567  0.7513  0.0433
 6186TIP3   OH218498   3.310   2.359   2.840  0.1147  0.0711 -0.1723
 6186TIP3    H118499   3.345   2.448   2.852 -0.8446  0.6534 -1.4191
 6186TIP3    H218500   3.215   2.372   2.831 -0.7096 -1.5432  4.0324
 6187TIP3   OH218501   2.095   5.959   4.522 -0.2668  0.2403  0.7318
 6187TIP3    H118502   2.013   5.986   4.563 -1.5058 -0.5679 -1.0464
 6187TIP3    H218503   2.117   5.876   4.565  0.2095  0.9739  1.9378
 6188TIP3   OH218504   8.118   0.906   2.705  0.2134 -0.3750 -0.6391
 6188TIP3    H118505   8.070   0.827   2.731 -1.2290  0.7567  0.2900
 6188TIP3    H218506   8.182   0.918   2.775 -2.1110  1.3412  1.3804
 6189TIP3   OH218507   1.116   7.821   3.516 -0.1918 -0.9550 -0.5189
 6189TIP3    H118508   1.083   7.834   3.605  0.4620  0.0401 -0.4081
 6189TIP3    H218509   1.123   7.726   3.506  1.3115 -1.0625  1.0919
 6190TIP3   OH218510   8.346   4.217   1.704  0.4170  0.6718  0.0563
 6190TIP3    H118511   8.390   4.157   1.763  0.9092  0.2034 -0.7625
 6190TIP3    H218512   8.328   4.295   1.757  1.4577  0.5277  0.6413
 6191TIP3   OH218513   2.478   0.562   4.860 -0.2113  0.0327  0.3717
 6191TIP3    H118514   2.532   0.622   4.809 -1.6422 -0.3311 -1.6726
 6191TIP3    H218515   2.495   0.476   4.822 -0.4218 -0.4325  1.3032
 6192TIP3   OH218516   7.645   3.584   1.995  0.5946 -0.2437  0.0155
 6192TIP3    H118517   7.727   3.633   2.003  0.4838  0.0667 -0.7020
 6192TIP3    H218518   7.590   3.618   2.066  1.3303 -0.9552  0.9509
 6193TIP3   OH218519   1.876   1.589   1.507  0.1543  0.1212 -0.2254
 6193TIP3    H118520   1.878   1.535   1.586 -1.6992 -0.0756 -0.2725
 6193TIP3    H218521   1.846   1.675   1.537  0.4004  0.3392 -0.5870
 6194TIP3   OH218522   7.452   0.628   4.928  0.1968 -0.3939 -0.5584
 6194TIP3    H118523   7.507   0.661   4.999 -0.7079 -0.2471  0.0996
 6194TIP3    H218524   7.407   0.705   4.894  0.0820 -0.5664 -0.7997
 6195TIP3   OH218525   1.635   1.450   6.285 -0.6020 -0.0321 -0.4629
 6195TIP3    H118526   1.731   1.449   6.278 -0.2165  2.2648  2.4369
 6195TIP3    H218527   1.608   1.529   6.238 -0.9851 -0.1603 -0.4625
 6196TIP3   OH218528   1.706   0.763   3.778 -0.0538  0.0357  0.0563
 6196TIP3    H118529   1.764   0.824   3.823  1.2028 -0.9648 -0.1330
 6196TIP3    H218530   1.618   0.794   3.797  0.5390  1.7826  0.1009
 6197TIP3   OH218531   8.305   0.092   2.037  0.0222  0.2113 -0.0289
 6197TIP3    H118532   8.238   0.087   1.969  0.3027  2.7235 -0.5903
 6197TIP3    H218533   8.383   0.124   1.992  0.7789  0.0622  1.1239
 6198TIP3   OH218534   0.502   0.718   3.456 -0.6531  0.1209 -0.0033
 6198TIP3    H118535   0.552   0.781   3.508 -1.5182  0.4776  0.4353
 6198TIP3    H218536   0.431   0.770   3.418 -0.4351 -0.2815 -0.9653
 6199TIP3   OH218537   8.115   2.842   5.756  0.3268 -0.2272  0.5673
 6199TIP3    H118538   8.043   2.845   5.693  0.5276 -2.2036  0.1703
 6199TIP3    H218539   8.116   2.929   5.795 -1.6072  0.1783 -0.1531
 6200TIP3   OH218540   0.123   5.090   3.474 -0.1446 -0.3415 -0.3181
 6200TIP3    H118541   0.129   5.026   3.544  0.1543 -1.2977 -1.2040
 6200TIP3    H218542   0.200   5.146   3.485  0.7831 -1.4774 -0.8258
 6201TIP3   OH218543   2.424   6.693   4.479  0.1416 -0.5406  0.5152
 6201TIP3    H118544   2.392   6.606   4.501  1.2380 -1.4285 -1.1502
 6201TIP3    H218545   2.425   6.695   4.383  0.8694  1.0248  0.5180
 6202TIP3   OH218546   0.748   5.355   0.432 -0.4098 -1.0212  0.2386
 6202TIP3    H118547   0.803   5.281   0.457  0.3094 -0.3088  0.8511
 6202TIP3    H218548   0.684   5.363   0.503  0.8321  0.2169  1.2601
 6203TIP3   OH218549   2.276   6.869   6.194  0.0061 -0.1597  0.2016
 6203TIP3    H118550   2.296   6.851   6.286 -1.2446 -1.9397  0.1768
 6203TIP3    H218551   2.212   6.802   6.170 -0.9279  1.2754 -1.5180
 6204TIP3   OH218552   3.453   1.368   6.625 -0.0236  0.1134  0.1278
 6204TIP3    H118553   3.406   1.358   6.542  1.0709 -1.7971 -0.3320
 6204TIP3    H218554   3.494   1.454   6.620 -0.9888  0.5413 -0.7585
 6205TIP3   OH218555   7.549   0.395   4.767  0.2871  0.3903  0.2290
 6205TIP3    H118556   7.640   0.421   4.777 -0.2701  2.3821  0.7002
 6205TIP3    H218557   7.506   0.429   4.846 -0.7434 -1.1543  0.3720
 6206TIP3   OH218558   3.310   3.157   6.354  0.9266  0.0926  1.2673
 6206TIP3    H118559   3.243   3.139   6.419  1.3658 -1.7955  1.2324
 6206TIP3    H218560   3.393   3.151   6.402  1.1542  1.3703  1.0861
 6207TIP3   OH218561   0.381   0.594   3.120 -0.1278 -0.0013 -0.5969
 6207TIP3    H118562   0.466   0.560   3.092  0.0818  0.6674 -0.7991
 6207TIP3    H218563   0.321   0.567   3.050  0.2586  1.0359 -1.3664
 6208TIP3   OH218564   1.695   2.243   2.840 -0.7218 -0.2348 -0.0111
 6208TIP3    H118565   1.690   2.244   2.745  1.2773 -1.2551 -0.1720
 6208TIP3    H218566   1.703   2.150   2.862 -0.5466  0.0356  1.1150
 6209TIP3   OH218567   7.848   5.578   1.398  0.0106  0.0507  0.3544
 6209TIP3    H118568   7.895   5.639   1.342 -0.2289 -0.8074 -0.8286
 6209TIP3    H218569   7.771   5.553   1.347  0.1278 -1.2599  0.7834
 6210TIP3   OH218570   4.387   1.353   6.817 -0.2540  0.2253  0.5883
 6210TIP3    H118571   4.383   1.449   6.811 -0.7352  0.2479  1.2054
 6210TIP3    H218572   4.431   1.336   6.900  1.4727 -0.0998 -0.3298
 6211TIP3   OH218573   3.913   5.944   4.912  0.1123  0.0230 -0.6424
 6211TIP3    H118574   3.850   5.873   4.899  0.8337 -0.4256 -1.9378
 6211TIP3    H218575   3.928   5.947   5.006  0.5155 -1.9701 -0.6081
 6212TIP3   OH218576   5.978   0.328   5.265  0.3468  0.6882  0.3273
 6212TIP3    H118577   5.967   0.271   5.189 -0.6788  0.1974  0.8363
 6212TIP3    H218578   6.073   0.328   5.281  0.4654 -0.0194 -0.3220
 6213TIP3   OH218579   4.355   1.156   4.279  0.1922 -0.4212  0.0629
 6213TIP3    H118580   4.396   1.184   4.198  1.8782 -0.4452  0.8561
 6213TIP3    H218581   4.283   1.100   4.251  0.2637  0.1803 -1.4168
 6214TIP3   OH218582   6.158   3.228   4.559 -0.4035 -0.5533 -0.4309
 6214TIP3    H118583   6.070   3.205   4.529 -0.4951 -2.3143  0.9899
 6214TIP3    H218584   6.155   3.213   4.654  0.4739  2.6418  0.2207
 6215TIP3   OH218585   2.333   2.741   4.561  0.5304  0.1540 -0.3124
 6215TIP3    H118586   2.343   2.680   4.488  2.5576 -0.2493  0.2374
 6215TIP3    H218587   2.392   2.814   4.539  0.5725  0.3896  0.5410
 6216TIP3   OH218588   1.546   1.776   6.308  0.3042 -0.2233 -1.0349
 6216TIP3    H118589   1.533   1.703   6.247 -0.1975  0.0815 -1.3037
 6216TIP3    H218590   1.512   1.852   6.261  0.4463  0.1119 -0.5955
 6217TIP3   OH218591   1.943   7.713   4.150 -0.1311  0.4591 -0.0637
 6217TIP3    H118592   1.918   7.795   4.192  0.6635  0.7896 -0.2268
 6217TIP3    H218593   2.034   7.699   4.176 -0.5263 -0.8349  0.6922
 6218TIP3   OH218594   6.967   6.237   2.953  0.3052  0.2319 -0.4781
 6218TIP3    H118595   6.999   6.173   2.889  1.2578 -0.4323  0.6192
 6218TIP3    H218596   7.043   6.293   2.970  0.7245 -0.8615  1.5621
 6219TIP3   OH218597   3.889   3.675   6.169 -0.5306  0.4904  0.1095
 6219TIP3    H118598   3.926   3.683   6.257 -1.3167  0.4949  0.4456
 6219TIP3    H218599   3.826   3.603   6.176  1.4566 -1.5115 -1.1609
 6220TIP3   OH218600   2.840   5.836   2.562 -0.4380 -0.2253 -0.1785
 6220TIP3    H118601   2.793   5.800   2.636  0.5300 -0.7747  0.1884
 6220TIP3    H218602   2.912   5.887   2.601  0.4720 -1.0526 -0.7227
 6221TIP3   OH218603   1.521   1.835   4.945  0.3447 -0.2706  0.0079
 6221TIP3    H118604   1.578   1.907   4.916  1.8403 -1.3448  0.1278
 6221TIP3    H218605   1.579   1.759   4.947 -1.1114 -1.4106  0.2334
 6222TIP3   OH218606   6.126   2.998   5.476 -0.9612 -0.0655 -0.2173
 6222TIP3    H118607   6.080   2.930   5.525 -3.4388  1.0560 -0.8795
 6222TIP3    H218608   6.069   3.074   5.478  0.1528  0.9532 -2.3848
 6223TIP3   OH218609   8.013   7.453   0.483 -0.4715 -0.0754 -0.6204
 6223TIP3    H118610   7.942   7.506   0.520 -0.1011  0.3137 -0.4609
 6223TIP3    H218611   8.012   7.372   0.535 -0.7370 -0.0343 -0.5598
 6224TIP3   OH218612   1.770   3.437   2.562 -0.3044 -0.4789  0.4659
 6224TIP3    H118613   1.680   3.435   2.528  0.2303  0.0053 -1.0852
 6224TIP3    H218614   1.808   3.517   2.526  1.2814 -1.5702 -0.4203
 6225TIP3   OH218615   4.387   0.433   2.961 -0.0206 -0.5296  0.1826
 6225TIP3    H118616   4.345   0.503   3.011  1.9036 -0.2138  1.4771
 6225TIP3    H218617   4.351   0.353   2.997  0.7591 -0.2781  1.6043
 6226TIP3   OH218618   0.063   5.218   3.247 -0.0067  0.1575  0.5118
 6226TIP3    H118619  -0.029   5.231   3.272  0.1814  0.0557  1.2683
 6226TIP3    H218620   0.101   5.170   3.320  0.7537  0.5521  0.3815
 6227TIP3   OH218621   7.507   5.206   1.022  0.5095  0.2641 -0.2209
 6227TIP3    H118622   7.555   5.205   0.939  0.9132 -1.2722  0.0106
 6227TIP3    H218623   7.467   5.119   1.028 -0.2150  0.6471  0.8082
 6228TIP3   OH218624   2.578   6.259   2.581 -0.0213 -0.1535  0.5944
 6228TIP3    H118625   2.511   6.193   2.598  1.0381 -0.8541  2.3244
 6228TIP3    H218626   2.576   6.272   2.486 -2.3410 -0.3951  0.5642
 6229TIP3   OH218627   5.976   1.515   5.525  0.4873 -0.7889  0.0345
 6229TIP3    H118628   6.008   1.598   5.489 -1.4224  0.0020  0.0775
 6229TIP3    H218629   5.935   1.540   5.608  2.1241 -2.1633  1.3265
 6230TIP3   OH218630   1.174   0.692   5.150  0.1769 -0.1200 -0.3444
 6230TIP3    H118631   1.107   0.759   5.134 -0.9329 -0.8071  1.1953
 6230TIP3    H218632   1.133   0.610   5.122  0.4315 -0.5245  0.4255
 6231TIP3   OH218633   0.920   3.050   4.952 -0.6381  0.1315  0.7650
 6231TIP3    H118634   0.925   3.136   4.911 -1.3332  0.4067  1.2427
 6231TIP3    H218635   0.852   3.058   5.019 -0.2070 -0.5827  1.3161
 6232TIP3   OH218636   7.786   4.435   3.874 -0.1996  0.0993 -0.0150
 6232TIP3    H118637   7.838   4.430   3.954  0.0607 -0.0780 -0.1898
 6232TIP3    H218638   7.701   4.397   3.898 -0.1474  0.1119  0.1935
 6233TIP3   OH218639   2.185   7.857   6.446  0.2586  0.2218  0.0589
 6233TIP3    H118640   2.246   7.889   6.513  0.9756 -1.1345  0.0851
 6233TIP3    H218641   2.116   7.814   6.496  0.7529 -0.7219 -0.0542
 6234TIP3   OH218642   2.032   1.841   0.055 -0.5419 -0.0163 -0.6034
 6234TIP3    H118643   2.085   1.789   0.115 -1.9386 -1.2007 -0.3570
 6234TIP3    H218644   2.057   1.810  -0.032 -0.0029  0.2544 -0.5486
 6235TIP3   OH218645   8.310   5.958   4.913 -0.3158 -0.3129  0.0585
 6235TIP3    H118646   8.226   5.960   4.867 -0.8857  1.3201  1.0719
 6235TIP3    H218647   8.364   6.023   4.868 -0.4807  0.4597  0.9477
 6236TIP3   OH218648   7.574   3.610   4.926  0.2698 -0.4221 -0.0519
 6236TIP3    H118649   7.552   3.655   4.844 -0.1831  1.5584  1.0931
 6236TIP3    H218650   7.533   3.524   4.918 -1.6266  0.5152 -1.0357
 6237TIP3   OH218651   4.724   5.449   0.503  0.5230 -0.1601 -0.3450
 6237TIP3    H118652   4.795   5.504   0.470  2.6371 -1.6626  1.3912
 6237TIP3    H218653   4.752   5.424   0.591 -2.3796 -0.5422  0.5692
 6238TIP3   OH218654   6.511   3.262   3.342 -0.3045  0.2272 -0.2350
 6238TIP3    H118655   6.476   3.276   3.254 -1.3430  0.9275  0.2623
 6238TIP3    H218656   6.483   3.340   3.391 -1.1038 -0.8568  1.1161
 6239TIP3   OH218657   7.333   2.213   3.475  0.6234  0.0013  0.1891
 6239TIP3    H118658   7.332   2.136   3.418 -2.4700 -0.1410  0.2692
 6239TIP3    H218659   7.246   2.215   3.514  1.0784  2.7656  1.2922
 6240TIP3   OH218660   1.816   4.203   0.589  0.3859  0.5206  0.4160
 6240TIP3    H118661   1.816   4.122   0.641 -0.0127  0.3686  0.1863
 6240TIP3    H218662   1.728   4.207   0.552  0.2545  1.3086  0.8002
 6241TIP3   OH218663   6.416   2.918   5.924  0.1007  0.4024  0.6116
 6241TIP3    H118664   6.500   2.960   5.904 -0.0908  0.3509 -0.3884
 6241TIP3    H218665   6.377   2.902   5.838 -1.4327  1.4214  1.0844
 6242TIP3   OH218666   3.804   5.144   6.313 -0.5301 -0.3302  0.5988
 6242TIP3    H118667   3.855   5.066   6.294  0.0874 -0.2556  1.8713
 6242TIP3    H218668   3.866   5.217   6.309 -0.8944 -0.0233  0.3921
 6243TIP3   OH218669   0.041   7.470   1.019 -0.0120 -0.0795  0.2924
 6243TIP3    H118670   0.016   7.471   0.926 -1.4538 -0.3562  0.6524
 6243TIP3    H218671  -0.042   7.478   1.066  0.8575  2.4581  1.5684
 6244TIP3   OH218672   2.482   0.954   0.647 -0.6345  0.2386  0.3223
 6244TIP3    H118673   2.492   0.917   0.734 -1.6252  0.3015  0.4708
 6244TIP3    H218674   2.542   0.902   0.592 -2.3570 -1.9828  0.4068
 6245TIP3   OH218675   2.376   5.337   1.924 -0.2282  0.1874 -0.3418
 6245TIP3    H118676   2.456   5.371   1.884 -0.1734 -1.8640 -2.1921
 6245TIP3    H218677   2.405   5.288   2.000  0.2452 -0.2050 -0.7708
 6246TIP3   OH218678   4.389   5.081   1.562  0.0656 -0.3286 -0.1171
 6246TIP3    H118679   4.308   5.117   1.598  0.4213 -0.9060  1.3355
 6246TIP3    H218680   4.455   5.148   1.578  0.2963 -0.7305  0.6567
 6247TIP3   OH218681   0.335   5.456   4.060 -0.6014 -0.0710  0.3975
 6247TIP3    H118682   0.384   5.401   4.121 -0.2498 -0.1040  0.0846
 6247TIP3    H218683   0.342   5.412   3.975  0.2058  0.7610  0.0096
 6248TIP3   OH218684   8.140   0.802   2.456  0.1075  0.0609  0.1269
 6248TIP3    H118685   8.161   0.819   2.548 -0.2935 -0.7916  0.3841
 6248TIP3    H218686   8.155   0.708   2.445  0.1163  0.1486 -0.6727
 6249TIP3   OH218687   0.989   3.134   5.620  0.1700 -0.0574  0.3891
 6249TIP3    H118688   1.013   3.052   5.576 -0.1910  0.9952 -1.8710
 6249TIP3    H218689   1.073   3.170   5.650  0.6641  0.0607 -1.0570
 6250TIP3   OH218690   0.576   2.286   1.428 -0.6508  0.5246 -0.0292
 6250TIP3    H118691   0.617   2.249   1.350 -1.4657  0.3053 -0.3652
 6250TIP3    H218692   0.625   2.367   1.445 -0.5431  0.6376 -0.8467
 6251TIP3   OH218693   3.718   2.333   0.173  0.4633 -0.7986  0.0219
 6251TIP3    H118694   3.810   2.306   0.180  0.7556  0.1879  0.2233
 6251TIP3    H218695   3.684   2.325   0.262  0.5251 -0.5946  0.0643
 6252TIP3   OH218696   6.305   3.996   6.565  0.7358  0.1551 -0.3838
 6252TIP3    H118697   6.235   4.060   6.568 -1.0058 -1.6633 -0.2379
 6252TIP3    H218698   6.309   3.970   6.473  1.1654  0.1796 -0.3739
 6253TIP3   OH218699   4.928   4.752   0.019  0.0700  0.0815 -0.5257
 6253TIP3    H118700   4.858   4.766  -0.044 -0.1069  1.4090 -0.0648
 6253TIP3    H218701   4.924   4.658   0.039 -2.0619  0.2333  0.0234
 6254TIP3   OH218702   0.720   6.288   6.072  0.5843  0.1188  0.4297
 6254TIP3    H118703   0.661   6.225   6.114  0.8691 -1.4509 -1.4171
 6254TIP3    H218704   0.676   6.311   5.990  0.9321  1.6525  0.6400
 6255TIP3   OH218705   0.292   4.176   6.182 -0.4521 -0.0481 -0.4663
 6255TIP3    H118706   0.235   4.246   6.217 -1.3448 -1.3506  0.7961
 6255TIP3    H218707   0.360   4.166   6.249 -0.2199 -0.2725 -0.7365
 6256TIP3   OH218708   1.998   5.681   4.440  0.0662 -0.2427  0.2720
 6256TIP3    H118709   1.923   5.739   4.448 -0.6032 -1.2101  1.3808
 6256TIP3    H218710   2.042   5.686   4.525  0.0449 -1.2510  0.3619
 6257TIP3   OH218711   7.211   6.964   6.332  0.1761 -0.1057  0.1984
 6257TIP3    H118712   7.148   7.034   6.317  0.8659  0.5990  0.5562
 6257TIP3    H218713   7.223   6.924   6.246 -0.8660 -0.3589  0.1505
 6258TIP3   OH218714   0.461   2.471   2.409  0.0184  0.5982 -0.4324
 6258TIP3    H118715   0.366   2.485   2.400  0.0822  0.6527 -1.0879
 6258TIP3    H218716   0.481   2.400   2.347  0.2610 -0.0530  0.3743
 6259TIP3   OH218717   6.994   4.286   3.022  0.5709  0.3951  0.0215
 6259TIP3    H118718   7.004   4.350   3.092  0.1929  1.4184 -0.8368
 6259TIP3    H218719   7.049   4.318   2.951  1.0878 -0.7214 -0.1147
 6260TIP3   OH218720   0.698   3.785   0.273  0.3273 -0.0476  0.6212
 6260TIP3    H118721   0.632   3.798   0.340 -1.0098  0.8768 -0.7928
 6260TIP3    H218722   0.679   3.853   0.208  1.4967 -0.9622 -0.7308
 6261TIP3   OH218723   5.868   5.157   1.594  0.3762  0.2205  0.3836
 6261TIP3    H118724   5.872   5.173   1.499  2.3364  1.6813  0.6471
 6261TIP3    H218725   5.793   5.099   1.605 -0.4860  0.7629 -1.9579
 6262TIP3   OH218726   5.449   0.436   6.417 -0.4161  0.3175  0.3057
 6262TIP3    H118727   5.403   0.489   6.483 -0.7141  2.6190 -1.6237
 6262TIP3    H218728   5.517   0.493   6.382 -1.1838 -0.2476 -2.3777
 6263TIP3   OH218729   3.121   7.342   3.433  0.0552 -0.1853  0.0671
 6263TIP3    H118730   3.168   7.259   3.443 -1.7875 -1.5909 -2.0816
 6263TIP3    H218731   3.037   7.318   3.396 -0.1282  2.7414 -1.7619
 6264TIP3   OH218732   8.378   5.673   3.864  0.0657  1.1126 -0.6881
 6264TIP3    H118733   8.458   5.622   3.873  0.8639  2.0819 -1.8313
 6264TIP3    H218734   8.368   5.685   3.769 -1.3319  1.1649 -0.5505
 6265TIP3   OH218735   5.479   7.684   1.140 -0.6135 -0.7201  0.0011
 6265TIP3    H118736   5.440   7.770   1.150  0.7894 -0.2597  2.1107
 6265TIP3    H218737   5.552   7.683   1.202 -0.4414 -3.3467 -0.1302
 6266TIP3   OH218738   7.369   0.005   1.630  0.3022 -0.0294 -0.2796
 6266TIP3    H118739   7.308   0.079   1.624 -0.8570 -0.8276  1.1551
 6266TIP3    H218740   7.339  -0.056   1.562 -1.5300 -1.0849  1.3594
 6267TIP3   OH218741   1.852   1.026   0.537  0.0954 -0.4898 -0.0447
 6267TIP3    H118742   1.769   1.003   0.579 -0.8582  1.5313 -0.6624
 6267TIP3    H218743   1.856   0.970   0.460 -0.5161 -0.8646  0.1880
 6268TIP3   OH218744   1.185   4.219   2.006  0.5415 -0.2999 -0.1956
 6268TIP3    H118745   1.190   4.157   2.078  0.3691 -0.8566 -0.6593
 6268TIP3    H218746   1.271   4.215   1.964  0.4282 -0.4622 -0.4167
 6269TIP3   OH218747   7.937   5.253   5.625 -0.0545 -0.1086  0.1743
 6269TIP3    H118748   7.845   5.230   5.609  0.8046 -3.0372 -1.5330
 6269TIP3    H218749   7.945   5.259   5.720 -1.8139 -0.8716  0.4007
 6270TIP3   OH218750   3.784   4.734   6.851 -0.1853  0.5177 -0.6057
 6270TIP3    H118751   3.697   4.733   6.811  0.3107 -0.9294 -1.7517
 6270TIP3    H218752   3.820   4.819   6.828 -1.2864  1.1541 -0.0866
 6271TIP3   OH218753   5.769   6.076   2.162 -0.0764  0.4650  0.2397
 6271TIP3    H118754   5.764   5.988   2.197  0.9249  0.2230 -0.1951
 6271TIP3    H218755   5.786   6.132   2.238 -0.5972  0.2778  0.4983
 6272TIP3   OH218756   1.075   7.536   3.471 -0.2359 -0.0147  0.2687
 6272TIP3    H118757   0.992   7.509   3.432 -0.9757  2.2275  0.2033
 6272TIP3    H218758   1.055   7.547   3.564 -0.3656  1.7473  0.0537
 6273TIP3   OH218759   7.103   3.349   6.008  0.3092  0.0162 -0.2408
 6273TIP3    H118760   7.019   3.306   6.023  1.4696 -1.9660  1.1120
 6273TIP3    H218761   7.101   3.373   5.915 -2.0167  0.7483 -0.0678
 6274TIP3   OH218762   6.653   2.052   3.869  0.0765 -0.3011  0.3765
 6274TIP3    H118763   6.632   2.142   3.894  0.4970 -0.6638  2.2243
 6274TIP3    H218764   6.577   2.022   3.820 -1.2584  0.2332  2.0411
 6275TIP3   OH218765   1.439   0.953   5.668 -0.9455 -0.7221  0.0984
 6275TIP3    H118766   1.534   0.943   5.677 -0.8478 -0.2079 -0.3371
 6275TIP3    H218767   1.406   0.863   5.664 -0.4413 -0.9045 -0.0750
 6276TIP3   OH218768   4.822   7.033   5.942 -0.1813 -0.2681 -0.6693
 6276TIP3    H118769   4.753   7.034   6.008 -0.5137  5.1929 -0.6651
 6276TIP3    H218770   4.903   7.018   5.992 -0.7081  0.8816  0.5916
 6277TIP3   OH218771   1.704   1.954   2.744  0.3947  0.0605 -0.1621
 6277TIP3    H118772   1.770   1.899   2.788 -0.6782 -1.1597 -0.0256
 6277TIP3    H218773   1.700   1.918   2.655 -0.9144 -0.6523  0.1687
 6278TIP3   OH218774   2.281   5.396   3.960  0.0361 -0.2260 -0.3015
 6278TIP3    H118775   2.223   5.333   3.916 -0.4199  0.6756 -1.0287
 6278TIP3    H218776   2.272   5.477   3.909  1.9816 -0.0667 -0.4585
 6279TIP3   OH218777   5.379   1.306   4.690  0.0317  0.0098 -0.3707
 6279TIP3    H118778   5.402   1.332   4.601 -1.2088 -0.3462 -0.8094
 6279TIP3    H218779   5.381   1.210   4.688  0.7185  0.0081  0.1850
 6280TIP3   OH218780   3.588   4.343   1.980  0.5139  0.1811 -0.1224
 6280TIP3    H118781   3.619   4.254   1.963  0.9147  0.4276 -0.6741
 6280TIP3    H218782   3.507   4.350   1.930 -0.0760 -0.2213  0.7541
 6281TIP3   OH218783   8.344   0.297   6.696 -0.5034  0.1471 -0.0981
 6281TIP3    H118784   8.403   0.270   6.766 -1.7955 -0.4372  0.8126
 6281TIP3    H218785   8.374   0.384   6.671  1.1990 -0.4397 -0.2229
 6282TIP3   OH218786   0.893   0.382   5.858 -0.1449 -0.1562 -1.0428
 6282TIP3    H118787   0.937   0.451   5.907  0.0137 -1.3307  0.5284
 6282TIP3    H218788   0.799   0.399   5.872 -0.0997 -0.5941 -0.1397
 6283TIP3   OH218789   2.879   2.806   1.845 -0.0744  0.2098  0.1860
 6283TIP3    H118790   2.922   2.791   1.929  0.0688  3.7888  0.8984
 6283TIP3    H218791   2.945   2.784   1.780  1.3419  1.4409  1.1481
 6284TIP3   OH218792   1.940   1.544   6.504  0.1535 -0.2247  0.2006
 6284TIP3    H118793   1.935   1.533   6.409 -0.4049 -0.1305  0.2168
 6284TIP3    H218794   1.852   1.569   6.530 -0.0617 -1.6537  0.9330
 6285TIP3   OH218795   8.203   6.338   4.052  0.1468 -0.6493  0.1281
 6285TIP3    H118796   8.138   6.296   4.108 -0.0257  1.1656  1.3864
 6285TIP3    H218797   8.284   6.288   4.066  0.2933  0.1335  2.6018
 6286TIP3   OH218798   3.123   2.856   3.159 -0.4520 -0.2160  0.1284
 6286TIP3    H118799   3.147   2.789   3.224  1.1642  0.4032  0.2301
 6286TIP3    H218800   3.149   2.938   3.200 -1.4759  0.3900 -0.4167
 6287TIP3   OH218801   6.586   6.492   0.926  0.0380  0.4665 -0.5272
 6287TIP3    H118802   6.675   6.487   0.893  0.0445  0.5963 -0.5307
 6287TIP3    H218803   6.554   6.577   0.896 -0.8728 -0.5103 -2.4781
 6288TIP3   OH218804   4.402   1.356   3.652 -0.2779 -0.2245  0.4261
 6288TIP3    H118805   4.423   1.448   3.634 -1.2654 -0.2725 -1.1508
 6288TIP3    H218806   4.486   1.317   3.678  0.2186  1.0349  0.7982
 6289TIP3   OH218807   4.214   3.880   4.185 -0.0803  0.4071 -0.6165
 6289TIP3    H118808   4.286   3.941   4.198 -1.4772  2.3635 -1.5117
 6289TIP3    H218809   4.188   3.854   4.273 -1.3385  3.5189  0.0816
 6290TIP3   OH218810   4.637   4.672   2.083 -0.1808  0.0119  0.4691
 6290TIP3    H118811   4.594   4.657   1.999 -0.3343  3.0147 -0.0850
 6290TIP3    H218812   4.565   4.693   2.143  0.1394  0.4459  0.7016
 6291TIP3   OH218813   6.687   1.031   1.944  0.0007 -0.4112  0.1433
 6291TIP3    H118814   6.630   1.072   2.010  0.2278  0.5241 -0.2354
 6291TIP3    H218815   6.728   1.104   1.898  0.7383 -1.0697 -0.2714
 6292TIP3   OH218816   4.623   4.687   1.482  0.1416  0.3594  0.0499
 6292TIP3    H118817   4.696   4.626   1.472  0.2028  0.0100  2.1553
 6292TIP3    H218818   4.664   4.774   1.478  0.5846  0.1808  0.5493
 6293TIP3   OH218819   0.279   4.294   3.152  0.3303  0.3039  0.3175
 6293TIP3    H118820   0.232   4.266   3.073  1.6845 -1.5747  0.1248
 6293TIP3    H218821   0.364   4.325   3.119  1.4997 -1.8960  1.0933
 6294TIP3   OH218822   2.699   4.236   4.088 -0.0550 -0.3804 -0.1204
 6294TIP3    H118823   2.690   4.314   4.144  3.4435 -0.7230  1.1279
 6294TIP3    H218824   2.728   4.271   4.003 -3.3930 -0.0509 -1.3038
 6295TIP3   OH218825   3.726   7.601   2.299 -0.2493  0.1179 -0.3215
 6295TIP3    H118826   3.761   7.518   2.267 -1.7284 -0.8065  0.3497
 6295TIP3    H218827   3.634   7.601   2.272 -0.4713  1.1859  0.3624
 6296TIP3   OH218828   2.417   0.734   5.731  0.6972 -0.3033 -0.1810
 6296TIP3    H118829   2.415   0.763   5.640  4.6190  1.0223 -0.0367
 6296TIP3    H218830   2.475   0.658   5.731 -0.9233 -1.6223  1.0085
 6297TIP3   OH218831   0.931   0.837   5.797  0.3283 -0.0060  0.2614
 6297TIP3    H118832   1.006   0.816   5.853 -1.1876  1.5833  3.1499
 6297TIP3    H218833   0.875   0.760   5.804 -0.5468  0.7356  2.3663
 6298TIP3   OH218834   5.542   5.649   5.940  0.7372 -0.2130 -0.4008
 6298TIP3    H118835   5.574   5.559   5.944 -0.2399 -0.5660 -0.1481
 6298TIP3    H218836   5.461   5.648   5.991 -0.6514  0.2193 -2.4580
 6299TIP3   OH218837   7.720   4.720   2.201  0.7932 -0.4412 -0.0407
 6299TIP3    H118838   7.700   4.731   2.108  0.0285  0.6492  0.2255
 6299TIP3    H218839   7.816   4.721   2.205  0.8531  1.4668 -0.6574
 6300TIP3   OH218840   6.250   3.805   6.813 -0.2461 -0.1065 -0.0956
 6300TIP3    H118841   6.271   3.790   6.721  0.7986 -0.3388  0.1641
 6300TIP3    H218842   6.166   3.851   6.811 -0.6390 -0.8125 -1.1290
 6301TIP3   OH218843   4.417   3.843   3.764  0.2770 -0.6196  0.8279
 6301TIP3    H118844   4.367   3.788   3.703  0.3498 -0.2418  0.4200
 6301TIP3    H218845   4.496   3.867   3.715  0.3488 -0.3334  1.0836
 6302TIP3   OH218846   0.133   2.628   2.086  0.0327  0.4988  0.5872
 6302TIP3    H118847   0.162   2.642   2.176  1.3849 -0.3343  0.3250
 6302TIP3    H218848   0.201   2.669   2.032  0.1206 -0.4564 -0.0543
 6303TIP3   OH218849   3.481   3.446   0.610  0.1394  0.4880 -0.2419
 6303TIP3    H118850   3.533   3.462   0.531 -0.8576  0.5149 -0.9080
 6303TIP3    H218851   3.419   3.519   0.613  1.4530  1.6230  1.7001
 6304TIP3   OH218852   5.970   0.816   2.401  0.6180 -0.6856 -0.5767
 6304TIP3    H118853   5.928   0.899   2.424  0.4183 -0.9940  0.2152
 6304TIP3    H218854   5.935   0.795   2.315  1.9320  0.8678 -1.5640
 6305TIP3   OH218855   1.799   0.288   6.874  0.2364  0.2721  0.4621
 6305TIP3    H118856   1.755   0.373   6.874 -0.2779  0.0165  0.1716
 6305TIP3    H218857   1.888   0.306   6.846 -0.0597  0.6217 -0.2616
 6306TIP3   OH218858   3.049   5.377   5.413  0.3091  0.0064 -0.1037
 6306TIP3    H118859   2.956   5.365   5.394  0.4270 -4.1160  0.8738
 6306TIP3    H218860   3.053   5.382   5.509  1.1115 -0.5339 -0.0980
 6307TIP3   OH218861   6.109   2.239   0.566 -0.4462 -0.0892  0.1421
 6307TIP3    H118862   6.165   2.191   0.506 -2.3204 -0.9490 -1.0239
 6307TIP3    H218863   6.074   2.311   0.513  0.2744  1.0175  1.1228
 6308TIP3   OH218864   2.727   7.468   5.436  0.3826  0.0580  0.1814
 6308TIP3    H118865   2.706   7.533   5.503 -3.1703 -1.7307  1.0609
 6308TIP3    H218866   2.689   7.503   5.355  0.4336  0.0711  0.1627
 6309TIP3   OH218867   1.295   3.521   1.363 -0.1617 -0.4364  0.2236
 6309TIP3    H118868   1.367   3.460   1.379 -0.0091 -1.2767 -3.0860
 6309TIP3    H218869   1.219   3.480   1.405  0.4666 -1.6083  0.2586
 6310TIP3   OH218870   6.842   0.306   5.000  0.0519  0.0342 -0.0591
 6310TIP3    H118871   6.800   0.243   4.941 -0.1588 -0.5754  0.7141
 6310TIP3    H218872   6.930   0.316   4.965 -0.0542 -0.3526 -0.4560
 6311TIP3   OH218873   3.510   6.684   5.617  0.3133  0.4140  0.1761
 6311TIP3    H118874   3.580   6.643   5.567  0.0528 -0.0543  0.1967
 6311TIP3    H218875   3.495   6.768   5.573  0.1583  0.0551 -0.4630
 6312TIP3   OH218876   6.515   0.973   2.944 -0.2106 -0.1725  0.4881
 6312TIP3    H118877   6.493   1.066   2.950  0.6286 -0.0343  1.8541
 6312TIP3    H218878   6.588   0.969   2.882 -0.6560 -0.0057 -0.0537
 6313TIP3   OH218879   3.870   0.461   4.191  0.1073  0.2954 -0.4191
 6313TIP3    H118880   3.935   0.406   4.146  0.0329  0.5940 -0.9065
 6313TIP3    H218881   3.801   0.400   4.217 -1.1432  0.4196 -3.0672
 6314TIP3   OH218882   1.521   2.148   3.489  0.1910 -0.1430  0.7140
 6314TIP3    H118883   1.476   2.066   3.468 -0.2954  0.4845 -0.8157
 6314TIP3    H218884   1.586   2.159   3.420 -0.0885  1.0061  0.6200
 6315TIP3   OH218885   3.988   2.952   1.643 -0.4409 -0.3581 -0.2889
 6315TIP3    H118886   4.052   2.915   1.703 -0.2951  0.0412 -0.1916
 6315TIP3    H218887   3.926   2.881   1.626 -1.1097 -0.1625  1.2113
 6316TIP3   OH218888   4.359   6.922   0.134 -0.0224 -0.3305  0.2523
 6316TIP3    H118889   4.412   6.955   0.062 -2.0232 -2.6756 -2.5266
 6316TIP3    H218890   4.415   6.932   0.211  3.0208  0.6022 -1.8796
 6317TIP3   OH218891   2.321   2.953   2.718  0.0777 -0.1834 -0.4478
 6317TIP3    H118892   2.375   3.005   2.778 -0.6510 -0.0301  0.0961
 6317TIP3    H218893   2.300   3.013   2.647 -0.4318  0.1620 -0.0182
 6318TIP3   OH218894   5.453   1.780   3.569  0.2460  0.0062  0.2697
 6318TIP3    H118895   5.469   1.874   3.567  0.8257 -0.0149  2.1064
 6318TIP3    H218896   5.523   1.742   3.516  0.3521  0.5776 -0.0014
 6319TIP3   OH218897   4.872   1.986   3.844  0.9648 -0.3382  0.1833
 6319TIP3    H118898   4.940   2.053   3.844  0.3350  0.3671 -1.8552
 6319TIP3    H218899   4.917   1.906   3.816  1.0745  0.0241 -0.7183
 6320TIP3   OH218900   0.482   2.943   6.359 -0.0820 -0.3919 -0.7234
 6320TIP3    H118901   0.458   3.035   6.350 -2.9530 -1.1288 -1.7758
 6320TIP3    H218902   0.540   2.941   6.435 -0.9498  2.1109  0.1086
 6321TIP3   OH218903   6.664   3.391   6.085  0.1096  0.0841 -0.2522
 6321TIP3    H118904   6.752   3.412   6.054  0.2101 -1.0118 -0.7546
 6321TIP3    H218905   6.657   3.297   6.074 -1.6842  0.3253 -1.7459
 6322TIP3   OH218906   4.260   7.178   0.565  0.4568 -0.3093 -0.2008
 6322TIP3    H118907   4.295   7.090   0.583 -0.4343 -0.7504 -0.5707
 6322TIP3    H218908   4.321   7.237   0.609  1.8264 -1.0296 -1.0223
 6323TIP3   OH218909   5.287   4.993   3.651  0.0021 -0.2138 -0.4129
 6323TIP3    H118910   5.345   4.931   3.695  0.5241  0.4169 -0.2072
 6323TIP3    H218911   5.210   4.999   3.709  0.7519  0.7360  0.5368
 6324TIP3   OH218912   1.616   7.744   5.185 -0.1055  1.0817  0.4680
 6324TIP3    H118913   1.695   7.773   5.230  0.8064  1.6432 -1.3630
 6324TIP3    H218914   1.643   7.737   5.093 -1.9928  0.5134 -0.0792
 6325TIP3   OH218915   1.541   5.895   0.269 -0.2800 -0.3406 -0.1961
 6325TIP3    H118916   1.486   5.869   0.344 -0.8498 -0.8416 -0.7754
 6325TIP3    H218917   1.499   5.854   0.194  0.4218 -0.0270 -0.7651
 6326TIP3   OH218918   8.226   3.556   0.110  0.0273 -0.7755  0.6791
 6326TIP3    H118919   8.165   3.493   0.073 -1.3385  1.3279 -0.8692
 6326TIP3    H218920   8.171   3.627   0.143  1.2825 -1.5038  5.0572
 6327TIP3   OH218921   7.071   1.007   4.413 -0.3120 -0.3976 -0.0592
 6327TIP3    H118922   7.026   0.966   4.487  0.1994 -1.3543 -0.2524
 6327TIP3    H218923   7.046   0.954   4.338 -0.7808  0.5347 -0.5745
 6328TIP3   OH218924   6.242   0.255   3.957 -0.3751 -0.2601  0.8043
 6328TIP3    H118925   6.296   0.332   3.973  0.0097 -0.2987 -0.2118
 6328TIP3    H218926   6.234   0.213   4.042  3.1752 -1.5074  0.6996
 6329TIP3   OH218927   7.570   5.649   2.746 -0.1054  0.0478 -0.0854
 6329TIP3    H118928   7.573   5.728   2.691 -1.0673 -0.4669 -0.9103
 6329TIP3    H218929   7.616   5.674   2.826  1.2418  0.8598 -1.0734
 6330TIP3   OH218930   4.401   4.265   3.610  1.0712  0.0595 -0.5063
 6330TIP3    H118931   4.476   4.252   3.668 -0.6555  0.0613  1.8640
 6330TIP3    H218932   4.359   4.179   3.606 -0.3472  0.6709  0.5346
 6331TIP3   OH218933   3.342   3.727   0.671 -0.1050  0.2804  0.7434
 6331TIP3    H118934   3.353   3.769   0.757  1.7514  0.8084  0.3004
 6331TIP3    H218935   3.428   3.736   0.629 -0.9649  0.0510 -1.1839
 6332TIP3   OH218936   5.856   6.431   6.602  0.2475  0.5347 -0.0834
 6332TIP3    H118937   5.896   6.482   6.531 -1.1460  1.9574  0.0952
 6332TIP3    H218938   5.817   6.356   6.558 -0.2703  1.2056 -0.7918
 6333TIP3   OH218939   4.767   4.296   0.750  0.4197 -0.1966 -0.0244
 6333TIP3    H118940   4.683   4.334   0.774  0.3144 -1.2640  1.4023
 6333TIP3    H218941   4.824   4.313   0.825  0.5941 -2.1076  0.3251
 6334TIP3   OH218942   4.561   7.591   6.516 -0.1207  0.1083 -0.6379
 6334TIP3    H118943   4.622   7.604   6.444  0.2850 -0.8368 -0.4839
 6334TIP3    H218944   4.579   7.663   6.577  1.3987 -0.5875 -0.2162
 6335TIP3   OH218945   7.991   0.828   3.095 -0.2806  0.1527  0.0224
 6335TIP3    H118946   7.990   0.892   3.024 -1.2177  2.2593  1.8352
 6335TIP3    H218947   8.076   0.841   3.137  0.5074 -1.4770 -0.9627
 6336TIP3   OH218948   4.381   7.171   6.002 -0.2326 -0.3338 -0.0615
 6336TIP3    H118949   4.294   7.200   6.031 -0.1757  0.4541 -0.6529
 6336TIP3    H218950   4.442   7.218   6.059 -0.1250  1.1129 -1.3017
 6337TIP3   OH218951   5.455   6.608   5.220 -0.8772 -0.2778 -0.0341
 6337TIP3    H118952   5.400   6.666   5.167  0.9814  2.5239  0.8637
 6337TIP3    H218953   5.429   6.626   5.310 -2.0817 -2.9566  0.2704
 6338TIP3   OH218954   7.872   3.963   3.007 -0.1563  0.1650  0.3978
 6338TIP3    H118955   7.951   4.013   2.984 -0.5992  0.3858 -0.7212
 6338TIP3    H218956   7.838   4.007   3.085 -0.1531  1.1889 -0.1541
 6339TIP3   OH218957   6.725   7.387   1.164  0.6755  0.0685 -0.0941
 6339TIP3    H118958   6.781   7.361   1.091  0.2832  0.7045 -0.6309
 6339TIP3    H218959   6.776   7.365   1.242  0.5392 -1.8980 -0.5082
 6340TIP3   OH218960   3.283   4.542   3.623  0.9354 -0.2124 -0.4681
 6340TIP3    H118961   3.268   4.508   3.712 -0.7965 -0.7281 -0.9123
 6340TIP3    H218962   3.283   4.464   3.568  3.8910 -0.0933 -0.7743
 6341TIP3   OH218963   0.740   5.668   5.369 -0.1160  0.8438  0.1554
 6341TIP3    H118964   0.737   5.632   5.281 -1.1750  2.2601 -0.4129
 6341TIP3    H218965   0.792   5.748   5.361  0.6508  0.4537  1.0326
 6342TIP3   OH218966   5.639   3.018   3.118  0.6753  0.3581 -0.5223
 6342TIP3    H118967   5.623   2.957   3.190 -0.1442  1.9478  0.7270
 6342TIP3    H218968   5.723   2.992   3.082  2.0930  0.6592  2.3059
 6343TIP3   OH218969   7.603   0.934   3.917  0.0471 -0.7860  0.4426
 6343TIP3    H118970   7.508   0.943   3.932 -0.1542 -0.7568 -0.7088
 6343TIP3    H218971   7.643   0.970   3.996 -0.9049 -0.1118  0.6470
 6344TIP3   OH218972   0.632   1.234   1.671  0.1724 -0.5311 -0.5131
 6344TIP3    H118973   0.551   1.216   1.624  0.2473 -0.2835 -0.7423
 6344TIP3    H218974   0.697   1.176   1.632  0.1515 -0.5833 -0.4699
 6345TIP3   OH218975   0.187   2.365   3.871  0.0381 -0.4037 -0.2871
 6345TIP3    H118976   0.104   2.323   3.895 -1.0397  2.2548  1.0791
 6345TIP3    H218977   0.251   2.326   3.931 -0.9074 -0.1523  0.9248
 6346TIP3   OH218978   1.620   4.889   5.559 -0.1664 -0.4288  0.4393
 6346TIP3    H118979   1.706   4.860   5.588 -0.0213 -1.9095 -1.2613
 6346TIP3    H218980   1.584   4.813   5.512 -1.3365  0.9717 -1.0449
 6347TIP3   OH218981   7.808   5.162   3.479 -0.1211  0.1821  0.1825
 6347TIP3    H118982   7.793   5.211   3.560 -0.1502 -1.0421  0.9351
 6347TIP3    H218983   7.830   5.074   3.507 -1.4704 -0.6414 -1.1536
 6348TIP3   OH218984   1.953   0.567   2.080  0.2979 -0.2255  0.0764
 6348TIP3    H118985   1.957   0.521   2.164 -0.9938  2.7693  1.9352
 6348TIP3    H218986   1.872   0.537   2.040 -1.1486  1.1367  1.8082
 6349TIP3   OH218987   5.889   7.577   3.065  0.3733 -1.1627  0.5376
 6349TIP3    H118988   5.947   7.556   3.138  2.7021  2.8760  0.1215
 6349TIP3    H218989   5.948   7.590   2.991 -1.2328  0.9420 -0.4664
 6350TIP3   OH218990   6.854   3.781   1.245  0.0554  0.2775  0.1219
 6350TIP3    H118991   6.943   3.797   1.276  0.7853 -0.3646 -1.5496
 6350TIP3    H218992   6.846   3.834   1.166 -1.0446  0.2818  0.2173
 6351TIP3   OH218993   4.961   0.896   4.467  0.3602  0.0316  0.2571
 6351TIP3    H118994   4.885   0.952   4.454 -0.4002 -0.8635  0.7008
 6351TIP3    H218995   5.007   0.898   4.383 -0.0812  0.6754  0.0261
 6352TIP3   OH218996   4.240   7.780   0.281  0.0972  0.2019  0.1437
 6352TIP3    H118997   4.314   7.808   0.227 -0.0613  0.3389 -0.0024
 6352TIP3    H218998   4.186   7.728   0.222  1.3464 -2.0496  0.8856
 6353TIP3   OH218999   5.054   4.559   4.890  0.5580 -0.1596 -0.1289
 6353TIP3    H119000   5.081   4.467   4.899  2.4460  0.3028 -0.6254
 6353TIP3    H219001   5.058   4.594   4.979 -2.4050 -1.0513  0.4777
 6354TIP3   OH219002   8.045   6.762   4.736 -0.3422 -0.4772  0.3180
 6354TIP3    H119003   8.135   6.778   4.764 -0.4490 -1.3192  1.1936
 6354TIP3    H219004   8.000   6.732   4.815 -1.3997 -0.0578 -0.1062
 6355TIP3   OH219005   2.123   6.320   1.629  0.3211 -0.2978  0.4535
 6355TIP3    H119006   2.213   6.332   1.660  0.9325 -1.2785 -0.8528
 6355TIP3    H219007   2.096   6.236   1.665  0.3791 -0.5787 -0.1458
 6356TIP3   OH219008   0.031   2.560   4.208 -0.0485 -0.1299 -0.1493
 6356TIP3    H119009   0.034   2.497   4.280 -0.0202  0.5920  0.4996
 6356TIP3    H219010   0.095   2.627   4.233  1.0769 -0.6168 -1.5790
 6357TIP3   OH219011   2.845   3.828   5.971  0.0777  0.3604 -0.4121
 6357TIP3    H119012   2.904   3.753   5.971  0.4086  0.6117 -1.1054
 6357TIP3    H219013   2.881   3.887   6.037  0.0601  0.0965 -0.1669
 6358TIP3   OH219014   2.294   7.153   0.372 -0.2068 -0.8598  0.0444
 6358TIP3    H119015   2.252   7.150   0.286 -0.2940  0.5116  0.0147
 6358TIP3    H219016   2.362   7.220   0.363  0.5935 -1.5632  0.7077
 6359TIP3   OH219017   1.099   6.452   0.703  0.0192  0.6367  0.0227
 6359TIP3    H119018   1.019   6.459   0.652 -0.6963  1.7113  1.2524
 6359TIP3    H219019   1.152   6.527   0.675  0.2670  0.3759 -0.2154
 6360TIP3   OH219020   1.580   4.827   4.449  0.4909  0.6664 -0.1245
 6360TIP3    H119021   1.660   4.783   4.480  1.1902  1.0391 -1.3292
 6360TIP3    H219022   1.570   4.902   4.507  1.9237  1.4990 -0.8951
 6361TIP3   OH219023   0.629   6.141   1.484  0.3364 -0.7534  0.1507
 6361TIP3    H119024   0.665   6.191   1.557 -0.9713  0.2016  0.1824
 6361TIP3    H219025   0.641   6.197   1.408  0.4611 -1.1623 -0.1360
 6362TIP3   OH219026   2.268   6.911   1.835  0.2009  0.4275 -0.1935
 6362TIP3    H119027   2.260   7.006   1.846  0.7421  0.3800  0.6274
 6362TIP3    H219028   2.178   6.881   1.824  0.0537  1.0824 -0.9426
 6363TIP3   OH219029   7.722   2.459   0.395 -0.3592  0.0586 -0.1317
 6363TIP3    H119030   7.670   2.386   0.427 -0.0654 -0.1400 -0.0995
 6363TIP3    H219031   7.660   2.515   0.349 -0.3740 -0.8195 -1.2019
 6364TIP3   OH219032   4.255   5.171   2.987  0.2928  0.1406  0.1082
 6364TIP3    H119033   4.295   5.243   2.937 -0.2032 -0.5380 -1.3211
 6364TIP3    H219034   4.206   5.121   2.921 -1.8237  0.1797  1.5798
 6365TIP3   OH219035   1.726   2.267   0.197 -0.0489 -0.0744  0.2144
 6365TIP3    H119036   1.804   2.231   0.240 -0.1812 -0.7440 -0.0985
 6365TIP3    H219037   1.756   2.349   0.157  0.1200  0.4890  1.4365
 6366TIP3   OH219038   6.675   1.980   4.269 -0.0760 -0.5419  0.1398
 6366TIP3    H119039   6.596   2.030   4.288  0.1675  0.2401 -0.8050
 6366TIP3    H219040   6.739   2.046   4.240  0.1280 -1.4065 -1.5302
 6367TIP3   OH219041   6.531   0.267   6.075  0.3510  0.0745 -0.2540
 6367TIP3    H119042   6.469   0.266   6.148 -0.1883 -3.6025 -0.5579
 6367TIP3    H219043   6.616   0.251   6.116  0.4513  0.6707 -0.2230
 6368TIP3   OH219044   3.433   0.872   5.899 -0.0282  0.3899  0.1813
 6368TIP3    H119045   3.490   0.905   5.969 -0.5009  0.8746  0.3459
 6368TIP3    H219046   3.423   0.947   5.840  0.7496 -0.1598 -0.6572
 6369TIP3   OH219047   3.131   0.205   1.594 -0.5076  0.1341  0.5051
 6369TIP3    H119048   3.145   0.284   1.645 -0.6655  0.8583 -0.5402
 6369TIP3    H219049   3.036   0.195   1.591 -0.4723 -1.3433  2.4527
 6370TIP3   OH219050   1.913   7.519   0.729  0.0197 -0.0274 -0.3571
 6370TIP3    H119051   1.828   7.561   0.726 -0.4873 -1.0498 -0.7229
 6370TIP3    H219052   1.916   7.475   0.814 -0.3798 -1.1120 -0.8904
 6371TIP3   OH219053   5.958   4.907   0.259 -0.6027 -0.3811  0.4626
 6371TIP3    H119054   5.915   4.847   0.320 -1.3177 -0.6472 -0.2769
 6371TIP3    H219055   5.937   4.994   0.293  2.6401 -0.4507  3.0582
 6372TIP3   OH219056   5.504   7.724   0.635  0.6208 -0.1427 -0.0697
 6372TIP3    H119057   5.504   7.692   0.726  1.7089  0.8530  0.3115
 6372TIP3    H219058   5.419   7.766   0.625  0.5201 -0.1914  0.5115
 6373TIP3   OH219059   4.284   0.296   3.792 -0.6273  0.0840 -0.2719
 6373TIP3    H119060   4.375   0.301   3.821 -0.3952 -1.8031 -0.5763
 6373TIP3    H219061   4.246   0.225   3.844 -1.1607 -0.9906 -2.0417
 6374TIP3   OH219062   2.554   4.830   5.502  0.2074 -0.0767 -1.0992
 6374TIP3    H119063   2.623   4.770   5.528  0.9852  1.8352  1.7120
 6374TIP3    H219064   2.596   4.891   5.441  1.0559  0.9790  0.4738
 6375TIP3   OH219065   1.240   4.877   0.267 -0.0118  0.4033  0.1434
 6375TIP3    H119066   1.153   4.897   0.231  0.5113 -0.3965 -1.6918
 6375TIP3    H219067   1.288   4.959   0.262 -1.3833  1.6323  3.7449
 6376TIP3   OH219068   2.314   3.423   1.165 -0.4314  0.5671  0.2411
 6376TIP3    H119069   2.260   3.376   1.229  0.1696 -0.1411  0.2378
 6376TIP3    H219070   2.298   3.516   1.185  0.9032  0.3999  2.4650
 6377TIP3   OH219071   7.938   1.421   1.858 -0.3237 -0.3829  0.3087
 6377TIP3    H119072   8.033   1.412   1.860  0.0006  1.0697 -2.8204
 6377TIP3    H219073   7.906   1.334   1.834  0.2732 -0.6788  0.5655
 6378TIP3   OH219074   3.141   0.782   6.160  0.1082 -0.2318  0.0842
 6378TIP3    H119075   3.073   0.849   6.160  0.4694  0.1387 -0.6431
 6378TIP3    H219076   3.216   0.822   6.204  0.7467  0.2959 -1.4289
 6379TIP3   OH219077   0.980   1.544   5.684 -0.4123 -0.6787  0.1588
 6379TIP3    H119078   1.006   1.577   5.770 -4.0122  0.8142  0.8501
 6379TIP3    H219079   1.029   1.597   5.621  0.4077 -0.0701  1.2749
 6380TIP3   OH219080   0.960   0.080   2.857 -0.2608 -0.9697  0.4749
 6380TIP3    H119081   0.949   0.036   2.941 -1.6154 -1.7740 -0.0779
 6380TIP3    H219082   0.956   0.009   2.793 -5.6639 -0.0285 -0.7102
 6381TIP3   OH219083   3.586   1.058   6.513 -0.2743 -0.2388 -0.8810
 6381TIP3    H119084   3.639   1.128   6.552 -2.3086 -0.5229  2.8750
 6381TIP3    H219085   3.520   1.104   6.462  0.7684  0.3308 -1.7591
 6382TIP3   OH219086   4.221   4.919   3.573  0.1103 -0.4241  0.3776
 6382TIP3    H119087   4.224   4.823   3.569 -0.6930 -0.3982 -1.6714
 6382TIP3    H219088   4.207   4.947   3.483 -1.1803  1.5728  1.1255
 6383TIP3   OH219089   1.567   7.354   5.889  0.2108 -0.3802  0.2391
 6383TIP3    H119090   1.623   7.332   5.814 -0.0282  0.0700 -0.0732
 6383TIP3    H219091   1.628   7.388   5.955  0.4221 -0.7727  0.2489
 6384TIP3   OH219092   2.436   4.688   2.304  0.1665  0.2351  0.2509
 6384TIP3    H119093   2.463   4.638   2.227 -0.0504  0.5652 -0.0407
 6384TIP3    H219094   2.492   4.765   2.304 -1.8082  1.7720 -1.2921
 6385TIP3   OH219095   2.253   7.159   6.359 -0.0545  0.3944  0.3028
 6385TIP3    H119096   2.160   7.142   6.347  0.3085 -3.1817  1.4099
 6385TIP3    H219097   2.276   7.112   6.439  2.7978  0.8715 -0.1225
 6386TIP3   OH219098   2.462   2.600   6.376 -0.7768 -0.0543  0.3036
 6386TIP3    H119099   2.415   2.587   6.294 -0.5182  1.5317 -0.1295
 6386TIP3    H219100   2.438   2.524   6.430 -1.1288 -1.0076 -1.1310
 6387TIP3   OH219101   7.826   6.003   6.576  0.0985 -0.5585 -0.5691
 6387TIP3    H119102   7.782   6.070   6.629  0.0423 -1.2968  0.3595
 6387TIP3    H219103   7.868   5.946   6.641  0.6028 -1.1035 -1.3599
 6388TIP3   OH219104   1.930   2.521   6.138 -0.0194  0.7612 -0.2896
 6388TIP3    H119105   1.845   2.507   6.095  0.3456  1.8210 -1.4097
 6388TIP3    H219106   1.991   2.468   6.089  0.0923  0.5448  0.0801
 6389TIP3   OH219107   2.575   1.827   6.492  0.3386 -0.5790 -0.4324
 6389TIP3    H119108   2.642   1.895   6.503 -0.8307  0.4905  0.2812
 6389TIP3    H219109   2.623   1.752   6.458  1.7018  0.5284 -1.0297
 6390TIP3   OH219110   0.227   5.437   5.901  0.0610  0.2987  0.3188
 6390TIP3    H119111   0.313   5.477   5.893  1.4902 -2.5365  0.2239
 6390TIP3    H219112   0.170   5.490   5.845  1.9248  1.6957 -0.3465
 6391TIP3   OH219113   5.124   1.055   1.811 -0.1519 -0.0451 -0.1361
 6391TIP3    H119114   5.117   0.960   1.798  0.1158 -0.1584  0.5393
 6391TIP3    H219115   5.033   1.085   1.815 -0.3539 -0.7254  2.8138
 6392TIP3   OH219116   4.747   2.444   5.522  0.4445 -0.3957 -0.2684
 6392TIP3    H119117   4.814   2.396   5.473 -0.4254 -1.0827 -0.8214
 6392TIP3    H219118   4.665   2.423   5.477  0.1225  2.5189 -1.2809
 6393TIP3   OH219119   2.844   7.150   4.804 -0.4384 -0.9573  0.4780
 6393TIP3    H119120   2.813   7.092   4.734  0.2574 -1.9692  0.9966
 6393TIP3    H219121   2.807   7.236   4.781  0.1277 -1.1525 -1.3806
 6394TIP3   OH219122   2.214   6.631   1.971 -0.3322 -0.0478 -0.1090
 6394TIP3    H119123   2.158   6.674   1.907 -0.8223 -0.4615  0.0407
 6394TIP3    H219124   2.273   6.700   2.002  0.9424 -0.1347 -2.1078
 6395TIP3   OH219125   4.770   2.942   0.803  0.0588 -0.3566 -0.0122
 6395TIP3    H119126   4.819   3.024   0.798 -2.0650  1.1420  1.5414
 6395TIP3    H219127   4.749   2.920   0.712 -1.8331  2.5461 -0.4272
 6396TIP3   OH219128   0.825   2.491   5.384  0.0523  0.1860  0.0287
 6396TIP3    H119129   0.884   2.438   5.439 -0.1174 -0.0027  0.0319
 6396TIP3    H219130   0.744   2.495   5.434 -0.5079 -1.0015 -0.7407
 6397TIP3   OH219131   2.653   3.252   0.262  0.1619  0.1984  0.7784
 6397TIP3    H119132   2.714   3.209   0.321  0.2860 -1.3189 -0.3759
 6397TIP3    H219133   2.634   3.186   0.195 -1.5746  1.1343  0.2706
 6398TIP3   OH219134   6.617   2.230   2.465  0.4258 -0.4825 -0.4294
 6398TIP3    H119135   6.672   2.286   2.519  0.6806 -1.4920  0.3932
 6398TIP3    H219136   6.531   2.271   2.467  1.0312  0.9003 -1.4094
 6399TIP3   OH219137   2.129   2.849   2.110  0.7153  0.4677  0.1546
 6399TIP3    H119138   2.192   2.883   2.047 -0.6836  0.9301 -1.0584
 6399TIP3    H219139   2.044   2.881   2.079 -0.3165 -1.4877  0.7791
 6400TIP3   OH219140   7.714   2.294   3.450 -0.3916  0.2979  0.0755
 6400TIP3    H119141   7.788   2.313   3.509 -0.9587 -0.6301  1.1388
 6400TIP3    H219142   7.650   2.362   3.471 -0.6546 -0.1205  0.6684
 6401TIP3   OH219143   3.274   0.815   6.615 -0.4834  0.0497 -0.2578
 6401TIP3    H119144   3.256   0.907   6.595 -0.0846  0.4602  1.1414
 6401TIP3    H219145   3.234   0.801   6.701  0.7602 -0.6513  0.2343
 6402TIP3   OH219146   0.900   7.696   0.954  0.2518 -0.0988 -0.3759
 6402TIP3    H119147   0.996   7.686   0.951  0.1252 -1.2626 -1.2260
 6402TIP3    H219148   0.872   7.636   1.023  0.1265  0.2347 -0.1346
 6403TIP3   OH219149   4.497   6.437   6.060 -0.2035  0.6973  0.4851
 6403TIP3    H119150   4.425   6.447   6.123  0.2955  2.1330  0.8704
 6403TIP3    H219151   4.464   6.373   5.997 -2.0142  1.6415  0.3828
 6404TIP3   OH219152   7.321   4.799   1.350  0.3683  0.3402  0.5427
 6404TIP3    H119153   7.382   4.858   1.394  0.2824  0.2229  0.8248
 6404TIP3    H219154   7.290   4.848   1.274  0.3794  0.6165  0.7144
 6405TIP3   OH219155   1.366   3.987   2.610  0.1222  0.2315 -0.0857
 6405TIP3    H119156   1.379   3.900   2.573 -2.2911 -0.4682  0.5143
 6405TIP3    H219157   1.357   3.972   2.704 -0.8080  1.0394 -0.0272
 6406TIP3   OH219158   2.211   5.113   0.732  0.3834 -0.0601  0.2652
 6406TIP3    H119159   2.160   5.032   0.734 -0.5431  0.4222 -1.3965
 6406TIP3    H219160   2.144   5.182   0.733  1.1068  0.6459  0.3662
 6407TIP3   OH219161   8.254   0.920   6.089 -0.1366  1.0790  0.1537
 6407TIP3    H119162   8.209   0.870   6.022  2.5044  0.7449 -1.5113
 6407TIP3    H219163   8.262   0.859   6.163  1.6109 -0.5320 -1.2548
 6408TIP3   OH219164   3.434   5.070   3.268  0.4755 -0.1104  0.3259
 6408TIP3    H119165   3.447   4.977   3.247  0.7816  0.1562 -0.7061
 6408TIP3    H219166   3.451   5.116   3.186 -0.3694  0.8083  0.6416
 6409TIP3   OH219167   0.575   7.371   3.167  0.0905  1.0685  0.1410
 6409TIP3    H119168   0.534   7.305   3.111 -2.8533  2.0467  0.9135
 6409TIP3    H219169   0.664   7.380   3.134  0.0812 -2.0323 -1.0388
 6410TIP3   OH219170   0.248   3.125   0.047  0.0268  0.7729  0.2427
 6410TIP3    H119171   0.262   3.219   0.060 -2.0764  0.9105  2.1085
 6410TIP3    H219172   0.208   3.095   0.128  1.5232 -1.9961  0.0905
 6411TIP3   OH219173   4.191   0.168   0.621 -0.2182  0.0886  0.6559
 6411TIP3    H119174   4.113   0.195   0.573  0.0575  1.3027  0.8642
 6411TIP3    H219175   4.170   0.185   0.713  0.8655  2.0887  0.6074
 6412TIP3   OH219176   1.949   4.087   3.402  0.2387 -0.3446  0.2606
 6412TIP3    H119177   1.879   4.079   3.338 -0.8141 -0.0605  1.3352
 6412TIP3    H219178   1.903   4.097   3.486  1.5694  0.6622  0.8917
 6413TIP3   OH219179   3.931   7.463   4.835  0.2928  0.4995  0.1478
 6413TIP3    H119180   3.919   7.393   4.899  0.5563  2.9193  3.0689
 6413TIP3    H219181   4.025   7.469   4.823  0.2000 -0.9722 -1.8476
 6414TIP3   OH219182   3.102   0.004   4.214 -0.2704 -0.4554  0.1141
 6414TIP3    H119183   3.173  -0.005   4.278 -0.4754 -0.3009  0.3612
 6414TIP3    H219184   3.138   0.062   4.147 -0.4966  0.3993  0.7202
 6415TIP3   OH219185   2.368   7.170   5.275 -0.3029 -0.2481 -0.0226
 6415TIP3    H119186   2.337   7.117   5.348  0.0155 -1.1156 -0.4975
 6415TIP3    H219187   2.373   7.259   5.310 -0.0447 -0.6647  1.0476
 6416TIP3   OH219188   3.095   1.871   1.856  0.2359  0.2269 -0.3344
 6416TIP3    H119189   3.104   1.866   1.761 -0.8657 -0.8975 -0.4054
 6416TIP3    H219190   3.056   1.787   1.881  1.3022  0.1419  1.2189
 6417TIP3   OH219191   7.935   5.113   1.257 -0.5137  0.5259  0.4795
 6417TIP3    H119192   7.878   5.055   1.308 -0.1756  1.8466  2.4924
 6417TIP3    H219193   7.944   5.191   1.312  1.8562  1.0485 -0.5318
 6418TIP3   OH219194   5.981   4.372   2.226 -0.1059  0.0095 -0.5413
 6418TIP3    H119195   5.913   4.307   2.244  0.3942  0.1411  2.3356
 6418TIP3    H219196   6.047   4.324   2.176 -1.1116 -0.8332 -1.1053
 6419TIP3   OH219197   1.671   0.963   1.550 -0.2176 -0.2541  0.6504
 6419TIP3    H119198   1.622   1.044   1.532 -1.0758 -0.8497  0.2665
 6419TIP3    H219199   1.706   0.975   1.638 -0.6650  0.3708  0.7462
 6420TIP3   OH219200   2.781   0.549   2.997  0.5076 -0.5968 -0.0407
 6420TIP3    H119201   2.853   0.576   2.941  0.7695 -0.9710  0.1140
 6420TIP3    H219202   2.795   0.455   3.010  0.1126 -0.6287  0.1621
 6421TIP3   OH219203   2.004   1.993   1.571  0.8786 -0.1539  0.5986
 6421TIP3    H119204   1.930   2.003   1.631  0.1086 -1.1741 -0.1484
 6421TIP3    H219205   2.042   1.908   1.595  1.7697  0.3192  0.9116
 6422TIP3   OH219206   0.895   5.209   1.143 -0.4601  0.6750 -0.3855
 6422TIP3    H119207   0.938   5.132   1.107 -2.3296  0.1129 -1.5474
 6422TIP3    H219208   0.807   5.180   1.164 -1.3240  2.5599 -1.1831
 6423TIP3   OH219209   7.779   6.506   0.237  0.2672 -0.2581 -0.5152
 6423TIP3    H119210   7.737   6.421   0.249 -0.4916  0.2068  0.1638
 6423TIP3    H219211   7.709   6.570   0.247  1.3686  0.6260  2.3700
 6424TIP3   OH219212   3.692   5.535   1.174 -0.1920 -0.3443  0.3393
 6424TIP3    H119213   3.646   5.612   1.206 -1.0050 -0.3699 -0.7074
 6424TIP3    H219214   3.623   5.480   1.136  0.7166 -0.2315 -1.5847
 6425TIP3   OH219215   3.529   3.914   1.156 -0.2007  0.8020 -0.1071
 6425TIP3    H119216   3.484   3.985   1.110  0.2718  0.5155 -1.0396
 6425TIP3    H219217   3.499   3.834   1.111  3.1916  0.7161 -2.6370
 6426TIP3   OH219218   6.376   1.181   5.642  0.1279 -0.1515  0.3495
 6426TIP3    H119219   6.306   1.238   5.609  0.7929  0.8311  0.5818
 6426TIP3    H219220   6.365   1.182   5.737 -0.4809 -1.2558  0.3030
 6427TIP3   OH219221   7.808   0.338   1.411 -0.1003 -0.3674 -0.1175
 6427TIP3    H119222   7.719   0.340   1.377  0.7162 -1.2231 -2.5033
 6427TIP3    H219223   7.800   0.297   1.497 -1.9910 -0.5750 -0.3555
 6428TIP3   OH219224   7.299   2.411   1.671 -0.2340 -0.4549 -0.2523
 6428TIP3    H119225   7.275   2.501   1.695 -2.2695 -1.0320  0.0755
 6428TIP3    H219226   7.217   2.362   1.677  0.4877 -2.0116 -2.0627
 6429TIP3   OH219227   1.069   2.884   0.291 -0.5245 -0.2398 -0.1868
 6429TIP3    H119228   1.155   2.897   0.332 -0.4517 -1.2581  0.0016
 6429TIP3    H219229   1.088   2.852   0.203 -0.6693  2.4541 -1.3051
 6430TIP3   OH219230   1.623  -0.034   3.784  0.9747  0.1218 -0.4282
 6430TIP3    H119231   1.666   0.051   3.771  1.6829  0.0839  1.3547
 6430TIP3    H219232   1.541  -0.012   3.827  2.3770 -0.1576  2.6746
 6431TIP3   OH219233   0.989   4.023   2.124  0.1299 -0.1298  0.2134
 6431TIP3    H119234   0.945   3.938   2.130 -1.5700  0.6961  0.1544
 6431TIP3    H219235   1.069   4.013   2.175  0.4042 -2.0151 -0.5027
 6432TIP3   OH219236   0.590   2.023   0.358  0.3353 -0.3324 -0.1374
 6432TIP3    H119237   0.629   1.987   0.279 -0.5993 -2.0056  0.1153
 6432TIP3    H219238   0.659   2.016   0.425  0.4519 -0.8430 -0.3109
 6433TIP3   OH219239   6.088   0.237   2.738  0.3793 -0.0931  0.1903
 6433TIP3    H119240   6.121   0.315   2.784 -2.2079  0.2352  1.7561
 6433TIP3    H219241   6.048   0.184   2.807 -0.0926 -1.6298 -1.1900
 6434TIP3   OH219242   2.998   6.661   3.438 -0.0392 -0.0023 -0.0761
 6434TIP3    H119243   2.969   6.691   3.351  3.1338  1.6532 -0.7236
 6434TIP3    H219244   2.989   6.738   3.493 -1.6526 -0.9398  1.0520
 6435TIP3   OH219245   1.294   0.123   2.925  0.2699  0.0654 -0.0798
 6435TIP3    H119246   1.266   0.151   2.837  0.3507  0.0742 -0.1025
 6435TIP3    H219247   1.332   0.202   2.964 -0.2840  0.2114  0.1752
 6436TIP3   OH219248   2.575   4.765   1.529  0.9290 -0.3663  0.0427
 6436TIP3    H119249   2.502   4.745   1.471  1.4037  0.2383 -0.7835
 6436TIP3    H219250   2.611   4.847   1.496  2.4555 -1.0337 -0.0599
 6437TIP3   OH219251   6.349   6.117   5.749 -0.1223  0.7124  0.0718
 6437TIP3    H119252   6.421   6.146   5.693  1.0116 -0.2771  0.9603
 6437TIP3    H219253   6.280   6.089   5.688  2.5604 -4.3350 -1.1617
 6438TIP3   OH219254   3.031   7.034   5.056 -0.4285  0.3091 -0.1192
 6438TIP3    H119255   3.089   7.103   5.087  2.0932 -1.2172 -1.1385
 6438TIP3    H219256   3.002   7.065   4.969  0.0970  0.4044 -0.2629
 6439TIP3   OH219257   4.837   5.473   0.761 -0.2583  0.6250 -0.0526
 6439TIP3    H119258   4.887   5.553   0.775 -0.0758  0.6924 -1.0488
 6439TIP3    H219259   4.903   5.404   0.753 -0.1295  0.9883 -3.3473
 6440TIP3   OH219260   7.520   0.593   6.523 -0.0585  0.2604  0.5513
 6440TIP3    H119261   7.450   0.583   6.586 -0.7526  0.7985 -0.1209
 6440TIP3    H219262   7.598   0.613   6.575 -0.5084  0.1758  1.2582
 6441TIP3   OH219263   7.874   3.423   5.307 -0.0965 -0.2495 -0.3290
 6441TIP3    H119264   7.868   3.428   5.212  2.7253 -1.5476 -0.6736
 6441TIP3    H219265   7.888   3.330   5.325  0.2568  0.0869  1.2843
 6442TIP3   OH219266   6.760   1.349   4.486  0.1224 -0.2102 -0.2567
 6442TIP3    H119267   6.731   1.440   4.481  1.2107  0.1493 -0.4311
 6442TIP3    H219268   6.821   1.340   4.413 -0.3825 -1.2403 -0.5609
 6443TIP3   OH219269   3.667   2.145   5.361  0.0741  0.1856 -0.4731
 6443TIP3    H119270   3.593   2.092   5.390 -0.0077 -1.1867 -2.9564
 6443TIP3    H219271   3.712   2.168   5.442 -1.3823 -1.4662  0.8996
 6444TIP3   OH219272   6.459   3.459   2.013  0.1133 -0.1696  0.1391
 6444TIP3    H119273   6.451   3.383   2.071  1.5194 -1.5465 -1.3721
 6444TIP3    H219274   6.512   3.521   2.064  1.5157 -1.4381  0.3029
 6445TIP3   OH219275   8.364   3.083   1.876  0.4933 -0.1953  0.0071
 6445TIP3    H119276   8.359   3.001   1.926 -0.2789  0.8052  1.6437
 6445TIP3    H219277   8.375   3.151   1.942 -3.4215  1.5438 -0.8378
 6446TIP3   OH219278   3.460   6.923   5.459 -0.2887  0.2125 -0.0392
 6446TIP3    H119279   3.537   6.956   5.413 -0.2637  1.3784  0.7770
 6446TIP3    H219280   3.389   6.932   5.396  0.1110 -0.2415 -0.5678
 6447TIP3   OH219281   4.756   3.378   3.663  0.3406  0.6126  0.0697
 6447TIP3    H119282   4.709   3.461   3.653 -0.0574  0.4303  0.3876
 6447TIP3    H219283   4.795   3.383   3.750  0.2918  0.4537  0.1006
 6448TIP3   OH219284   7.147   1.124   1.566 -0.5243  0.0192 -0.1977
 6448TIP3    H119285   7.208   1.124   1.492  1.2726 -1.5226  1.1687
 6448TIP3    H219286   7.174   1.198   1.620  0.0588 -0.5582  0.3189
 6449TIP3   OH219287   4.262   1.359   2.638 -0.1680 -0.0211  0.8692
 6449TIP3    H119288   4.257   1.272   2.598  2.3459  0.7204 -1.2938
 6449TIP3    H219289   4.279   1.418   2.565 -0.9066  2.2277  2.4015
 6450TIP3   OH219290   7.945   4.443   2.439  0.2786  0.5461 -0.0683
 6450TIP3    H119291   7.920   4.534   2.456 -0.5489  0.3396 -0.1601
 6450TIP3    H219292   7.908   4.393   2.511  0.3729  0.2254 -0.2389
 6451TIP3   OH219293   2.399   5.745   1.726 -0.1940 -0.4409 -0.2184
 6451TIP3    H119294   2.356   5.696   1.797 -0.3955 -1.1375 -0.8088
 6451TIP3    H219295   2.328   5.788   1.680  0.1028  1.9371  1.3602
 6452TIP3   OH219296   2.255   0.195   3.200 -0.2605 -0.2584  0.2033
 6452TIP3    H119297   2.287   0.259   3.264  1.7060 -1.5210  0.5734
 6452TIP3    H219298   2.193   0.141   3.249 -0.9467  0.5499  0.2382
 6453TIP3   OH219299   7.541   1.343   5.649  0.2067 -0.8030  0.2215
 6453TIP3    H119300   7.579   1.331   5.563 -0.0782  1.9533 -0.3894
 6453TIP3    H219301   7.454   1.304   5.643  0.0890 -0.3986 -0.8448
 6454TIP3   OH219302   4.998   0.082   2.685  0.1840  0.6698 -0.1143
 6454TIP3    H119303   4.922   0.133   2.714 -0.7564 -0.1473 -1.0809
 6454TIP3    H219304   5.033   0.045   2.766 -1.1340  0.1404  0.2477
 6455TIP3   OH219305   0.012   5.809   1.072  0.0230  0.0600  0.1771
 6455TIP3    H119306   0.017   5.752   1.148  2.4406  1.4292  1.1490
 6455TIP3    H219307   0.050   5.758   1.001 -0.2693 -0.4508  0.3804
 6456TIP3   OH219308   0.101   3.254   1.423 -0.1552  0.4127 -0.6155
 6456TIP3    H119309   0.086   3.337   1.378  0.8331 -0.7660 -3.2690
 6456TIP3    H219310   0.100   3.188   1.354  1.4316 -1.5368  1.0911
 6457TIP3   OH219311   1.659   3.746   3.974  0.2373  0.3471 -0.0061
 6457TIP3    H119312   1.678   3.713   4.062 -0.2308 -0.5558 -0.2226
 6457TIP3    H219313   1.563   3.756   3.973 -0.0720 -2.0542 -1.1773
 6458TIP3   OH219314   5.737   4.549   0.962  0.0987  0.0585  0.5790
 6458TIP3    H119315   5.704   4.521   1.048 -3.5917  0.4355 -0.5524
 6458TIP3    H219316   5.720   4.644   0.961 -3.5921 -0.4085 -1.7735
 6459TIP3   OH219317   1.923   3.899   4.302 -0.0065 -0.2706  0.0381
 6459TIP3    H119318   1.979   3.898   4.225  1.0231 -0.5218  0.7750
 6459TIP3    H219319   1.857   3.831   4.285 -0.1970  0.1222 -0.8897
 6460TIP3   OH219320   6.859   3.167   3.870 -0.2821  0.0843 -0.0917
 6460TIP3    H119321   6.814   3.116   3.803  0.2995 -2.5309  1.3528
 6460TIP3    H219322   6.945   3.185   3.833 -1.1300  1.8267 -1.3734
 6461TIP3   OH219323   7.951   4.954   2.650  0.5306 -0.4908  0.2461
 6461TIP3    H119324   7.936   5.031   2.596 -1.1231  0.1762  1.5667
 6461TIP3    H219325   7.974   4.989   2.736  2.0852 -1.5169  0.2750
 6462TIP3   OH219326   4.039   4.990   5.927  0.0981  0.4973 -0.1880
 6462TIP3    H119327   4.118   4.959   5.882  0.5884 -0.3810  1.2011
 6462TIP3    H219328   3.993   5.042   5.862  2.3891  2.0134 -0.7091
 6463TIP3   OH219329   3.427   5.408   4.555 -0.0716 -0.1815 -0.1624
 6463TIP3    H119330   3.447   5.479   4.616 -0.1794  0.0231 -0.3611
 6463TIP3    H219331   3.502   5.406   4.496  0.8818 -1.5497  1.0250
 6464TIP3   OH219332   8.056   1.404   0.358 -0.5526 -0.5590 -0.0881
 6464TIP3    H119333   8.073   1.316   0.391  0.8424 -0.5379 -0.6781
 6464TIP3    H219334   8.094   1.404   0.270 -1.6487  0.2604 -0.5812
 6465TIP3   OH219335   2.704   0.692   5.769 -0.1332 -0.1631  0.3934
 6465TIP3    H119336   2.784   0.744   5.773  0.4902 -1.1422  1.2912
 6465TIP3    H219337   2.735   0.601   5.760 -1.1793 -0.4387 -0.6930
 6466TIP3   OH219338   6.010   0.102   5.944 -0.0691  0.8250 -0.5602
 6466TIP3    H119339   6.057   0.021   5.966 -1.2220  0.4205  0.5693
 6466TIP3    H219340   6.053   0.169   5.998 -1.1011  0.3461  0.9390
 6467TIP3   OH219341   6.337   4.525   5.967 -0.1952 -0.4478  0.6622
 6467TIP3    H119342   6.419   4.512   6.014  0.2618  0.4151  0.1331
 6467TIP3    H219343   6.318   4.440   5.927  0.9349 -0.4214  0.0167
 6468TIP3   OH219344   7.660   0.973   1.314  0.0020 -0.0959 -0.3322
 6468TIP3    H119345   7.568   0.979   1.290  0.3304  1.9785 -1.3776
 6468TIP3    H219346   7.691   0.894   1.271 -1.1525 -0.4940 -0.4714
 6469TIP3   OH219347   0.580   4.032   2.222  0.1066 -0.0799  0.6264
 6469TIP3    H119348   0.615   4.102   2.167  0.8159 -1.2501 -0.4830
 6469TIP3    H219349   0.509   4.073   2.271  0.1101  1.2660 -0.4289
 6470TIP3   OH219350   7.443   2.440   5.647  0.0422 -0.4027  0.0606
 6470TIP3    H119351   7.438   2.417   5.740  1.5728  0.3751  0.3723
 6470TIP3    H219352   7.416   2.531   5.644  0.4495 -0.2895 -0.1872
 6471TIP3   OH219353   0.376   6.855   2.515 -0.3891  0.5431 -0.0618
 6471TIP3    H119354   0.362   6.798   2.591  0.3907  0.6587  0.1754
 6471TIP3    H219355   0.468   6.842   2.493 -0.9540 -0.6775 -1.9515
 6472TIP3   OH219356   4.829   7.117   1.661  0.1215  0.4049  0.3079
 6472TIP3    H119357   4.880   7.185   1.705 -0.8222  1.3092  0.0572
 6472TIP3    H219358   4.882   7.038   1.670  0.9558  1.0280  1.1663
 6473TIP3   OH219359   3.640   3.117   5.114  0.3314  0.7119  0.2191
 6473TIP3    H119360   3.577   3.046   5.113 -1.1837  1.9749  1.3303
 6473TIP3    H219361   3.720   3.079   5.078 -0.7670 -1.1994 -0.3085
 6474TIP3   OH219362   7.989  -0.012   5.048 -0.3398  0.1248 -0.3041
 6474TIP3    H119363   8.078  -0.020   5.015 -0.9420  0.5641 -2.1748
 6474TIP3    H219364   7.986   0.074   5.090  0.2119 -0.0570  0.1091
 6475TIP3   OH219365   4.832   6.949   5.470  0.1649  0.0073 -0.0615
 6475TIP3    H119366   4.847   6.908   5.555  1.4348  0.7209  0.0881
 6475TIP3    H219367   4.859   7.040   5.483  2.3128 -0.3047 -1.7199
 6476TIP3   OH219368   2.856   3.781   3.734 -0.0235  0.2811  0.6914
 6476TIP3    H119369   2.804   3.721   3.681  1.5096 -0.5616  0.0834
 6476TIP3    H219370   2.889   3.846   3.672 -2.8192  2.7257  1.5411
 6477TIP3   OH219371   0.564   0.915   6.239  0.2260 -0.9839 -0.0041
 6477TIP3    H119372   0.485   0.864   6.221 -0.4962  0.6976 -1.8086
 6477TIP3    H219373   0.609   0.922   6.155  0.6363  0.7794  0.3145
 6478TIP3   OH219374   7.820   4.361   4.133  0.2368  1.0011  1.1564
 6478TIP3    H119375   7.837   4.267   4.121 -1.3178  0.7398  0.7195
 6478TIP3    H219376   7.809   4.372   4.227 -3.0011  0.0249  1.0023
 6479TIP3   OH219377   7.450   0.972   3.251  0.3376 -0.3062  0.1884
 6479TIP3    H119378   7.386   0.926   3.197 -0.5066  2.0290 -0.9278
 6479TIP3    H219379   7.534   0.937   3.223 -0.2636 -1.3426 -0.3900
 6480TIP3   OH219380   3.956   2.650   0.033  0.6586 -0.3797 -0.3962
 6480TIP3    H119381   4.033   2.654   0.090 -0.0938 -1.1583  0.7277
 6480TIP3    H219382   3.882   2.659   0.093 -0.1496 -0.3620 -1.3684
 6481TIP3   OH219383   0.647   2.921   3.242 -0.9508  0.1754 -0.5203
 6481TIP3    H119384   0.598   2.859   3.189 -0.9609  0.4755 -0.8667
 6481TIP3    H219385   0.599   2.925   3.325 -1.6850  0.6857 -0.9588
 6482TIP3   OH219386   4.591   3.641   2.319 -0.2004  0.1664 -0.2591
 6482TIP3    H119387   4.505   3.622   2.283 -0.2110 -3.0252  1.1252
 6482TIP3    H219388   4.651   3.585   2.271  1.1024  1.9937 -0.8729
 6483TIP3   OH219389   6.224   2.705   4.164  0.3824  0.1583  0.4993
 6483TIP3    H119390   6.228   2.698   4.260  2.6423  0.7206  0.5061
 6483TIP3    H219391   6.269   2.786   4.144  2.4371 -1.2880 -1.1758
 6484TIP3   OH219392   5.038   4.895   2.251 -0.5752 -0.1048  0.1354
 6484TIP3    H119393   4.978   4.863   2.184 -1.4411 -1.0656  1.3202
 6484TIP3    H219394   5.084   4.969   2.210 -1.8229 -0.0109 -1.1385
 6485TIP3   OH219395   2.444   7.278   6.852 -0.3787  0.3620  0.1777
 6485TIP3    H119396   2.359   7.235   6.853 -0.2834  0.0831  2.1779
 6485TIP3    H219397   2.504   7.213   6.888  0.7912  0.4171 -1.5609
 6486TIP3   OH219398   2.477   4.260   6.598 -0.0996 -0.2633 -0.1573
 6486TIP3    H119399   2.555   4.224   6.555 -0.9446 -0.5149 -1.5357
 6486TIP3    H219400   2.504   4.273   6.689  2.2019  1.5179 -0.9726
 6487TIP3   OH219401   1.861   5.078   1.633 -0.0445  0.6067  0.1398
 6487TIP3    H119402   1.938   5.135   1.638 -0.8699  1.8147 -0.4125
 6487TIP3    H219403   1.819   5.088   1.718  0.2491  0.1711  0.3383
 6488TIP3   OH219404   1.955   5.442   6.888 -0.2716 -0.1287  0.5365
 6488TIP3    H119405   2.039   5.479   6.863 -0.4893  0.2624  0.3772
 6488TIP3    H219406   1.900   5.451   6.811 -0.7667  0.5469  0.9604
 6489TIP3   OH219407   7.639   3.835   3.198 -0.0002  0.5440  0.2043
 6489TIP3    H119408   7.647   3.872   3.286 -2.3113 -0.5978  0.9544
 6489TIP3    H219409   7.575   3.891   3.154  0.1592  0.3258 -0.3141
 6490TIP3   OH219410   3.021   2.151   2.048  0.2209 -0.0436 -0.2102
 6490TIP3    H119411   3.048   2.074   1.998 -0.0795 -0.8411  0.8217
 6490TIP3    H219412   3.100   2.178   2.094 -0.2631 -1.3431  1.4697
 6491TIP3   OH219413   0.960   1.719   6.783  0.5568 -0.1483 -0.0969
 6491TIP3    H119414   0.979   1.642   6.730 -0.5847 -1.3685  1.1895
 6491TIP3    H219415   0.928   1.784   6.720 -0.4934 -1.4512 -0.9812
 6492TIP3   OH219416   6.591   2.683   5.194  0.2233  0.0722  0.2963
 6492TIP3    H119417   6.629   2.604   5.155  0.0190 -0.6816  1.5553
 6492TIP3    H219418   6.622   2.754   5.139  3.0824 -0.5539  0.9506
 6493TIP3   OH219419   5.263   1.175   6.088 -0.2821 -0.3653 -0.4715
 6493TIP3    H119420   5.229   1.264   6.075 -0.3065 -0.3650 -0.4097
 6493TIP3    H219421   5.300   1.177   6.177  0.0373 -0.3148 -0.6018
 6494TIP3   OH219422   1.566   2.142   3.158  0.1980  0.2433  0.3418
 6494TIP3    H119423   1.644   2.164   3.108  1.0025 -0.1209  1.4197
 6494TIP3    H219424   1.571   2.047   3.169 -0.6641  0.1477 -0.0061
 6495TIP3   OH219425   4.648   7.937   5.842  0.7329 -0.0164  0.0769
 6495TIP3    H119426   4.681   7.889   5.919  1.2768 -0.1939 -0.2591
 6495TIP3    H219427   4.721   7.934   5.780  0.4499  0.4965 -0.2826
 6496TIP3   OH219428   4.777   1.665   5.466  0.0736 -0.0900  0.4124
 6496TIP3    H119429   4.719   1.723   5.515 -0.3082 -1.2274  1.3569
 6496TIP3    H219430   4.812   1.604   5.532 -1.2935 -2.3739 -0.8409
 6497TIP3   OH219431   3.195   2.701   5.472 -0.1997 -0.3145  0.1968
 6497TIP3    H119432   3.215   2.763   5.542  0.2825  0.3382 -0.4927
 6497TIP3    H219433   3.274   2.700   5.417 -0.7470 -0.4031 -0.6170
 6498TIP3   OH219434   3.872   4.174   0.170 -0.0653 -0.2530 -0.4678
 6498TIP3    H119435   3.903   4.195   0.258  0.3953 -0.5545 -0.5569
 6498TIP3    H219436   3.809   4.243   0.150  1.0191  0.7404 -0.5516
 6499TIP3   OH219437   4.029   2.260   0.566 -0.0399 -0.5466 -0.1518
 6499TIP3    H119438   3.940   2.235   0.592  0.5110 -1.2758  1.1178
 6499TIP3    H219439   4.080   2.255   0.647  1.1340 -0.0011 -0.8327
 6500TIP3   OH219440   6.379   7.237   0.633  0.7698 -0.6223 -0.4876
 6500TIP3    H119441   6.368   7.255   0.539  1.9101 -0.2227 -0.5528
 6500TIP3    H219442   6.444   7.301   0.662 -1.9436  1.5706  1.3098
 6501TIP3   OH219443   7.515   5.897   0.350 -0.8506  0.4410  0.0585
 6501TIP3    H119444   7.546   5.972   0.400 -1.8763  1.5194 -0.8419
 6501TIP3    H219445   7.594   5.847   0.329 -0.0743  1.5894  0.1876
 6502TIP3   OH219446   3.561   4.730   6.679  0.2832 -0.4581 -0.2202
 6502TIP3    H119447   3.480   4.681   6.666  0.1677  0.0712 -1.6948
 6502TIP3    H219448   3.610   4.718   6.598  0.0832  2.1421 -0.8112
 6503TIP3   OH219449   2.218   5.932   0.990 -0.1634 -0.3072 -0.1528
 6503TIP3    H119450   2.180   5.925   0.903 -3.5878  1.5606  1.0108
 6503TIP3    H219451   2.266   6.015   0.989  0.2461 -0.5430 -0.3805
 6504TIP3   OH219452   4.174   7.472   3.259 -0.0862 -0.4211  0.5023
 6504TIP3    H119453   4.230   7.531   3.209 -0.9435 -0.3856 -0.4715
 6504TIP3    H219454   4.115   7.530   3.307  1.0718 -0.4406  2.0283
 6505TIP3   OH219455   7.518   4.879   4.997 -0.0252 -0.0762  0.2347
 6505TIP3    H119456   7.559   4.837   4.921  0.1044  0.0523  0.2319
 6505TIP3    H219457   7.441   4.922   4.961 -0.1006 -0.2249  0.2190
 6506TIP3   OH219458   6.080   5.767   3.274 -0.1968  0.5001 -0.1259
 6506TIP3    H119459   6.153   5.766   3.212 -0.2862 -0.5107 -0.2436
 6506TIP3    H219460   6.106   5.828   3.342  1.1728 -0.5238  0.3111
 6507TIP3   OH219461   0.729   5.178   3.167  0.1056 -0.2825  0.2615
 6507TIP3    H119462   0.729   5.235   3.090  0.8529 -1.4766 -0.6573
 6507TIP3    H219463   0.660   5.114   3.151 -1.2446  0.7345  1.6336
 6508TIP3   OH219464   2.006   2.126   0.143 -0.3815  0.3737 -0.0045
 6508TIP3    H119465   2.029   2.035   0.123 -1.7559 -0.1617  0.7238
 6508TIP3    H219466   2.020   2.173   0.061 -1.6237 -0.9022 -1.0001
 6509TIP3   OH219467   2.856   6.543   0.300  0.1623 -0.4668  0.1594
 6509TIP3    H119468   2.872   6.583   0.386 -0.4437 -1.4367  0.7463
 6509TIP3    H219469   2.791   6.475   0.317 -0.7853  0.0323 -1.2639
 6510TIP3   OH219470   5.319   5.349   0.330  0.0413  0.3725 -0.3974
 6510TIP3    H119471   5.389   5.311   0.383 -0.6828  0.0027  0.3156
 6510TIP3    H219472   5.303   5.283   0.262 -1.2423 -0.7032  0.8618
 6511TIP3   OH219473   1.596   6.350   0.944 -0.4870 -0.1403  0.5630
 6511TIP3    H119474   1.591   6.275   1.003  0.7670 -0.9239 -0.2501
 6511TIP3    H219475   1.631   6.421   0.997 -0.8329 -0.3933  1.1280
 6512TIP3   OH219476   8.292   1.805   5.449  0.4730 -0.1190 -0.1569
 6512TIP3    H119477   8.380   1.841   5.459 -0.3496  1.6548  1.1692
 6512TIP3    H219478   8.239   1.877   5.415 -0.8668 -0.5112  0.9547
 6513TIP3   OH219479   0.712   3.165   5.131 -0.7675  0.0993  0.0980
 6513TIP3    H119480   0.706   3.250   5.088 -1.4229 -0.0617 -0.1440
 6513TIP3    H219481   0.719   3.185   5.224 -2.1652  0.3950  0.1486
 6514TIP3   OH219482   3.073   0.548   2.175 -0.5031 -0.0882 -0.3543
 6514TIP3    H119483   3.107   0.544   2.265 -0.1633 -0.8208 -0.5103
 6514TIP3    H219484   3.122   0.620   2.134  0.6735 -0.9307 -0.4866
 6515TIP3   OH219485   6.814   3.849   6.832  0.2339  0.1701 -0.1011
 6515TIP3    H119486   6.793   3.920   6.771 -0.6656  0.2759  0.3016
 6515TIP3    H219487   6.737   3.792   6.829  0.2599  0.0771  0.7742
 6516TIP3   OH219488   5.168   4.348   0.995 -0.4860  0.6612 -0.4873
 6516TIP3    H119489   5.192   4.256   0.988 -0.5749  0.6548 -0.7115
 6516TIP3    H219490   5.248   4.392   1.024 -0.4369  0.5182 -0.4041
 6517TIP3   OH219491   3.755   6.473   0.874 -0.3466 -1.0242 -0.0679
 6517TIP3    H119492   3.787   6.391   0.913  0.8218 -0.7295 -0.3676
 6517TIP3    H219493   3.712   6.446   0.793  1.4574 -1.2412 -1.0094
 6518TIP3   OH219494   3.198   4.394   6.818 -0.5954 -0.4752  0.7342
 6518TIP3    H119495   3.279   4.351   6.845 -0.4425 -0.7809 -0.1674
 6518TIP3    H219496   3.152   4.328   6.765 -1.8828 -0.6329  1.9890
 6519TIP3   OH219497   7.168   4.285   3.638 -0.6820 -0.5782 -0.1493
 6519TIP3    H119498   7.087   4.276   3.689 -1.6446 -2.0029 -1.7989
 6519TIP3    H219499   7.153   4.231   3.560  1.1857  0.5387 -1.3647
 6520TIP3   OH219500   3.419   0.584   0.485  0.0430 -0.1085  0.2456
 6520TIP3    H119501   3.353   0.520   0.459 -0.1781  0.3023 -0.2040
 6520TIP3    H219502   3.457   0.548   0.566 -0.1770 -0.7330  0.0702
 6521TIP3   OH219503   2.093   6.537   6.269 -0.6352  0.1986 -0.3566
 6521TIP3    H119504   2.016   6.565   6.318 -0.2984  0.8539 -0.1899
 6521TIP3    H219505   2.073   6.560   6.178 -0.5337  0.6053 -0.2781
 6522TIP3   OH219506   2.591   2.202   0.888  0.1662 -0.2463 -0.0392
 6522TIP3    H119507   2.668   2.182   0.835  1.2896  0.3554  1.2838
 6522TIP3    H219508   2.601   2.295   0.909 -1.4874  0.1088 -0.6964
 6523TIP3   OH219509   3.207   4.107   2.896  0.3188  0.3345 -0.0919
 6523TIP3    H119510   3.185   4.150   2.978  0.9384 -0.6334  0.6090
 6523TIP3    H219511   3.291   4.146   2.870 -0.2058  1.1258 -0.6367
 6524TIP3   OH219512   0.161   7.788   3.235  0.3542  0.8195 -0.0180
 6524TIP3    H119513   0.164   7.736   3.315 -0.2763  0.3978 -0.2618
 6524TIP3    H219514   0.222   7.860   3.251  0.4031  0.6143  0.7489
 6525TIP3   OH219515   5.857   7.376   2.173  0.1031 -0.2463 -0.6813
 6525TIP3    H119516   5.914   7.370   2.097 -0.5013 -1.0905 -1.0777
 6525TIP3    H219517   5.772   7.405   2.139 -0.2176 -0.7811 -0.3627
 6526TIP3   OH219518   3.371   1.160   1.556  0.1198  0.0652  0.3226
 6526TIP3    H119519   3.365   1.247   1.594 -0.7536 -0.5617  1.6798
 6526TIP3    H219520   3.289   1.148   1.508  0.7540  0.4351 -0.8871
 6527TIP3   OH219521   3.433   1.430   0.992 -0.3576  0.4343 -0.3975
 6527TIP3    H119522   3.360   1.463   1.044 -1.2498  0.0574 -1.3794
 6527TIP3    H219523   3.392   1.380   0.922  0.8146  0.8765 -1.4309
 6528TIP3   OH219524   7.760   7.873   1.492 -0.2808 -0.6854 -0.3048
 6528TIP3    H119525   7.783   7.915   1.408  0.8722 -2.3839 -0.8895
 6528TIP3    H219526   7.840   7.880   1.544 -0.4516 -1.1273  0.0223
 6529TIP3   OH219527   6.012   3.642   2.071 -0.1744  0.1534 -0.2202
 6529TIP3    H119528   6.057   3.573   2.119 -2.0873 -1.7871 -1.0862
 6529TIP3    H219529   5.977   3.699   2.139 -0.2565 -0.8404  0.5942
 6530TIP3   OH219530   3.036   0.477   2.906 -0.8130  0.1105  0.2246
 6530TIP3    H119531   3.000   0.403   2.858  1.2184  0.5241 -2.1200
 6530TIP3    H219532   3.107   0.439   2.958 -0.1630  0.2876 -0.5164
 6531TIP3   OH219533   3.036   0.369   3.444 -0.3562 -0.3972  0.6188
 6531TIP3    H119534   3.091   0.367   3.522  0.2926 -0.2718  0.1692
 6531TIP3    H219535   3.094   0.345   3.372 -0.9985 -0.7316  0.1965
 6532TIP3   OH219536   7.948   2.734   0.288  0.3831  0.5332  0.4114
 6532TIP3    H119537   8.006   2.808   0.271 -1.0590  1.4525 -0.7818
 6532TIP3    H219538   7.996   2.679   0.350  0.7603  3.4109  2.9122
 6533TIP3   OH219539   6.486   6.161   4.707 -0.0248  0.1239 -0.2540
 6533TIP3    H119540   6.493   6.222   4.634 -0.8863  0.8105  0.2239
 6533TIP3    H219541   6.555   6.187   4.767  0.3559 -0.1199 -0.5775
 6534TIP3   OH219542   4.402   1.057   5.157  0.0505 -0.2815  0.0349
 6534TIP3    H119543   4.350   1.093   5.086  0.2120 -1.8794 -0.9351
 6534TIP3    H219544   4.342   1.055   5.232 -0.1806  1.2159 -0.0716
 6535TIP3   OH219545   6.658   2.693   5.450 -0.0248  0.4238 -0.1409
 6535TIP3    H119546   6.624   2.778   5.422  1.5767  1.0277 -0.3590
 6535TIP3    H219547   6.650   2.637   5.373 -2.2490 -0.0398  0.3617
 6536TIP3   OH219548   0.851   6.262   4.770 -0.5827  0.1577 -0.4452
 6536TIP3    H119549   0.800   6.327   4.819  1.1895  0.9692  0.4311
 6536TIP3    H219550   0.862   6.189   4.832  1.5577  1.1338  0.4256
 6537TIP3   OH219551   6.005   4.328   0.562  0.7783 -0.2307  0.0140
 6537TIP3    H119552   5.958   4.410   0.576  0.8352 -0.0928 -0.5862
 6537TIP3    H219553   5.935   4.263   0.550  0.7355 -0.2304  0.2528
 6538TIP3   OH219554   5.976   6.917   6.180  0.3285  0.2118  0.4024
 6538TIP3    H119555   5.981   7.012   6.171  2.2612  0.0809 -0.3587
 6538TIP3    H219556   6.041   6.896   6.247 -1.2242 -0.4730  1.7598
 6539TIP3   OH219557   7.452   3.234   3.501 -0.3759 -0.1353  0.3529
 6539TIP3    H119558   7.435   3.314   3.551 -1.6471  0.3436 -0.7805
 6539TIP3    H219559   7.428   3.163   3.561 -0.5618  0.3728  0.8969
 6540TIP3   OH219560   6.065   7.140   4.297 -0.1323 -0.2284  0.0648
 6540TIP3    H119561   5.996   7.111   4.238  0.3728  0.4076 -0.8620
 6540TIP3    H219562   6.025   7.140   4.383 -1.2924  0.1563 -0.4606
 6541TIP3   OH219563   4.799   5.139   1.709  0.5795 -0.0080  0.2418
 6541TIP3    H119564   4.857   5.151   1.783  1.3978 -0.0760 -0.3754
 6541TIP3    H219565   4.721   5.097   1.746  0.3494  1.3097  1.3005
 6542TIP3   OH219566   4.606   4.173   3.796  0.5096  0.2627  0.0849
 6542TIP3    H119567   4.542   4.139   3.858 -0.5710  0.2302 -0.9951
 6542TIP3    H219568   4.635   4.256   3.833  1.2447 -0.5818  1.4957
 6543TIP3   OH219569   4.078   0.071   3.834 -0.0931  0.0721 -0.2442
 6543TIP3    H119570   4.145   0.052   3.900  0.3952 -2.7219 -1.4017
 6543TIP3    H219571   4.000   0.025   3.864 -0.8618  1.4946 -0.0076
 6544TIP3   OH219572   5.647   4.177   5.106  0.4568 -0.0085 -0.7306
 6544TIP3    H119573   5.633   4.269   5.080  2.2541  0.9684  1.3933
 6544TIP3    H219574   5.598   4.167   5.187  0.3518 -0.9183 -0.8979
 6545TIP3   OH219575   1.902   5.558   0.049  0.4356 -0.0365 -0.2178
 6545TIP3    H119576   1.887   5.575   0.142  1.0412 -0.8799  0.0525
 6545TIP3    H219577   1.833   5.497   0.024  1.7035 -1.7773  0.3371
 6546TIP3   OH219578   2.132   4.237   5.519 -0.1007  0.2009 -0.0189
 6546TIP3    H119579   2.147   4.325   5.554 -1.8739  0.7064 -0.4193
 6546TIP3    H219580   2.112   4.183   5.596  1.2702  0.0606  0.2575
 6547TIP3   OH219581   2.343   1.165   0.936  0.2881  0.5651  0.6452
 6547TIP3    H119582   2.388   1.092   0.978 -0.2966  0.5548  1.2610
 6547TIP3    H219583   2.316   1.131   0.851 -0.1423  0.0074  1.0013
 6548TIP3   OH219584   0.069   7.293   3.142 -0.1654 -0.5459 -0.1882
 6548TIP3    H119585  -0.001   7.354   3.164  0.3245  0.3064 -0.9171
 6548TIP3    H219586   0.026   7.224   3.092 -0.4891 -0.0155 -0.6475
 6549TIP3   OH219587   4.695   3.534   0.304  0.5307 -0.2948 -0.2252
 6549TIP3    H119588   4.763   3.601   0.302 -0.2041  0.5110  0.8414
 6549TIP3    H219589   4.635   3.559   0.234  0.2445  0.1784  0.1875
 6550TIP3   OH219590   0.078   7.372   2.211 -0.2027 -0.5897 -0.1370
 6550TIP3    H119591   0.144   7.417   2.158 -0.0182 -0.6668  0.0226
 6550TIP3    H219592   0.002   7.430   2.210  0.3409  0.1685  0.8074
 6551TIP3   OH219593   6.487   0.146   1.922  0.6877 -0.0391  0.1040
 6551TIP3    H119594   6.501   0.237   1.897  1.3917 -0.1600  0.0314
 6551TIP3    H219595   6.575   0.113   1.941  0.6882 -1.2303 -1.7104
 6552TIP3   OH219596   8.193   0.060   3.525 -0.6122  0.0137  0.5935
 6552TIP3    H119597   8.183   0.053   3.430 -1.3275  0.4117  0.6312
 6552TIP3    H219598   8.282   0.027   3.542 -0.1700  0.6904 -0.3001
 6553TIP3   OH219599   0.108   6.198   0.334  0.3468  0.3182 -0.4154
 6553TIP3    H119600   0.165   6.222   0.260  0.2649  0.2928 -0.4862
 6553TIP3    H219601   0.054   6.127   0.301 -0.2387  0.8319 -0.5792
 6554TIP3   OH219602   7.534   3.858   5.924 -0.3921  0.0141  0.7134
 6554TIP3    H119603   7.459   3.917   5.931 -1.5000 -1.3619  0.8813
 6554TIP3    H219604   7.555   3.858   5.830 -0.7834  0.1981  0.6222
 6555TIP3   OH219605   7.615   4.356   3.201  0.4269 -0.5259 -0.5723
 6555TIP3    H119606   7.587   4.320   3.286  1.9896 -0.6342 -0.0789
 6555TIP3    H219607   7.574   4.442   3.198 -0.6322 -0.9973 -0.2635
 6556TIP3   OH219608   4.486   0.021   2.352  0.5519 -0.2486  0.3789
 6556TIP3    H119609   4.560  -0.035   2.376 -0.5786 -1.8259  0.3420
 6556TIP3    H219610   4.504   0.105   2.396  1.7818 -0.9546  1.2946
 6557TIP3   OH219611   4.975   6.497   5.285 -0.3692  0.0470 -0.3131
 6557TIP3    H119612   4.949   6.559   5.218 -1.1657  0.2159  0.1448
 6557TIP3    H219613   4.983   6.549   5.365 -1.5259 -0.5093  0.1835
 6558TIP3   OH219614   0.865   0.619   1.292 -0.1438  0.0869 -0.0145
 6558TIP3    H119615   0.884   0.585   1.205  0.1320  0.8403 -0.2585
 6558TIP3    H219616   0.793   0.681   1.278 -0.4525 -0.1740  0.3794
 6559TIP3   OH219617   2.720   2.351   1.163  0.4242 -0.2652 -0.1006
 6559TIP3    H119618   2.709   2.329   1.255 -3.3353 -1.1118 -0.5889
 6559TIP3    H219619   2.703   2.446   1.158 -1.2551 -0.5268 -0.0568
 6560TIP3   OH219620   7.495   4.594   3.212 -0.8497 -0.5749  0.5362
 6560TIP3    H119621   7.513   4.632   3.126  1.5491 -0.6905  0.9328
 6560TIP3    H219622   7.404   4.618   3.230 -0.5891  1.7745 -0.8637
 6561TIP3   OH219623   5.273   1.177   4.134  0.2046  0.1338 -0.3447
 6561TIP3    H119624   5.249   1.268   4.149 -0.3298 -0.2144  1.0314
 6561TIP3    H219625   5.343   1.181   4.068 -1.1475  1.3882 -1.7799
 6562TIP3   OH219626   2.912   5.995   4.342 -0.2714 -0.2655  0.3141
 6562TIP3    H119627   2.878   5.907   4.361  0.5091 -0.2593  1.9635
 6562TIP3    H219628   2.859   6.053   4.397  0.0116  0.1581  0.1430
 6563TIP3   OH219629   3.774   3.303   0.824 -0.1306  0.0601  0.3662
 6563TIP3    H119630   3.827   3.382   0.815  0.8396 -0.3807  1.8465
 6563TIP3    H219631   3.795   3.270   0.911 -3.2297  0.1285  1.2780
 6564TIP3   OH219632   8.001   0.217   4.268  0.4433 -0.1294  0.3055
 6564TIP3    H119633   7.980   0.139   4.217  2.9550 -0.5144 -0.2684
 6564TIP3    H219634   7.945   0.285   4.232 -0.2814 -1.1890 -0.6375
 6565TIP3   OH219635   0.574   0.414   6.328  0.3028  0.3355 -0.0093
 6565TIP3    H119636   0.621   0.332   6.315 -0.0430 -0.1919  1.7547
 6565TIP3    H219637   0.605   0.446   6.413 -1.5857  0.5851  0.6467
 6566TIP3   OH219638   0.989   6.366   3.404  0.3667  0.2644 -0.0687
 6566TIP3    H119639   0.986   6.426   3.329 -0.6734  1.4225  0.8856
 6566TIP3    H219640   1.081   6.339   3.408  0.6648  1.0600 -1.0748
 6567TIP3   OH219641   8.116   0.627   4.472 -0.6812  0.0675 -0.0297
 6567TIP3    H119642   8.117   0.691   4.543 -0.0449  0.6696 -0.5604
 6567TIP3    H219643   8.142   0.545   4.513 -1.0690  0.2383  0.5751
 6568TIP3   OH219644   2.444   1.280   1.657 -0.5245  0.1327 -0.3310
 6568TIP3    H119645   2.509   1.343   1.625 -0.4557  0.8325  1.1157
 6568TIP3    H219646   2.453   1.282   1.752 -2.1343 -0.3310 -0.1336
 6569TIP3   OH219647   7.098   6.087   2.749 -0.1234 -0.1551  0.7482
 6569TIP3    H119648   7.131   6.076   2.660 -2.4542  1.7249 -0.4640
 6569TIP3    H219649   7.083   5.998   2.780 -1.1809 -0.8818 -1.5896
 6570TIP3   OH219650   5.735   7.139   3.863  0.1426  0.3249  0.4588
 6570TIP3    H119651   5.792   7.065   3.840 -0.5134 -0.8201  2.3483
 6570TIP3    H219652   5.650   7.099   3.883 -1.0604  1.8839 -1.1271
 6571TIP3   OH219653   4.584   0.575   6.544  0.3450  0.0832  0.2947
 6571TIP3    H119654   4.664   0.588   6.594  1.5523  0.5435 -1.6721
 6571TIP3    H219655   4.600   0.617   6.459 -1.0440 -1.9061 -1.0545
 6572TIP3   OH219656   0.328   2.737   1.477 -0.1149  0.4518  0.2020
 6572TIP3    H119657   0.380   2.656   1.473  1.4360  1.4314 -0.4457
 6572TIP3    H219658   0.326   2.768   1.386 -2.5972  0.0338  0.0472
 6573TIP3   OH219659   5.387   2.918   5.234 -0.1646  0.9831 -0.1395
 6573TIP3    H119660   5.302   2.946   5.199 -0.2045  1.2572  0.1780
 6573TIP3    H219661   5.388   2.951   5.324 -0.8401 -1.2455  0.7774
 6574TIP3   OH219662   2.791   3.007   0.404  0.2224  0.0191  0.7955
 6574TIP3    H119663   2.874   3.013   0.356  0.6169 -1.1641  1.3065
 6574TIP3    H219664   2.813   2.959   0.484 -1.0432 -0.6985  0.7349
 6575TIP3   OH219665   1.017   1.714   2.198 -0.2123  0.2393  0.1444
 6575TIP3    H119666   1.008   1.803   2.232 -2.5901  0.4000 -0.6856
 6575TIP3    H219667   0.929   1.677   2.205  0.5865 -1.8405 -0.1383
 6576TIP3   OH219668   5.596   4.972   3.154 -0.0037 -0.8493  0.5594
 6576TIP3    H119669   5.613   4.942   3.065 -0.9413  0.6656 -0.1740
 6576TIP3    H219670   5.669   5.030   3.174 -0.3947 -0.2482  0.2915
 6577TIP3   OH219671   1.354   7.740   1.361  1.0222 -0.4067  0.1390
 6577TIP3    H119672   1.440   7.727   1.321  0.4417 -1.8841 -0.7112
 6577TIP3    H219673   1.332   7.655   1.398 -1.1954 -0.8900 -1.9980
 6578TIP3   OH219674   4.582   2.560   2.760  0.1453 -0.0065  0.2590
 6578TIP3    H119675   4.620   2.546   2.847 -0.2395 -0.7743  0.3134
 6578TIP3    H219676   4.515   2.626   2.775  0.4206  0.2303  0.4553
 6579TIP3   OH219677   6.807   7.805   5.970  0.1615 -0.2090  0.1547
 6579TIP3    H119678   6.794   7.778   5.879  0.2372  1.8847 -0.5268
 6579TIP3    H219679   6.901   7.820   5.977  0.1420 -0.2660  0.5462
 6580TIP3   OH219680   4.058   1.279   3.411 -0.1994  0.2023 -0.3919
 6580TIP3    H119681   3.994   1.222   3.453  0.5482 -0.6006 -0.3190
 6580TIP3    H219682   4.143   1.245   3.439  0.2785  0.8152 -1.0488
 6581TIP3   OH219683   2.497   1.215   3.104 -0.1338 -0.3892 -0.4709
 6581TIP3    H119684   2.581   1.170   3.094 -1.0882 -1.9130 -2.7969
 6581TIP3    H219685   2.433   1.144   3.106 -1.4299  0.7574  0.7304
 6582TIP3   OH219686   0.799   0.972   6.017 -0.3215 -0.5789 -0.0052
 6582TIP3    H119687   0.858   1.005   6.085  0.4738 -0.4789 -0.7332
 6582TIP3    H219688   0.848   0.901   5.975 -0.2283  0.2503 -1.3719
 6583TIP3   OH219689   0.884   7.598   4.559 -0.2327  0.0752  0.0068
 6583TIP3    H119690   0.883   7.554   4.474  0.5073  0.7713 -0.3662
 6583TIP3    H219691   0.974   7.589   4.590 -0.8593 -1.7345  1.5689
 6584TIP3   OH219692   1.068   2.234   3.224  0.0407 -0.0989  0.1163
 6584TIP3    H119693   1.162   2.239   3.238 -0.1677  0.1046  1.6473
 6584TIP3    H219694   1.058   2.194   3.137  1.5189 -0.3646  0.0482
 6585TIP3   OH219695   6.701   4.300   5.646  0.7696  0.3652  0.1426
 6585TIP3    H119696   6.718   4.350   5.726  2.9591 -0.4414  0.2382
 6585TIP3    H219697   6.788   4.286   5.608 -0.1484 -0.0713 -1.8993
 6586TIP3   OH219698   7.578   7.848   5.579  0.4134 -0.0776 -0.0815
 6586TIP3    H119699   7.611   7.867   5.666  1.5667 -0.2912 -0.4616
 6586TIP3    H219700   7.581   7.931   5.532  0.8870 -0.1981 -0.2676
 6587TIP3   OH219701   5.191   1.438   6.119  0.2048 -0.0837  0.1496
 6587TIP3    H119702   5.190   1.534   6.127 -0.4715 -0.1752  1.5409
 6587TIP3    H219703   5.127   1.419   6.051 -1.2524  0.3824  1.3401
 6588TIP3   OH219704   0.465   1.542   0.669  0.1617  0.0169 -0.0055
 6588TIP3    H119705   0.464   1.575   0.759  1.1827  1.5729 -0.5188
 6588TIP3    H219706   0.547   1.493   0.663 -0.1008 -0.4320  0.0109
 6589TIP3   OH219707   4.255   3.084   1.328 -0.0843 -0.6922  0.4339
 6589TIP3    H119708   4.172   3.119   1.360 -0.5308 -2.3863  1.2657
 6589TIP3    H219709   4.249   3.091   1.233  0.0105  1.7011  0.5327
 6590TIP3   OH219710   2.677   1.505   5.902  0.3058 -0.2739  0.3282
 6590TIP3    H119711   2.771   1.509   5.882 -0.0404 -2.7657 -2.3633
 6590TIP3    H219712   2.671   1.438   5.970  0.3326 -1.8057 -1.1338
 6591TIP3   OH219713   6.210   5.317   0.186 -0.6626 -0.1692  0.2817
 6591TIP3    H119714   6.140   5.343   0.126 -0.2346  0.6529  0.1229
 6591TIP3    H219715   6.261   5.397   0.199 -0.2638 -0.5485  1.0883
 6592TIP3   OH219716   1.302   1.586   3.554 -0.0864  0.1637  0.0022
 6592TIP3    H119717   1.234   1.523   3.527 -0.5704  0.8603 -0.4240
 6592TIP3    H219718   1.257   1.670   3.558  0.0550  0.1785  2.6754
 6593TIP3   OH219719   7.894   5.692   2.939 -0.2087  0.4055  0.4873
 6593TIP3    H119720   7.831   5.728   3.001  0.6526 -0.0030  1.6465
 6593TIP3    H219721   7.887   5.598   2.950  0.1241  0.3389  0.1366
 6594TIP3   OH219722   7.999   0.145   5.992  0.1298 -0.4244 -0.1266
 6594TIP3    H119723   8.029   0.134   6.083 -1.8031  0.4683  0.6890
 6594TIP3    H219724   8.015   0.238   5.974  1.0775 -0.7364 -0.9486
 6595TIP3   OH219725   5.285   3.254   5.932  0.0650  0.1198 -0.7463
 6595TIP3    H119726   5.225   3.320   5.899  0.9041  0.5566 -1.4353
 6595TIP3    H219727   5.234   3.173   5.932 -0.8481  0.6779 -0.2721
 6596TIP3   OH219728   8.150   2.052   5.346 -0.0719 -0.3359 -0.0796
 6596TIP3    H119729   8.200   2.131   5.325 -0.1224 -0.5166 -0.9350
 6596TIP3    H219730   8.074   2.084   5.395 -0.8500  0.3344 -1.6476
 6597TIP3   OH219731   4.272   3.227   2.873 -0.5398 -0.0667  0.4541
 6597TIP3    H119732   4.254   3.133   2.872 -0.1432 -0.1455 -0.7357
 6597TIP3    H219733   4.346   3.237   2.932 -1.0792 -0.3942  1.1985
 6598TIP3   OH219734   6.121   7.304   0.894 -0.9056 -0.4958  0.6016
 6598TIP3    H119735   6.139   7.381   0.947 -0.3371  1.5217 -2.3015
 6598TIP3    H219736   6.030   7.283   0.911 -1.5934  1.9136  0.2110
 6599TIP3   OH219737   4.731   4.548   1.180  0.3593 -0.5281  0.1104
 6599TIP3    H119738   4.810   4.577   1.226 -0.1262 -1.5552  1.6740
 6599TIP3    H219739   4.760   4.473   1.128  0.2779 -1.5007  1.4074
 6600TIP3   OH219740   5.094   6.365   6.773 -0.2331  0.3054  0.0477
 6600TIP3    H119741   5.100   6.437   6.835 -0.6563  0.1950  0.2201
 6600TIP3    H219742   5.150   6.391   6.700  1.0684 -0.0024  0.9036
 6601TIP3   OH219743   3.651   3.615   0.932 -0.5607  0.8286  0.3540
 6601TIP3    H119744   3.694   3.595   0.849  0.6593 -1.2484  1.4050
 6601TIP3    H219745   3.557   3.616   0.910 -0.3741 -1.2576 -0.8102
 6602TIP3   OH219746   0.338   5.067   3.776 -0.5587 -0.0629  0.2722
 6602TIP3    H119747   0.420   5.020   3.787  0.3554  1.5923  0.8849
 6602TIP3    H219748   0.362   5.147   3.730 -1.8925  0.3015  0.1514
 6603TIP3   OH219749   7.308   7.040   4.862  0.1514 -0.3767  0.3186
 6603TIP3    H119750   7.333   7.114   4.806  0.0568 -1.7048 -1.6008
 6603TIP3    H219751   7.299   6.966   4.801 -0.6912 -1.7603  2.0241
 6604TIP3   OH219752   6.716   6.683   0.627  0.3768 -0.2580  0.0014
 6604TIP3    H119753   6.696   6.741   0.554 -1.1323 -0.7695 -0.0406
 6604TIP3    H219754   6.652   6.708   0.695  0.9379 -0.6229  0.6773
 6605TIP3   OH219755   2.540   3.346   2.361 -0.6133 -0.0598  0.1794
 6605TIP3    H119756   2.560   3.285   2.432 -2.4799 -0.5223  0.3634
 6605TIP3    H219757   2.445   3.358   2.366 -0.5479  1.2630 -1.1573
 6606TIP3   OH219758   4.316   7.206   1.764 -0.0033  0.6045  0.6319
 6606TIP3    H119759   4.222   7.198   1.776  0.0949  2.5513  4.0272
 6606TIP3    H219760   4.354   7.136   1.816  0.5072 -0.5046 -1.1413
 6607TIP3   OH219761   5.029   7.519   2.033 -0.2450  0.0821 -0.1963
 6607TIP3    H119762   5.066   7.589   2.087 -1.1541 -0.0299  0.6133
 6607TIP3    H219763   4.958   7.560   1.985 -0.7257 -0.2509  0.2152
 6608TIP3   OH219764   4.146   3.184   6.207 -0.3170  0.6066 -0.0794
 6608TIP3    H119765   4.182   3.173   6.119 -1.4414  1.9983 -0.7401
 6608TIP3    H219766   4.132   3.278   6.216  0.4132  0.5705  1.8690
 6609TIP3   OH219767   2.030   7.427   2.581 -0.1610  0.8820  0.4894
 6609TIP3    H119768   1.935   7.413   2.588 -0.1743  1.2230  1.0664
 6609TIP3    H219769   2.053   7.473   2.662  0.2311  2.2792 -0.3858
 6610TIP3   OH219770   6.489   0.616   1.602  0.1314  0.2146  0.5770
 6610TIP3    H119771   6.527   0.562   1.672  0.6785 -1.1799 -0.7294
 6610TIP3    H219772   6.546   0.600   1.527 -0.1414  2.0858 -0.0745
 6611TIP3   OH219773   4.103   4.908   4.362  0.0344  0.8834 -0.2709
 6611TIP3    H119774   4.079   4.986   4.311 -1.5950  1.5044  1.3510
 6611TIP3    H219775   4.140   4.848   4.297 -0.5597  2.2177 -1.9200
 6612TIP3   OH219776   2.978   6.950   2.724 -0.3525 -0.0143 -0.1217
 6612TIP3    H119777   3.005   7.034   2.687 -3.6645  0.9315 -0.6789
 6612TIP3    H219778   3.011   6.885   2.662  0.1070  1.0626 -1.0501
 6613TIP3   OH219779   7.399   1.308   5.971  0.4146 -0.3680  0.5850
 6613TIP3    H119780   7.491   1.329   5.984  1.0352  1.5461 -4.6719
 6613TIP3    H219781   7.352   1.389   5.991  0.3884 -0.1037 -0.5055
 6614TIP3   OH219782   5.325   4.570   2.788 -0.1428 -0.1035  0.4050
 6614TIP3    H119783   5.298   4.652   2.745 -0.9507 -0.2329  0.6568
 6614TIP3    H219784   5.420   4.575   2.790 -0.1735  0.7310  0.2156
 6615TIP3   OH219785   7.713   6.218   6.708  0.4450 -0.1431  0.0339
 6615TIP3    H119786   7.716   6.302   6.662  0.8482 -0.9295 -1.4830
 6615TIP3    H219787   7.620   6.195   6.711  0.4216 -0.1950 -0.6841
 6616TIP3   OH219788   4.490   6.313   1.176 -0.4708 -0.1978 -0.3281
 6616TIP3    H119789   4.520   6.401   1.198  1.8878 -0.7956 -0.8962
 6616TIP3    H219790   4.415   6.298   1.233 -0.2191  1.7405  0.5786
 6617TIP3   OH219791   5.166   7.890   3.040  0.6060 -0.1843  0.3075
 6617TIP3    H119792   5.189   7.803   3.008 -1.0012 -1.1140  1.6010
 6617TIP3    H219793   5.073   7.900   3.019  0.6268  0.9840  0.6982
 6618TIP3   OH219794   0.372   3.888   6.158 -0.9318  0.0854 -0.0124
 6618TIP3    H119795   0.337   3.870   6.071 -0.5209  1.5097 -0.4881
 6618TIP3    H219796   0.332   3.971   6.184  2.6442  2.3338 -0.9994
 6619TIP3   OH219797   0.860   6.842   0.121  0.4386  0.0742  0.1059
 6619TIP3    H119798   0.884   6.773   0.059  0.0817  0.0275  0.0170
 6619TIP3    H219799   0.942   6.865   0.164  0.5974 -0.2551 -0.0162
 6620TIP3   OH219800   6.239   7.523   1.033 -0.4080  0.5359  0.2978
 6620TIP3    H119801   6.274   7.575   0.961 -1.9372  1.6870  0.3228
 6620TIP3    H219802   6.296   7.543   1.108  0.0543  0.8226 -0.1299
 6621TIP3   OH219803   1.406   6.674   1.513 -0.2492  0.0548 -0.2048
 6621TIP3    H119804   1.379   6.733   1.443 -1.4940 -0.4881 -0.2136
 6621TIP3    H219805   1.373   6.716   1.593  3.7088  2.2509  0.5612
 6622TIP3   OH219806   3.000   4.577   1.389 -0.2824  0.0470 -0.3984
 6622TIP3    H119807   2.984   4.483   1.388  0.7480 -0.2635  2.2909
 6622TIP3    H219808   3.086   4.587   1.347 -0.2479 -0.2493 -0.3996
 6623TIP3   OH219809   3.616   6.278   2.966 -0.5622  0.5151  0.0553
 6623TIP3    H119810   3.591   6.226   3.043 -1.0337  0.3740 -0.1837
 6623TIP3    H219811   3.533   6.295   2.922 -0.3144  0.7661 -0.3144
 6624TIP3   OH219812   6.470   3.415   5.065 -0.1738 -0.4499  0.1262
 6624TIP3    H119813   6.396   3.467   5.033 -1.4214 -1.6902  0.8670
 6624TIP3    H219814   6.505   3.465   5.138 -1.2050 -0.5005  0.6811
 6625TIP3   OH219815   1.838   0.107   3.100 -0.2600 -0.4760 -0.3920
 6625TIP3    H119816   1.913   0.056   3.130 -0.2541 -1.1804 -1.5335
 6625TIP3    H219817   1.865   0.198   3.110 -0.1037 -0.6895  1.2779
 6626TIP3   OH219818   4.459   7.328   5.433  0.0438  0.0805  0.2755
 6626TIP3    H119819   4.441   7.402   5.490  0.2824  1.1446 -0.9765
 6626TIP3    H219820   4.459   7.252   5.491 -0.0821  1.0686  1.6110
 6627TIP3   OH219821   7.747   4.016   3.688 -0.0943 -0.5380  0.3066
 6627TIP3    H119822   7.665   4.042   3.730 -0.1241 -1.4618  0.8535
 6627TIP3    H219823   7.796   3.970   3.757  1.1155  0.4279  0.1412
 6628TIP3   OH219824   6.301   0.151   5.713 -0.4096  0.2430  0.1497
 6628TIP3    H119825   6.273   0.092   5.782 -3.4476 -0.1372 -1.2451
 6628TIP3    H219826   6.254   0.122   5.635  0.7516  2.3181 -1.4502
 6629TIP3   OH219827   7.939   2.136   1.736  0.2111 -0.0102 -0.1573
 6629TIP3    H119828   8.010   2.141   1.801  0.8267  0.2968 -0.8436
 6629TIP3    H219829   7.956   2.055   1.689 -0.7010 -0.6486  0.5791
 6630TIP3   OH219830   8.292   6.300   1.014  0.0931 -0.3774  0.0745
 6630TIP3    H119831   8.343   6.237   0.964  0.9076 -0.4916  1.0232
 6630TIP3    H219832   8.208   6.257   1.030  0.1548 -0.6837 -0.4327
 6631TIP3   OH219833   6.067   5.822   5.203 -0.6952 -0.2834 -0.1981
 6631TIP3    H119834   6.103   5.745   5.158 -0.1009 -0.3271  0.3289
 6631TIP3    H219835   6.144   5.870   5.233 -1.0714  0.2509 -0.0745
 6632TIP3   OH219836   2.192   4.782   0.746 -0.3072  0.3363  0.3416
 6632TIP3    H119837   2.177   4.826   0.830  1.2136  2.5165 -0.4303
 6632TIP3    H219838   2.279   4.744   0.754  0.7296  2.2781 -0.8274
 6633TIP3   OH219839   1.461   2.268   6.247 -0.5429  0.1293  0.0439
 6633TIP3    H119840   1.551   2.272   6.214 -1.5627  0.3178 -3.0345
 6633TIP3    H219841   1.460   2.329   6.321  2.1786 -1.0489  1.2005
 6634TIP3   OH219842   3.990   1.292   2.215 -0.1181  0.4028  0.6241
 6634TIP3    H119843   4.040   1.368   2.185 -0.5923 -0.4738 -2.8103
 6634TIP3    H219844   3.923   1.329   2.273  1.7120  2.1174  1.7908
 6635TIP3   OH219845   3.082   4.244   3.815 -0.2668  0.2678 -0.2719
 6635TIP3    H119846   3.089   4.337   3.834 -0.8658  0.3348 -0.3790
 6635TIP3    H219847   3.118   4.235   3.726  0.8481  0.2176  0.1614
 6636TIP3   OH219848   3.385   0.161   1.919 -0.7610 -0.1400 -0.2416
 6636TIP3    H119849   3.293   0.135   1.921 -0.5847 -0.8822 -1.1214
 6636TIP3    H219850   3.420   0.134   2.004 -0.9221 -1.5553 -0.6049
 6637TIP3   OH219851   3.199   3.818   1.532  0.3053 -0.2674 -0.2790
 6637TIP3    H119852   3.130   3.881   1.509  0.9760  1.2209  1.5426
 6637TIP3    H219853   3.277   3.849   1.486  0.7524  0.5846  0.9852
 6638TIP3   OH219854   0.277   1.953   6.025 -0.0109  0.0097  0.8187
 6638TIP3    H119855   0.353   1.991   5.981 -0.8635 -0.2652 -0.9937
 6638TIP3    H219856   0.294   1.859   6.025  0.7498  0.1110  2.6553
 6639TIP3   OH219857   6.021   5.300   5.396  0.1349  0.2119 -0.9085
 6639TIP3    H119858   6.106   5.293   5.352 -0.3151  0.1763 -1.8026
 6639TIP3    H219859   5.959   5.261   5.334 -0.6968  1.2635 -0.7618
 6640TIP3   OH219860   1.686   6.013   3.692 -0.2923  0.2604 -0.1479
 6640TIP3    H119861   1.717   5.923   3.698  0.4302  0.5073 -0.1038
 6640TIP3    H219862   1.685   6.043   3.783  0.6654  0.6848 -0.2641
 6641TIP3   OH219863   0.730   1.875   2.101  0.1958 -0.0640  0.0250
 6641TIP3    H119864   0.639   1.903   2.089  0.5478  0.2153 -2.4293
 6641TIP3    H219865   0.723   1.787   2.139 -1.0641  0.2555  0.6001
 6642TIP3   OH219866   8.221   3.753   6.041  0.4164 -0.2673 -0.3145
 6642TIP3    H119867   8.188   3.833   6.000  0.1248 -0.1522  0.1424
 6642TIP3    H219868   8.155   3.687   6.023 -0.2658  0.0515  0.9165
 6643TIP3   OH219869   4.204   3.164   1.069 -0.0958  0.2436 -0.3597
 6643TIP3    H119870   4.238   3.250   1.092 -2.3859  1.3437 -0.8017
 6643TIP3    H219871   4.252   3.138   0.990  2.4206 -0.1269  1.1720
 6644TIP3   OH219872   5.207   7.192   3.997  0.1663  0.3216 -0.3528
 6644TIP3    H119873   5.251   7.259   4.050 -0.1768 -1.6911  2.7073
 6644TIP3    H219874   5.116   7.223   3.991  0.5299  1.2916 -1.0714
 6645TIP3   OH219875   1.246   4.848   2.477  0.2597  0.2444  0.0708
 6645TIP3    H119876   1.184   4.826   2.546  0.0917  2.3485  0.6642
 6645TIP3    H219877   1.204   4.920   2.429  1.6969  0.8862 -0.2872
 6646TIP3   OH219878   0.288   4.259   4.687 -0.6010 -0.0758 -0.2851
 6646TIP3    H119879   0.331   4.191   4.738  1.4929  0.9428 -0.5716
 6646TIP3    H219880   0.280   4.222   4.599 -2.9222 -1.2990  0.3799
 6647TIP3   OH219881   1.646   2.564   1.268 -0.2470  0.5516  0.1669
 6647TIP3    H119882   1.687   2.617   1.199 -1.2782  0.4994 -0.5111
 6647TIP3    H219883   1.618   2.484   1.223 -2.1161  1.0720  0.3240
 6648TIP3   OH219884   4.962   4.847   0.583  0.4759 -0.8053 -0.2871
 6648TIP3    H119885   4.955   4.941   0.571 -1.1238 -1.0861 -1.8298
 6648TIP3    H219886   4.933   4.832   0.674  0.5517  0.1524 -0.0973
 6649TIP3   OH219887   1.462   5.213   5.814  0.0567  0.1973 -0.1941
 6649TIP3    H119888   1.509   5.130   5.820 -0.9879 -0.4829 -1.1001
 6649TIP3    H219889   1.522   5.277   5.852  0.2356 -1.2000  2.0432
 6650TIP3   OH219890   6.065   3.672   0.197  0.0641  0.2480 -0.3350
 6650TIP3    H119891   6.032   3.752   0.157  3.0393  0.7072 -2.1641
 6650TIP3    H219892   6.093   3.618   0.123  0.2977 -1.5095  0.9569
 6651TIP3   OH219893   2.634   2.121   5.511  0.2069  0.1094 -0.0697
 6651TIP3    H119894   2.555   2.129   5.565  0.4965  0.8554  0.2625
 6651TIP3    H219895   2.674   2.208   5.516  1.1625 -0.3309 -0.0592
 6652TIP3   OH219896   2.470   5.993   3.631  0.4983  0.0668 -0.8372
 6652TIP3    H119897   2.413   5.963   3.702  0.0732 -0.4195 -1.3794
 6652TIP3    H219898   2.420   6.060   3.586  0.4423 -0.2005 -1.1753
 6653TIP3   OH219899   5.273   2.490   0.846  0.1403  0.0400 -0.2575
 6653TIP3    H119900   5.364   2.461   0.842  1.0362  2.6407 -0.2662
 6653TIP3    H219901   5.245   2.467   0.935  0.3342 -1.9138 -0.6541
 6654TIP3   OH219902   1.390   0.323   6.219  0.4710  0.4066 -0.6684
 6654TIP3    H119903   1.402   0.294   6.309 -0.0328  0.0451 -0.7073
 6654TIP3    H219904   1.478   0.342   6.187  0.5617  1.6295  0.2449
 6655TIP3   OH219905   6.797   4.370   0.301  0.4002 -0.1627 -0.2231
 6655TIP3    H119906   6.730   4.406   0.242  0.7091  0.4508 -0.2038
 6655TIP3    H219907   6.880   4.404   0.267  0.4836  1.3846  1.3751
 6656TIP3   OH219908   6.328   6.792   3.736  0.0947 -0.2326 -0.0757
 6656TIP3    H119909   6.295   6.716   3.689  0.1289  0.1931 -0.8004
 6656TIP3    H219910   6.418   6.802   3.705  0.3850 -0.4234  0.6819
 6657TIP3   OH219911   4.778   1.836   1.295 -0.4407 -0.5963  0.4999
 6657TIP3    H119912   4.858   1.805   1.337  0.8583  0.6507 -0.9506
 6657TIP3    H219913   4.722   1.758   1.289  0.4834 -1.3978  1.8754
 6658TIP3   OH219914   0.788   0.799   0.703 -0.0120  0.1767 -0.1640
 6658TIP3    H119915   0.830   0.783   0.619 -0.0454  1.9003 -0.5399
 6658TIP3    H219916   0.833   0.875   0.739 -1.8894  1.2682  0.0285
 6659TIP3   OH219917   0.090   6.764   0.774 -0.2498 -0.6663  0.4456
 6659TIP3    H119918   0.077   6.758   0.679 -0.2225 -1.6104  0.4897
 6659TIP3    H219919   0.014   6.719   0.811 -0.5179  0.1306  0.8953
 6660TIP3   OH219920   4.204   0.645   1.639  0.0225  0.0226  0.5954
 6660TIP3    H119921   4.274   0.618   1.579  0.2349 -0.0974  0.8965
 6660TIP3    H219922   4.250   0.692   1.709  0.0647 -1.9768  1.9667
 6661TIP3   OH219923   1.649   3.099   1.448  0.3122  0.0173 -0.1438
 6661TIP3    H119924   1.634   3.071   1.358 -0.1902 -0.4682  0.0843
 6661TIP3    H219925   1.727   3.052   1.476  0.0095 -0.4393 -0.0675
 6662TIP3   OH219926   0.372   2.617   6.676  0.8774 -0.1478 -0.6634
 6662TIP3    H119927   0.466   2.614   6.659  0.7326 -0.8417 -1.4404
 6662TIP3    H219928   0.340   2.686   6.619  0.7906 -0.5576 -1.1196
 6663TIP3   OH219929   0.395   7.702   1.935 -0.8254  0.2476 -0.3728
 6663TIP3    H119930   0.433   7.756   1.866 -1.4245 -1.1445 -1.8583
 6663TIP3    H219931   0.467   7.686   1.996 -0.4628  2.0874 -0.2665
 6664TIP3   OH219932   4.244   1.820   4.454 -0.0209  0.2268  0.2025
 6664TIP3    H119933   4.306   1.835   4.526  0.9910 -1.1045 -0.3513
 6664TIP3    H219934   4.282   1.748   4.404 -0.7626  1.0160 -1.6035
 6665TIP3   OH219935   2.663   4.987   1.002 -0.3223 -0.3504  0.0751
 6665TIP3    H119936   2.737   4.937   0.969 -0.1405 -0.1285  0.1383
 6665TIP3    H219937   2.609   5.006   0.925 -1.2151 -1.9584  0.2620
 6666TIP3   OH219938   7.173   1.816   1.988 -0.0423  0.2404 -0.3973
 6666TIP3    H119939   7.151   1.775   2.071 -0.0350  0.1882 -0.4215
 6666TIP3    H219940   7.095   1.867   1.964 -0.3964 -0.4894 -0.8264
 6667TIP3   OH219941   3.846   5.333   3.817 -0.2354  0.5320 -0.8274
 6667TIP3    H119942   3.903   5.257   3.825 -1.5591 -0.3707  0.5408
 6667TIP3    H219943   3.836   5.366   3.907 -2.0424  0.5036 -0.9887
 6668TIP3   OH219944   2.105   7.675   5.522  0.1951 -0.2699  0.4312
 6668TIP3    H119945   2.065   7.742   5.577 -0.6086 -0.2524 -0.1439
 6668TIP3    H219946   2.191   7.710   5.499  0.3418 -0.0717  1.2826
 6669TIP3   OH219947   2.920   3.964   3.182  0.4059  0.0796 -0.1533
 6669TIP3    H119948   3.004   3.971   3.137 -0.3998 -1.7546 -2.1312
 6669TIP3    H219949   2.859   4.010   3.124 -0.4193 -1.0783 -0.2274
 6670TIP3   OH219950   8.292   4.971   0.582  0.4181  0.1536 -0.3952
 6670TIP3    H119951   8.262   5.058   0.609  0.7237 -0.2905  1.4955
 6670TIP3    H219952   8.256   4.960   0.493  1.7321  2.8491 -1.3752
 6671TIP3   OH219953   2.364   4.782   5.082  0.2285 -0.3068  0.2109
 6671TIP3    H119954   2.395   4.755   4.995  0.1897  0.7821 -0.1523
 6671TIP3    H219955   2.419   4.857   5.105  0.1227 -0.4803  1.0601
 6672TIP3   OH219956   0.759   3.167   0.261  0.4522 -0.4758  0.4144
 6672TIP3    H119957   0.849   3.198   0.254 -0.1786  1.4441  0.1774
 6672TIP3    H219958   0.736   3.140   0.172 -0.1830  2.0546 -0.2463
 6673TIP3   OH219959   2.167   5.214   3.771 -0.1203  0.1396 -0.1091
 6673TIP3    H119960   2.208   5.142   3.819  0.2086  0.4165  0.0316
 6673TIP3    H219961   2.079   5.221   3.810  0.0120  0.1180  0.1999
 6674TIP3   OH219962   2.943   5.415   5.995 -0.0363 -0.4710 -0.6108
 6674TIP3    H119963   2.949   5.413   5.900 -0.0429 -0.5740 -0.6101
 6674TIP3    H219964   2.863   5.366   6.015  0.5919 -1.4910 -0.5018
 6675TIP3   OH219965   5.252   1.854   3.016  0.1060 -0.4086 -0.0009
 6675TIP3    H119966   5.258   1.847   2.921 -0.5204  0.2655 -0.0955
 6675TIP3    H219967   5.343   1.849   3.046  0.4320  0.7630 -0.7336
 6676TIP3   OH219968   0.466   1.706   4.761  0.5101  0.5540 -0.0435
 6676TIP3    H119969   0.474   1.612   4.776  0.2949  0.5428  0.0031
 6676TIP3    H219970   0.519   1.746   4.830  0.3868  0.4742  0.0976
 6677TIP3   OH219971   5.495   6.440   0.339  0.1839 -0.7092  0.4005
 6677TIP3    H119972   5.578   6.479   0.367 -0.5727  0.8216  0.6211
 6677TIP3    H219973   5.490   6.460   0.246  0.7691 -2.1699  0.0368
 6678TIP3   OH219974   2.337   7.860   2.353 -0.0328 -0.2509 -0.8269
 6678TIP3    H119975   2.433   7.857   2.352  0.1156  1.4870  1.0406
 6678TIP3    H219976   2.312   7.814   2.433 -0.6584  0.4340 -0.6186
 6679TIP3   OH219977   5.044   6.293   4.502  0.5541  1.2837 -0.4358
 6679TIP3    H119978   5.035   6.208   4.460 -1.5536  2.4132 -2.5056
 6679TIP3    H219979   5.138   6.301   4.521  0.7068 -1.8163  0.7418
 6680TIP3   OH219980   4.726   0.303   3.645  0.5433 -0.8698  0.0935
 6680TIP3    H119981   4.634   0.315   3.620  0.4331 -0.7416  0.5456
 6680TIP3    H219982   4.768   0.267   3.567 -0.0183 -1.5000  0.0744
 6681TIP3   OH219983   6.242   1.229   0.533 -0.2690  0.4444 -0.2250
 6681TIP3    H119984   6.315   1.180   0.496 -1.4203 -0.9703 -0.6940
 6681TIP3    H219985   6.271   1.251   0.622  0.7361 -0.0598 -0.4087
 6682TIP3   OH219986   5.731   4.811   2.791 -0.3596 -0.3925 -0.0054
 6682TIP3    H119987   5.718   4.896   2.747  0.0747 -0.5432 -0.4413
 6682TIP3    H219988   5.813   4.778   2.754 -0.5631 -1.0398  0.1100
 6683TIP3   OH219989   5.014   0.281   1.133 -0.2720 -0.6216 -0.5324
 6683TIP3    H119990   5.015   0.212   1.067 -1.6169  0.0632 -1.3014
 6683TIP3    H219991   4.923   0.286   1.162 -0.0493  0.3036  0.0748
 6684TIP3   OH219992   5.598   0.276   0.583  0.4897 -0.2920  0.6023
 6684TIP3    H119993   5.645   0.193   0.580  3.3679  1.2075 -0.7732
 6684TIP3    H219994   5.535   0.271   0.512 -0.2067 -1.6679  1.2695
 6685TIP3   OH219995   3.257   2.586   1.278  0.1578  0.1311  0.0713
 6685TIP3    H119996   3.350   2.609   1.275  1.0078 -2.8124 -2.5523
 6685TIP3    H219997   3.252   2.517   1.344  0.0550 -0.2751 -0.3496
 6686TIP3   OH219998   5.644   2.933   6.293  0.4405  0.2467 -0.1360
 6686TIP3    H119999   5.723   2.880   6.306 -1.0467 -2.3427 -0.9377
 6686TIP3    H220000   5.583   2.875   6.246 -1.9228  2.1558  0.3592
 6687TIP3   OH220001   1.452   1.327   3.426 -0.1704 -0.3375 -0.6206
 6687TIP3    H120002   1.367   1.350   3.465  0.3711  2.6194 -0.9162
 6687TIP3    H220003   1.441   1.238   3.393 -2.2082 -1.1331  1.8951
 6688TIP3   OH220004   1.470   7.460   6.267 -0.3712 -0.2330 -0.0776
 6688TIP3    H120005   1.378   7.483   6.275 -0.1398  0.7070  0.0814
 6688TIP3    H220006   1.517   7.539   6.296  0.4981  0.0832 -2.1672
 6689TIP3   OH220007   5.612   4.741   2.117  0.3531 -0.8595  0.1465
 6689TIP3    H120008   5.682   4.714   2.177  1.8389 -0.8970 -1.5166
 6689TIP3    H220009   5.598   4.664   2.062 -1.7176 -1.1769  1.0452
 6690TIP3   OH220010   6.849   1.142   1.560  0.4109 -0.0816 -0.3937
 6690TIP3    H120011   6.933   1.127   1.516  1.1993  1.4398  0.4789
 6690TIP3    H220012   6.851   1.084   1.636  1.7450  1.5138  0.8801
 6691TIP3   OH220013   4.617   0.232   0.227 -0.1331  0.0085  0.0093
 6691TIP3    H120014   4.667   0.312   0.214 -1.2491  0.8249  0.5852
 6691TIP3    H220015   4.560   0.227   0.150 -1.8031  1.1247  1.0975
 6692TIP3   OH220016   0.360   1.879   0.315  0.2247  0.0212 -0.8505
 6692TIP3    H120017   0.428   1.938   0.345 -1.1605  1.2615  0.0022
 6692TIP3    H220018   0.280   1.932   0.315 -1.4770 -2.2629  1.8193
 6693TIP3   OH220019   4.427   6.843   6.024 -0.0109  0.0669  0.0667
 6693TIP3    H120020   4.341   6.870   6.057 -0.2057  0.9405 -1.1183
 6693TIP3    H220021   4.414   6.830   5.930  0.8694 -1.0186  0.0715
 6694TIP3   OH220022   1.457   1.983   2.347  0.0578  0.2221 -0.0038
 6694TIP3    H120023   1.478   2.066   2.304 -0.0943  0.2655  0.0034
 6694TIP3    H220024   1.448   1.921   2.274  0.2637  0.1916 -0.0026
 6695TIP3   OH220025   3.811   4.733   2.201  1.1164  0.2531  0.6351
 6695TIP3    H120026   3.903   4.724   2.174  0.8470 -0.4821 -0.1061
 6695TIP3    H220027   3.785   4.644   2.224  1.3211  0.8203  3.4690
 6696TIP3   OH220028   1.694   5.448   1.413  0.2735  0.5112 -0.2214
 6696TIP3    H120029   1.622   5.457   1.351 -0.5725 -0.4831  0.5708
 6696TIP3    H220030   1.685   5.522   1.472 -1.0559 -0.3932  0.7763
 6697TIP3   OH220031   5.201   0.200   2.206 -0.4614  1.1335 -0.1449
 6697TIP3    H120032   5.175   0.135   2.271  2.0258 -0.3106 -0.4625
 6697TIP3    H220033   5.291   0.222   2.229  0.4088  0.7936 -2.8596
 6698TIP3   OH220034   5.962   7.205   0.138  0.4097  0.7300 -0.3997
 6698TIP3    H120035   5.967   7.130   0.078  0.2183  1.2907 -1.1216
 6698TIP3    H220036   5.938   7.279   0.083  3.3494  1.9622 -0.2222
 6699TIP3   OH220037   8.074   2.259   2.735 -0.1523 -0.0472  0.3815
 6699TIP3    H120038   8.002   2.281   2.675  0.6997  1.5490 -0.1302
 6699TIP3    H220039   8.053   2.305   2.816  0.4119  0.6608  0.1360
 6700TIP3   OH220040   1.065   6.761   4.686 -0.5877 -0.1093  0.6175
 6700TIP3    H120041   1.114   6.839   4.711  0.9885 -0.9931  0.4086
 6700TIP3    H220042   1.076   6.702   4.761 -0.7833 -0.5603  0.2907
 6701TIP3   OH220043   0.769   3.546   0.112 -0.6053  1.0499 -0.0942
 6701TIP3    H120044   0.736   3.612   0.172 -0.2398  1.6178 -0.5124
 6701TIP3    H220045   0.814   3.595   0.044  0.6327  0.3221  0.1761
 6702TIP3   OH220046   2.737   3.152   2.765  0.1578 -0.1277  1.0664
 6702TIP3    H120047   2.698   3.091   2.828 -2.0261  0.5716  0.5111
 6702TIP3    H220048   2.666   3.170   2.703  1.6762  0.6223 -0.5451
 6703TIP3   OH220049   4.509   7.591   4.434 -0.0210 -0.2165 -0.0672
 6703TIP3    H120050   4.431   7.645   4.423  0.6638  0.4905 -1.7440
 6703TIP3    H220051   4.579   7.654   4.452  0.5023 -0.6835 -0.4471
 6704TIP3   OH220052   2.815   0.824   3.110 -0.1353  0.4929 -0.1845
 6704TIP3    H120053   2.797   0.734   3.082 -0.8605  0.4053  0.5113
 6704TIP3    H220054   2.908   0.838   3.091  0.0614 -0.5179  0.0083
 6705TIP3   OH220055   6.188   4.842   1.015  0.5712  0.2809 -0.2117
 6705TIP3    H120056   6.096   4.869   1.010  0.3803 -0.0756  1.1160
 6705TIP3    H220057   6.195   4.771   0.951 -0.7842 -1.5667  1.5917
 6706TIP3   OH220058   8.345   6.415   0.203  0.3067  0.1375  1.0220
 6706TIP3    H120059   8.284   6.408   0.277  0.5516 -1.1445  1.1256
 6706TIP3    H220060   8.400   6.337   0.209 -0.0078 -0.2800 -0.8300
 6707TIP3   OH220061   3.976   1.516   6.005 -0.0121  0.1656 -0.3908
 6707TIP3    H120062   3.990   1.588   6.066  1.0038 -0.9770  0.8020
 6707TIP3    H220063   3.929   1.555   5.931  0.2378  1.9560  0.3482
 6708TIP3   OH220064   7.187   3.866   2.896 -0.5910  0.4084 -0.3719
 6708TIP3    H120065   7.144   3.824   2.820 -1.4251  0.9147 -0.1935
 6708TIP3    H220066   7.197   3.958   2.870  0.2376  0.3391 -0.3314
 6709TIP3   OH220067   6.264   3.653   4.016 -0.0652 -0.4361  0.6719
 6709TIP3    H120068   6.353   3.618   4.019 -0.1707 -0.8848 -0.8386
 6709TIP3    H220069   6.269   3.728   3.956 -0.5488  0.0408  1.2101
 6710TIP3   OH220070   1.789   5.368   6.644 -0.3946  0.1281  0.3269
 6710TIP3    H120071   1.783   5.316   6.563  1.3597  1.2751 -0.5906
 6710TIP3    H220072   1.768   5.457   6.616 -1.9152  0.2232  1.6074
 6711TIP3   OH220073   7.661   5.197   0.798 -0.3019  0.3500 -0.0129
 6711TIP3    H120074   7.685   5.255   0.725 -1.2457  1.1401  0.2775
 6711TIP3    H220075   7.735   5.204   0.858 -0.0771  0.6923 -0.3155
 6712TIP3   OH220076   3.779   4.673   2.951  0.1304 -0.0165  0.2377
 6712TIP3    H120077   3.804   4.617   3.024  0.3060  0.9663  0.9490
 6712TIP3    H220078   3.786   4.762   2.985 -0.2494  0.4434 -0.8337
 6713TIP3   OH220079   3.050   1.688   1.428 -0.1666  0.6724 -0.0715
 6713TIP3    H120080   2.994   1.659   1.357 -0.2649  0.7248 -0.0164
 6713TIP3    H220081   3.090   1.608   1.462  1.0494  0.7874 -1.1505
 6714TIP3   OH220082   3.261   7.285   4.529  0.0035 -0.4724 -0.7378
 6714TIP3    H120083   3.303   7.317   4.609  0.4843 -0.5616 -0.9496
 6714TIP3    H220084   3.327   7.297   4.461 -0.1144 -1.1335 -0.9752
 6715TIP3   OH220085   2.743   7.637   3.688 -0.5267 -0.1354  0.1944
 6715TIP3    H120086   2.831   7.610   3.663 -0.1959  0.3809  0.7531
 6715TIP3    H220087   2.747   7.645   3.784 -1.1204  0.1034  0.2060
 6716TIP3   OH220088   3.069   0.751   3.024 -0.3163 -0.2186  0.0059
 6716TIP3    H120089   3.159   0.778   3.044  0.9198 -2.4081 -2.1654
 6716TIP3    H220090   3.059   0.667   3.069 -1.2166 -0.1111  0.0182
 6717TIP3   OH220091   4.554   4.643   3.895  0.0979 -0.8660 -0.3625
 6717TIP3    H120092   4.605   4.707   3.845  0.4784 -0.0402  1.0121
 6717TIP3    H220093   4.463   4.672   3.885  0.3318  0.4473  0.9218
 6718TIP3   OH220094   5.864   5.500   3.760  0.4195 -0.4797  0.2612
 6718TIP3    H120095   5.865   5.552   3.680 -2.3266  2.6740  2.0248
 6718TIP3    H220096   5.839   5.562   3.829 -0.3331 -3.6085  3.0812
 6719TIP3   OH220097   2.362   3.274   0.948  0.5329  0.0534  0.0074
 6719TIP3    H120098   2.374   3.182   0.969  1.7300 -0.0094 -0.8287
 6719TIP3    H220099   2.351   3.317   1.032  2.5513 -0.5196  0.6211
 6720TIP3   OH220100   7.158   3.623   6.087  0.1134 -0.4374  0.1611
 6720TIP3    H120101   7.156   3.527   6.089 -0.6643 -0.4216  0.2550
 6720TIP3    H220102   7.151   3.650   6.178  1.0542 -0.2924  0.2015
 6721TIP3   OH220103   1.671   4.661   2.709 -0.0060  0.1150 -0.3040
 6721TIP3    H120104   1.580   4.639   2.730 -0.2430  0.5447 -0.8408
 6721TIP3    H220105   1.675   4.756   2.720  0.9398 -0.1189  1.7647
 6722TIP3   OH220106   5.376   3.649   1.364  0.7375  0.1867  0.2703
 6722TIP3    H120107   5.439   3.576   1.364 -0.5587 -0.9865  0.5713
 6722TIP3    H220108   5.351   3.658   1.272  0.3421 -0.2615  0.3314
 6723TIP3   OH220109   0.919   6.180   5.262 -0.4931  0.0474 -0.0653
 6723TIP3    H120110   0.829   6.163   5.291 -0.2275  0.0823  0.7902
 6723TIP3    H220111   0.921   6.274   5.245 -0.4620  0.1478  0.4813
 6724TIP3   OH220112   0.175   1.982   0.494 -0.1787 -0.1527  0.3220
 6724TIP3    H120113   0.247   1.920   0.498  1.1027  1.0326 -2.3039
 6724TIP3    H220114   0.217   2.068   0.496 -1.4514  0.5718 -1.4009
 6725TIP3   OH220115   6.450   7.814   2.703 -0.4285 -0.6047  0.8505
 6725TIP3    H120116   6.370   7.826   2.754 -0.7518 -1.3095  0.5216
 6725TIP3    H220117   6.419   7.802   2.613  0.0299 -1.1892  0.7674
 6726TIP3   OH220118   3.080   1.088   2.928 -0.4151 -0.5463 -0.0101
 6726TIP3    H120119   3.136   1.070   3.004  1.5005 -0.5967 -1.3574
 6726TIP3    H220120   3.028   1.165   2.954  0.2434 -0.5202  1.3123
 6727TIP3   OH220121   4.243   1.711   2.741  0.3873 -0.0898  0.5134
 6727TIP3    H120122   4.192   1.738   2.817  2.2590 -2.7195  2.9031
 6727TIP3    H220123   4.297   1.788   2.721 -0.0187  0.6234  1.9998
 6728TIP3   OH220124   5.653   3.671   0.316  0.4117  0.1393  0.0152
 6728TIP3    H120125   5.697   3.705   0.394 -1.7063  1.2582  0.7999
 6728TIP3    H220126   5.688   3.723   0.244 -0.1578  1.5577  0.7304
 6729TIP3   OH220127   5.190   5.785   1.910  0.4527  0.5142 -0.0578
 6729TIP3    H120128   5.114   5.838   1.885  0.1724 -0.3922 -1.2169
 6729TIP3    H220129   5.225   5.753   1.827 -0.5339 -2.7098  0.6206
 6730TIP3   OH220130   7.994   6.692   0.412  0.5229  0.5122  0.2455
 6730TIP3    H120131   7.955   6.605   0.417  1.4693  0.0734  0.1331
 6730TIP3    H220132   8.088   6.677   0.417  0.6539  1.6523  1.8261
 6731TIP3   OH220133   3.597   4.029   5.035  0.1862  0.6916  0.3508
 6731TIP3    H120134   3.620   3.975   4.960 -1.4340 -1.4696  1.2736
 6731TIP3    H220135   3.550   4.103   4.998  1.1372  0.7021 -0.8800
 6732TIP3   OH220136   8.328   1.192   6.048  0.5300  0.2434 -0.2070
 6732TIP3    H120137   8.361   1.190   6.138  0.0946 -0.1690 -0.0498
 6732TIP3    H220138   8.301   1.102   6.031 -0.2864  0.5172 -0.4081
 6733TIP3   OH220139   6.476   5.499   1.158 -0.1581 -0.1348 -0.3378
 6733TIP3    H120140   6.507   5.438   1.091  0.7458 -0.0983  0.0415
 6733TIP3    H220141   6.530   5.577   1.147 -1.1613  0.5278 -0.6739
 6734TIP3   OH220142   6.053   1.321   6.078 -0.3381 -0.3225  0.5173
 6734TIP3    H120143   5.984   1.306   6.143 -1.3440 -1.0127 -0.6727
 6734TIP3    H220144   6.059   1.416   6.072 -2.1356 -0.2220 -0.3009
 6735TIP3   OH220145   3.104   6.737   1.721  0.3609 -0.6396 -0.1168
 6735TIP3    H120146   3.025   6.784   1.693  0.9370  0.3594 -0.0940
 6735TIP3    H220147   3.070   6.665   1.774 -0.4953  0.8457  1.4598
 6736TIP3   OH220148   2.314   1.649   2.357 -0.6131  0.0182  0.2687
 6736TIP3    H120149   2.377   1.693   2.300 -0.6236 -0.3018  0.0083
 6736TIP3    H220150   2.355   1.651   2.444  0.2693 -1.1688 -0.0951
 6737TIP3   OH220151   3.524   4.397   1.036 -0.2338 -0.0929  0.0433
 6737TIP3    H120152   3.583   4.380   1.109  0.4139  1.4486 -0.0760
 6737TIP3    H220153   3.482   4.313   1.019 -0.2161 -0.5482  2.0021
 6738TIP3   OH220154   5.390   2.230   5.095 -0.2861 -0.2378 -0.2616
 6738TIP3    H120155   5.409   2.199   5.183 -1.0726 -0.5223 -0.1816
 6738TIP3    H220156   5.363   2.151   5.047 -2.4347  0.3084 -0.0200
 6739TIP3   OH220157   0.671   7.419   1.950 -0.3382 -0.1743  0.3260
 6739TIP3    H120158   0.593   7.424   2.004 -0.5295  0.1632  0.0254
 6739TIP3    H220159   0.639   7.404   1.861 -0.0050 -1.1958  0.3633
 6740TIP3   OH220160   6.308   1.421   2.326  0.0184 -0.3179  0.3852
 6740TIP3    H120161   6.282   1.462   2.409  0.8910  1.3181 -0.1088
 6740TIP3    H220162   6.278   1.482   2.259  2.3611  0.1453 -0.3205
 6741TIP3   OH220163   4.425   1.884   3.347  0.3997 -0.1951  0.2667
 6741TIP3    H120164   4.384   1.808   3.306  0.9034 -0.2565 -0.1303
 6741TIP3    H220165   4.386   1.887   3.434 -0.2416 -0.4140 -0.0036
 6742TIP3   OH220166   6.521   3.372   5.488  0.9175  0.1564 -0.3596
 6742TIP3    H120167   6.485   3.283   5.480  0.6249  0.3401 -1.2737
 6742TIP3    H220168   6.566   3.386   5.404  2.5292  0.1990  0.4803
 6743TIP3   OH220169   2.404   1.837   0.168  0.4089 -0.3318  0.0504
 6743TIP3    H120170   2.453   1.759   0.193  2.4583  1.5754  2.4969
 6743TIP3    H220171   2.337   1.847   0.236 -2.1471 -1.6707 -2.0707
 6744TIP3   OH220172   5.903   3.459   0.279  0.0379 -0.9694 -0.0508
 6744TIP3    H120173   5.840   3.483   0.210  0.1091 -0.5187  0.0370
 6744TIP3    H220174   5.968   3.529   0.276 -0.8745  0.0211  1.6327
 6745TIP3   OH220175   5.804   1.344   4.752 -0.1789  0.0164  0.3627
 6745TIP3    H120176   5.877   1.406   4.755 -0.6418  0.6072 -0.1363
 6745TIP3    H220177   5.729   1.396   4.781 -0.3204 -0.7121  1.3256
 6746TIP3   OH220178   7.683   2.571   2.525  0.0169 -0.3764  0.1193
 6746TIP3    H120179   7.663   2.616   2.607 -2.7257  1.5552 -1.4180
 6746TIP3    H220180   7.745   2.630   2.480  0.5748 -0.8300  0.2820
 6747TIP3   OH220181   6.172   2.086   3.379 -0.2164  0.6938 -0.4127
 6747TIP3    H120182   6.114   2.024   3.335 -0.2882  0.5194 -0.0696
 6747TIP3    H220183   6.257   2.073   3.336 -0.3754  0.7944 -0.7621
 6748TIP3   OH220184   7.006   4.264   1.510  0.3225  0.0679 -0.0732
 6748TIP3    H120185   7.016   4.357   1.529  0.3731  0.0167  0.1516
 6748TIP3    H220186   7.067   4.248   1.438 -2.1589  0.9694 -2.6035
 6749TIP3   OH220187   7.763   4.959   1.415 -0.0228  0.4873 -0.6305
 6749TIP3    H120188   7.752   4.872   1.375 -1.5589  0.9986 -1.4189
 6749TIP3    H220189   7.678   5.001   1.404  0.8163  2.2718 -0.6716
 6750TIP3   OH220190   6.660   3.236   4.054  0.4187  0.5629 -0.5399
 6750TIP3    H120191   6.587   3.203   4.003  0.4069 -1.1681  0.5208
 6750TIP3    H220192   6.738   3.202   4.010  0.4900  0.6155 -0.4550
 6751TIP3   OH220193   3.955   5.794   1.329  0.0931  0.3182 -0.3124
 6751TIP3    H120194   3.936   5.764   1.417  0.6334  1.7529  0.3364
 6751TIP3    H220195   3.870   5.819   1.293 -0.0734  0.1691 -0.0224
 6752TIP3   OH220196   2.015   6.025   5.948 -0.0734  0.0618  0.1367
 6752TIP3    H120197   1.950   6.076   5.899  0.2417  1.0031  0.6531
 6752TIP3    H220198   2.012   6.062   6.036  0.5698 -0.4557  0.3819
 6753TIP3   OH220199   3.176   7.531   3.040 -0.1839  0.3964  0.1755
 6753TIP3    H120200   3.213   7.617   3.022 -0.7633  1.1517  2.2919
 6753TIP3    H220201   3.238   7.490   3.101 -0.1230 -0.5521 -0.4917
 6754TIP3   OH220202   5.961   3.946   2.069 -0.5625 -0.3470  0.0554
 6754TIP3    H120203   6.056   3.940   2.079 -0.5899 -1.6962 -0.3260
 6754TIP3    H220204   5.947   3.950   1.974 -0.8633  0.4454  0.1268
 6755TIP3   OH220205   2.821   6.111   5.816  0.0626 -0.0547 -0.0531
 6755TIP3    H120206   2.906   6.143   5.846  0.2122 -0.4578 -0.0352
 6755TIP3    H220207   2.778   6.081   5.896 -0.2497  0.4987 -0.0125
 6756TIP3   OH220208   0.707   5.266   5.865 -0.2484 -0.0168 -0.1078
 6756TIP3    H120209   0.650   5.196   5.896 -1.4256  0.6838 -0.6148
 6756TIP3    H220210   0.776   5.222   5.816  0.1377 -0.9419  1.2393
 6757TIP3   OH220211   6.775   5.913   4.045 -0.3833 -0.4729 -0.4078
 6757TIP3    H120212   6.766   6.008   4.056  2.0818 -0.2542  0.1429
 6757TIP3    H220213   6.779   5.900   3.951  1.0911  0.2106 -0.4649
 6758TIP3   OH220214   3.920   7.525   2.823 -0.1607 -0.0232  0.5330
 6758TIP3    H120215   3.940   7.435   2.850  2.2411  0.0280 -0.7588
 6758TIP3    H220216   3.895   7.518   2.731 -1.3902  0.5027  0.8123
 6759TIP3   OH220217   1.483   0.094   5.053 -0.1469  0.1121 -0.4208
 6759TIP3    H120218   1.525   0.173   5.018 -1.9717  1.9413  1.2656
 6759TIP3    H220219   1.436   0.124   5.130 -1.6644 -2.4912 -0.2213
 6760TIP3   OH220220   6.242   7.156   1.982 -0.3069  0.3728  0.0195
 6760TIP3    H120221   6.226   7.101   1.905  0.9681 -1.3206  0.8920
 6760TIP3    H220222   6.330   7.191   1.968  0.6187 -1.2255  1.3399
 6761TIP3   OH220223   3.521   5.965   0.444 -0.3971 -0.0228 -0.1530
 6761TIP3    H120224   3.578   5.928   0.377  1.3949 -0.0613  1.3113
 6761TIP3    H220225   3.524   6.060   0.429 -0.1457 -0.0464 -0.2563
 6762TIP3   OH220226   7.068   4.597   3.753  0.5680  0.4180  0.2868
 6762TIP3    H120227   7.144   4.582   3.810  0.7899  0.9306  0.1247
 6762TIP3    H220228   6.993   4.591   3.812  0.3990 -3.4553 -0.0098
 6763TIP3   OH220229   8.146   7.218   4.125 -0.2613 -0.1150 -0.4256
 6763TIP3    H120230   8.230   7.181   4.153  0.3472  0.6158 -1.2344
 6763TIP3    H220231   8.151   7.310   4.149 -0.6198  0.0507 -0.9762
 6764TIP3   OH220232   3.626   5.782   4.425 -0.5651  0.2379 -0.0539
 6764TIP3    H120233   3.650   5.787   4.333  0.5712 -4.6267 -0.2584
 6764TIP3    H220234   3.704   5.811   4.473 -0.0581 -0.1821 -0.6295
 6765TIP3   OH220235   6.413   3.455   1.204  0.4732 -0.0476  0.4448
 6765TIP3    H120236   6.409   3.456   1.300 -0.4262 -0.6083  0.4307
 6765TIP3    H220237   6.326   3.484   1.177  0.2627 -1.2163 -0.1849
 6766TIP3   OH220238   8.287   4.680   2.902 -0.4545 -0.1045  0.1165
 6766TIP3    H120239   8.287   4.762   2.852  0.4013  0.3490  0.8252
 6766TIP3    H220240   8.371   4.680   2.948 -0.3324 -1.5114 -0.0586
 6767TIP3   OH220241   7.413   2.251   3.929  0.2259  0.1690 -0.0330
 6767TIP3    H120242   7.366   2.333   3.914  1.1533  0.7958  0.4186
 6767TIP3    H220243   7.411   2.206   3.844  0.5644  1.1051 -0.5410
 6768TIP3   OH220244   5.411   3.226   3.447 -0.1369  0.1797 -0.0111
 6768TIP3    H120245   5.376   3.161   3.387 -0.7790  0.9679 -0.5061
 6768TIP3    H220246   5.501   3.197   3.463 -0.0678 -0.2447 -1.0659
 6769TIP3   OH220247   1.822   3.968   6.816  0.4889  0.3596 -0.1621
 6769TIP3    H120248   1.783   3.976   6.729 -0.4349  1.0902  0.2919
 6769TIP3    H220249   1.896   4.029   6.815  2.4210 -1.8862 -1.4120
 6770TIP3   OH220250   2.730   5.938   5.297 -0.1494 -0.0982  0.0715
 6770TIP3    H120251   2.745   6.031   5.308 -0.7076  0.3467 -2.2969
 6770TIP3    H220252   2.695   5.909   5.381  1.1910  1.5277  1.2687
 6771TIP3   OH220253   3.173   5.191   1.565  0.0151 -0.3723  0.2974
 6771TIP3    H120254   3.208   5.188   1.476  0.1864 -0.6065  0.3698
 6771TIP3    H220255   3.096   5.248   1.559 -1.5952 -2.4989 -0.5529
 6772TIP3   OH220256   1.742   1.296   3.715 -0.1546 -0.5509 -0.1150
 6772TIP3    H120257   1.648   1.282   3.713 -0.5520  1.7411 -0.3168
 6772TIP3    H220258   1.760   1.349   3.637  1.8419 -3.5135 -1.8435
 6773TIP3   OH220259   0.185   5.439   3.158  0.6052 -1.0746  0.1544
 6773TIP3    H120260   0.132   5.438   3.078 -0.1455 -2.6843  0.6270
 6773TIP3    H220261   0.141   5.376   3.216  1.5528 -0.4780  1.5592
 6774TIP3   OH220262   6.561   7.067   6.030  0.0288 -0.2310  0.5141
 6774TIP3    H120263   6.578   6.973   6.038  1.3287 -0.0447  0.1430
 6774TIP3    H220264   6.493   7.074   5.964  0.6479 -0.8682 -0.2064
 6775TIP3   OH220265   1.517   7.143   2.960  0.5613 -0.1730  0.0587
 6775TIP3    H120266   1.437   7.090   2.955 -0.8119  1.6879  1.1305
 6775TIP3    H220267   1.587   7.078   2.961 -0.9738 -1.9469  0.3658
 6776TIP3   OH220268   6.579   7.111   3.775  0.1917 -0.0530  0.5675
 6776TIP3    H120269   6.667   7.148   3.769  0.1021  0.1493  0.4737
 6776TIP3    H220270   6.547   7.139   3.861  0.9049 -1.6714  1.3794
 6777TIP3   OH220271   2.027   0.117   5.007 -0.4465  0.4197 -0.1476
 6777TIP3    H120272   2.063   0.192   5.055 -0.2265  1.0413 -1.2563
 6777TIP3    H220273   2.017   0.049   5.074  1.8872  0.5294  0.3810
 6778TIP3   OH220274   1.766   5.012   4.290  0.4051 -0.6577 -0.8241
 6778TIP3    H120275   1.825   4.950   4.248  0.1424 -0.6188 -1.2473
 6778TIP3    H220276   1.726   4.962   4.361  3.9497  0.3326  2.2117
 6779TIP3   OH220277   7.234   0.929   0.853 -0.2699  0.6168 -0.0564
 6779TIP3    H120278   7.251   0.849   0.904  1.0958  1.1103  0.2838
 6779TIP3    H220279   7.147   0.957   0.883 -1.3280 -1.3515 -1.0279
 6780TIP3   OH220280   0.991   6.070   6.793 -0.3170  0.0621  0.1711
 6780TIP3    H120281   0.943   6.085   6.711  1.6713  0.7899 -0.9375
 6780TIP3    H220282   1.068   6.020   6.766  1.2518  1.7510  1.2786
 6781TIP3   OH220283   5.467   5.435   6.602 -0.1842  0.5052  0.0712
 6781TIP3    H120284   5.526   5.361   6.616 -0.4093  0.4425  0.7073
 6781TIP3    H220285   5.427   5.418   6.517  0.3567  0.3074 -0.1497
 6782TIP3   OH220286   4.382   3.825   6.857  0.4220 -0.4110 -0.0449
 6782TIP3    H120287   4.381   3.917   6.830  1.6370  0.6689  3.1453
 6782TIP3    H220288   4.290   3.800   6.858  0.0410  0.8366 -0.7497
 6783TIP3   OH220289   5.064   4.849   6.655  0.2996 -0.1045 -0.1657
 6783TIP3    H120290   4.982   4.816   6.694  0.4142  1.7432  1.7834
 6783TIP3    H220291   5.115   4.881   6.729  2.7617 -0.9917 -1.3582
 6784TIP3   OH220292   4.903   2.605   3.611 -0.0618 -0.7909  0.1332
 6784TIP3    H120293   4.811   2.607   3.586 -0.1704  0.2172  0.5795
 6784TIP3    H220294   4.948   2.567   3.536 -0.8685 -1.5565  0.0230
 6785TIP3   OH220295   4.563   7.807   6.692  0.0908 -0.2825 -0.5509
 6785TIP3    H120296   4.511   7.843   6.765  0.6715 -1.2190  0.3435
 6785TIP3    H220297   4.637   7.866   6.684  0.8837 -1.0610  0.7182
 6786TIP3   OH220298   7.903   2.689   4.831  0.1314 -0.1463  0.1124
 6786TIP3    H120299   7.978   2.693   4.890 -0.4016  0.5002  0.7562
 6786TIP3    H220300   7.938   2.717   4.746  1.2142 -2.3485 -0.2430
 6787TIP3   OH220301   4.794   7.881   0.241 -0.5257 -0.2738  0.5657
 6787TIP3    H120302   4.736   7.805   0.251  0.5130 -1.2452 -0.3865
 6787TIP3    H220303   4.755   7.948   0.296 -1.9435 -1.2330  0.8093
 6788TIP3   OH220304   4.696   5.115   6.542 -0.6343 -0.7086 -0.6135
 6788TIP3    H120305   4.640   5.183   6.503 -0.6951 -1.1886 -1.3787
 6788TIP3    H220306   4.785   5.144   6.525 -0.6591 -0.7850 -0.8670
 6789TIP3   OH220307   6.190   4.018   6.141  0.6325  0.0021  0.5022
 6789TIP3    H120308   6.255   4.059   6.084 -0.0394  0.7266  0.2463
 6789TIP3    H220309   6.194   4.067   6.223 -1.3597  1.7717 -0.3675
 6790TIP3   OH220310   2.248   1.774   5.035 -0.3252  0.1775 -0.2233
 6790TIP3    H120311   2.200   1.822   4.967 -1.1635  0.5627  0.6162
 6790TIP3    H220312   2.199   1.692   5.045 -0.2483  0.1566 -0.0273
 6791TIP3   OH220313   7.815   7.328   4.812 -0.1591 -0.1727  0.0184
 6791TIP3    H120314   7.789   7.254   4.758  0.8941 -0.5970  0.0721
 6791TIP3    H220315   7.835   7.289   4.897 -0.2416  0.2691  0.2411
 6792TIP3   OH220316   3.031   1.288   4.651 -0.5930  0.1031 -0.2836
 6792TIP3    H120317   3.092   1.319   4.584 -0.7524 -0.9337 -0.9401
 6792TIP3    H220318   2.948   1.277   4.604 -0.8856  0.0497  0.2446
 6793TIP3   OH220319   1.751   2.163   0.965  0.0856  0.2589  0.3888
 6793TIP3    H120320   1.806   2.130   0.894 -2.5397  0.3082 -1.8017
 6793TIP3    H220321   1.720   2.248   0.934 -1.2892  0.1983  1.4907
 6794TIP3   OH220322   0.752   3.605   0.912 -0.1234  0.2948 -0.2312
 6794TIP3    H120323   0.706   3.687   0.899  1.2356  1.2096  0.4481
 6794TIP3    H220324   0.721   3.548   0.841 -2.0220  0.9328  0.0256
 6795TIP3   OH220325   8.214   2.188   5.994 -0.0197  0.2833 -0.2341
 6795TIP3    H120326   8.287   2.129   6.012  0.6440  0.8486 -0.9969
 6795TIP3    H220327   8.204   2.184   5.898 -1.4037 -0.2683 -0.0972
 6796TIP3   OH220328   1.372   6.024   0.889  0.5230  0.9259  0.5766
 6796TIP3    H120329   1.461   6.055   0.876  1.7602 -1.1204  3.3126
 6796TIP3    H220330   1.353   5.972   0.811  2.3477  0.1231  0.6221
 6797TIP3   OH220331   5.434   2.963   4.948 -0.0120 -0.7532 -1.0254
 6797TIP3    H120332   5.353   3.002   4.917 -0.8953 -1.2104  0.5948
 6797TIP3    H220333   5.406   2.888   5.001  1.3717 -0.0767  0.7618
 6798TIP3   OH220334   4.419   7.437   2.878 -0.9514 -0.6809 -0.0082
 6798TIP3    H120335   4.373   7.372   2.932  1.4360 -2.4506  0.0579
 6798TIP3    H220336   4.404   7.408   2.788 -0.5838 -0.8365 -0.0208
 6799TIP3   OH220337   0.553   0.347   3.623  0.4514  0.6255  0.4201
 6799TIP3    H120338   0.593   0.411   3.564 -0.2585  0.1439 -0.6131
 6799TIP3    H220339   0.574   0.262   3.584  0.0530  0.2909  0.9229
 6800TIP3   OH220340   1.928   1.971   2.392  0.5286  0.6294 -0.1106
 6800TIP3    H120341   1.843   1.934   2.414  0.9353 -0.8834 -0.8626
 6800TIP3    H220342   1.931   1.969   2.296  1.3522  0.7562 -0.1005
 6801TIP3   OH220343   8.409   3.402   2.877  0.1468  0.3850 -0.1457
 6801TIP3    H120344   8.361   3.393   2.795 -0.4522  0.3303  0.2041
 6801TIP3    H220345   8.348   3.447   2.936  0.0325 -0.8479  0.7085
 6802TIP3   OH220346   1.649   6.668   4.680  0.6214  0.0800 -0.0781
 6802TIP3    H120347   1.644   6.755   4.721  0.5815 -0.5094  1.2026
 6802TIP3    H220348   1.644   6.607   4.753 -2.0198 -1.0957 -1.0999
 6803TIP3   OH220349   0.752   2.845   1.062 -0.1626 -0.3313  0.3631
 6803TIP3    H120350   0.708   2.886   0.988 -0.4002 -1.3735 -0.0923
 6803TIP3    H220351   0.821   2.792   1.023  1.2081  0.8603  1.0325
 6804TIP3   OH220352   3.036   3.006   0.991 -0.4357  0.0044  0.1320
 6804TIP3    H120353   3.021   2.970   1.079 -1.3957  2.3952  1.0487
 6804TIP3    H220354   3.131   3.003   0.981 -0.3436 -0.8176  1.0178
 6805TIP3   OH220355   5.479   4.402   0.182  0.6835 -0.3345 -0.1629
 6805TIP3    H120356   5.538   4.478   0.183  0.9425 -0.5132 -1.1484
 6805TIP3    H220357   5.452   4.394   0.091 -0.0177 -0.9198  0.0911
 6806TIP3   OH220358   7.377   2.817   5.537  0.2121 -0.1576 -0.5987
 6806TIP3    H120359   7.460   2.864   5.532 -0.0863  0.4355 -0.1364
 6806TIP3    H220360   7.320   2.862   5.476  0.0578 -0.1993 -0.4868
 6807TIP3   OH220361   5.018   0.543   5.863 -0.3639 -0.3273 -0.2962
 6807TIP3    H120362   5.094   0.487   5.849 -1.3937 -1.2519 -2.8076
 6807TIP3    H220363   4.963   0.495   5.924  0.2198 -0.4974  0.1050
 6808TIP3   OH220364   0.962   3.828   6.327 -0.1570  0.6538 -0.0705
 6808TIP3    H120365   1.024   3.883   6.278 -0.1714  0.3371 -0.4497
 6808TIP3    H220366   1.004   3.742   6.329  0.2513  0.8581  1.2269
 6809TIP3   OH220367   4.777   0.886   5.895 -0.6766 -0.0387  0.0561
 6809TIP3    H120368   4.873   0.892   5.899 -0.6556  2.8076 -1.8480
 6809TIP3    H220369   4.746   0.959   5.949 -1.6293  0.7506 -1.4775
 6810TIP3   OH220370   0.393   2.556   3.375  0.0284 -0.3323  0.4279
 6810TIP3    H120371   0.450   2.491   3.335 -0.2024  0.0056 -0.4819
 6810TIP3    H220372   0.377   2.620   3.306  0.3081  0.7416  1.3205
 6811TIP3   OH220373   3.461   5.186   5.113  0.3428 -0.1120  0.3996
 6811TIP3    H120374   3.542   5.236   5.125  0.4834 -0.7711  2.6067
 6811TIP3    H220375   3.398   5.228   5.171 -0.0983 -1.2835  0.7987
 6812TIP3   OH220376   1.789   1.329   4.816  0.0624  0.3250  0.2489
 6812TIP3    H120377   1.843   1.345   4.738 -2.2794 -0.5622 -1.6773
 6812TIP3    H220378   1.801   1.236   4.835  0.4348  0.4863  0.8244
 6813TIP3   OH220379   1.647   5.562   3.982 -0.0464  0.1507  0.2737
 6813TIP3    H120380   1.649   5.467   3.966  2.2695  0.3352 -0.9496
 6813TIP3    H220381   1.600   5.598   3.907 -0.5282  0.0255  0.5099
 6814TIP3   OH220382   6.488   2.639   1.045 -0.3500 -0.2291 -0.2935
 6814TIP3    H120383   6.570   2.621   0.998  0.1752 -0.2953  0.6186
 6814TIP3    H220384   6.424   2.582   1.003  0.2548 -0.7736 -0.5051
 6815TIP3   OH220385   5.493   5.587   2.310 -0.3790 -0.1064  0.5390
 6815TIP3    H120386   5.578   5.611   2.346 -0.2517 -0.9388  0.8179
 6815TIP3    H220387   5.508   5.505   2.264 -0.9670 -0.1026  0.3265
 6816TIP3   OH220388   7.766   6.142   3.888  0.0673 -0.1379  0.4576
 6816TIP3    H120389   7.846   6.089   3.889  0.0694 -0.1361  0.4218
 6816TIP3    H220390   7.762   6.177   3.798  1.0449  1.4007  0.9678
 6817TIP3   OH220391   7.696   3.003   0.867  0.1440 -0.6049  0.1502
 6817TIP3    H120392   7.774   3.045   0.831 -0.2171 -0.9935 -1.1725
 6817TIP3    H220393   7.713   2.996   0.960  0.5700  1.6843  0.3046
 6818TIP3   OH220394   3.353   3.696   5.165  0.4184 -0.0576  0.9500
 6818TIP3    H120395   3.302   3.620   5.191 -1.1939  0.3398 -0.7889
 6818TIP3    H220396   3.307   3.731   5.088  3.0392  0.6660 -0.4218
 6819TIP3   OH220397   4.033   0.816   3.952 -0.3677  0.6964 -0.6348
 6819TIP3    H120398   4.094   0.889   3.936  0.8196 -0.1701 -0.2264
 6819TIP3    H220399   4.008   0.786   3.865  1.1751 -0.0310 -0.8591
 6820TIP3   OH220400   4.504   3.733   2.016  0.5343  0.2379 -0.1926
 6820TIP3    H120401   4.599   3.729   2.025  0.4621  0.5470  0.8089
 6820TIP3    H220402   4.470   3.693   2.096 -0.1574  2.0989  0.5073
 6821TIP3   OH220403   2.124   0.785   5.290  0.0033 -0.1100 -0.4369
 6821TIP3    H120404   2.045   0.811   5.242 -1.6154 -2.1013  0.9407
 6821TIP3    H220405   2.135   0.692   5.269  0.1711 -0.6237  1.7278
 6822TIP3   OH220406   4.536   5.178   5.510  0.3943  0.1070  0.6804
 6822TIP3    H120407   4.615   5.167   5.563  0.9153  0.8546  0.0959
 6822TIP3    H220408   4.569   5.195   5.421 -0.4150 -3.8774 -0.6034
 6823TIP3   OH220409   8.040   6.417   0.277  0.1070 -0.9712  0.1787
 6823TIP3    H120410   7.951   6.451   0.274  0.1060 -0.9829  0.0811
 6823TIP3    H220411   8.047   6.375   0.363 -0.0098 -1.0471  0.1519
 6824TIP3   OH220412   7.693   5.828   3.768  0.2760  0.1699  0.0689
 6824TIP3    H120413   7.786   5.831   3.745  0.0415 -0.0548 -0.9557
 6824TIP3    H220414   7.691   5.786   3.854  1.2460  1.6978  0.8995
 6825TIP3   OH220415   2.326   6.912   3.091  0.9646  0.0268  0.0624
 6825TIP3    H120416   2.394   6.952   3.145  1.5869  0.2613 -0.8724
 6825TIP3    H220417   2.367   6.898   3.006  0.9344 -2.9894  0.4228
 6826TIP3   OH220418   1.360   5.044   2.012 -0.1426  0.1098 -0.7436
 6826TIP3    H120419   1.326   4.961   2.046  0.6903 -0.2586 -0.8046
 6826TIP3    H220420   1.440   5.059   2.061 -0.4823  1.0772 -0.4650
 6827TIP3   OH220421   5.451   3.436   4.807 -0.1339  0.0736 -0.3698
 6827TIP3    H120422   5.388   3.505   4.784  1.4445  1.6629 -0.1593
 6827TIP3    H220423   5.535   3.481   4.808  0.7651 -1.5509  1.3419
 6828TIP3   OH220424   0.292   4.473   5.225 -0.6351  0.1727 -0.3464
 6828TIP3    H120425   0.270   4.402   5.285  2.6656  0.4505  1.4033
 6828TIP3    H220426   0.305   4.429   5.140  0.4570 -1.1998  0.4922
 6829TIP3   OH220427   1.506   5.340   2.610 -0.3889  0.5387 -0.5436
 6829TIP3    H120428   1.514   5.268   2.546 -1.2837  1.5177 -1.8044
 6829TIP3    H220429   1.418   5.330   2.646 -0.1463  0.4256  0.0362
 6830TIP3   OH220430   4.563   3.429   1.180 -0.4591  0.3788  0.3014
 6830TIP3    H120431   4.563   3.413   1.085 -2.8164  0.7803  0.1704
 6830TIP3    H220432   4.502   3.363   1.214 -0.6953  1.1251  1.3518
 6831TIP3   OH220433   5.395   3.290   3.812  0.1704 -0.3212 -0.0520
 6831TIP3    H120434   5.409   3.363   3.751  0.9110 -0.0475  0.4247
 6831TIP3    H220435   5.421   3.212   3.762 -0.6013 -0.2715 -0.5556
 6832TIP3   OH220436   0.256   2.460   3.024 -0.1688 -0.0057  0.8161
 6832TIP3    H120437   0.320   2.421   3.083  0.2386 -0.0386  0.3646
 6832TIP3    H220438   0.254   2.553   3.048 -0.5000 -0.1386  1.3169
 6833TIP3   OH220439   4.058   1.123   2.009 -0.0841  0.0411  0.1700
 6833TIP3    H120440   4.002   1.198   2.030 -0.7384 -0.9685  2.3585
 6833TIP3    H220441   4.130   1.128   2.072  2.8821  1.6918 -3.0021
 6834TIP3   OH220442   3.545   7.783   5.627  0.7485 -0.1151 -0.0076
 6834TIP3    H120443   3.477   7.790   5.694  0.1977 -0.5052 -0.5110
 6834TIP3    H220444   3.511   7.835   5.553  1.0727 -0.1746 -0.1977
 6835TIP3   OH220445   4.116   7.140   0.980 -0.1332  0.0820  0.7555
 6835TIP3    H120446   4.203   7.172   0.957  1.1887 -2.5027  1.7768
 6835TIP3    H220447   4.063   7.155   0.902  2.1546 -1.4373 -1.2127
 6836TIP3   OH220448   7.973   2.738   5.505 -0.2143 -0.0727 -0.3549
 6836TIP3    H120449   7.917   2.661   5.491  0.1588 -0.3522 -0.3329
 6836TIP3    H220450   8.058   2.713   5.468 -0.1731  0.4460 -0.6271
 6837TIP3   OH220451   6.434   6.622   3.358 -0.3622  0.1899 -0.8117
 6837TIP3    H120452   6.474   6.557   3.416  0.9028  1.1349 -0.6054
 6837TIP3    H220453   6.367   6.572   3.310  1.0779 -1.4529 -1.2146
 6838TIP3   OH220454   3.825   2.713   0.919 -0.6200 -0.0812 -0.0830
 6838TIP3    H120455   3.751   2.692   0.976  0.0836 -2.4289  0.0874
 6838TIP3    H220456   3.784   2.740   0.836 -1.6938 -1.1369  0.0726
 6839TIP3   OH220457   1.978   5.100   3.591  0.3049 -0.0879 -0.0015
 6839TIP3    H120458   1.907   5.137   3.539  0.1935 -2.1298 -1.4329
 6839TIP3    H220459   2.031   5.176   3.617 -0.7367  1.1963 -1.4412
 6840TIP3   OH220460   0.105   7.824   2.029  0.4254  0.1362  0.2411
 6840TIP3    H120461   0.050   7.902   2.021  1.1948  0.5826 -1.0270
 6840TIP3    H220462   0.060   7.757   1.977 -0.0209 -0.1729  0.9952
 6841TIP3   OH220463   2.811   6.705   2.306 -0.5041 -0.4822 -0.2286
 6841TIP3    H120464   2.798   6.651   2.384  0.4161  0.6305  0.7466
 6841TIP3    H220465   2.800   6.795   2.337 -3.2452 -0.0802 -2.0661
 6842TIP3   OH220466   0.454   5.580   4.431  0.0845  0.5518  0.3355
 6842TIP3    H120467   0.380   5.572   4.491  1.3746 -0.5945  1.8744
 6842TIP3    H220468   0.452   5.500   4.379  0.6682  0.1298  0.9378
 6843TIP3   OH220469   6.206   4.761   0.281  0.1568 -0.1299  0.6097
 6843TIP3    H120470   6.120   4.771   0.242 -0.2197 -4.4417 -0.2291
 6843TIP3    H220471   6.258   4.832   0.245 -2.1979  0.6109 -1.5628
 6844TIP3   OH220472   0.538   6.455   0.311  0.1053 -0.4932  0.1362
 6844TIP3    H120473   0.578   6.381   0.264 -0.3611  0.2336 -1.4601
 6844TIP3    H220474   0.451   6.464   0.272 -0.2801  0.1961  1.1073
 6845TIP3   OH220475   2.410   4.405   3.963  0.0970 -0.1143  0.2071
 6845TIP3    H120476   2.494   4.406   3.916 -0.1418  1.0340 -0.2241
 6845TIP3    H220477   2.360   4.335   3.921  1.1913 -1.5058  1.1326
 6846TIP3   OH220478   6.678   7.484   6.561 -0.5565 -0.1091  0.0465
 6846TIP3    H120479   6.640   7.495   6.649  0.2004  0.8424  0.2759
 6846TIP3    H220480   6.605   7.454   6.507 -0.9584 -1.0452  1.0686
 6847TIP3   OH220481   1.722   6.965   3.446 -0.1951 -0.2337  0.3415
 6847TIP3    H120482   1.773   6.885   3.437 -1.8288 -1.2195 -0.9673
 6847TIP3    H220483   1.758   7.009   3.522  1.3634 -1.7538  0.5406
 6848TIP3   OH220484   0.243   5.444   3.770  0.6199  0.1399 -0.4075
 6848TIP3    H120485   0.285   5.426   3.686  1.2544  0.6089 -0.1975
 6848TIP3    H220486   0.183   5.370   3.783  0.5123  0.0653 -1.2700
 6849TIP3   OH220487   3.526   6.066   2.779  0.1396 -0.2798 -0.8165
 6849TIP3    H120488   3.449   6.121   2.791 -0.7421 -1.4225 -1.1505
 6849TIP3    H220489   3.493   5.977   2.774  1.6065 -0.9466  0.4277
 6850TIP3   OH220490   5.565   4.142   5.964 -0.0522 -0.5981 -0.3035
 6850TIP3    H120491   5.639   4.131   6.024 -0.4126 -0.7316  0.1211
 6850TIP3    H220492   5.560   4.059   5.917 -0.9834 -1.2494  0.8756
 6851TIP3   OH220493   0.041   3.195   4.297 -0.4433 -0.0588 -0.0116
 6851TIP3    H120494  -0.044   3.231   4.272 -0.6463 -1.0697 -0.8520
 6851TIP3    H220495   0.073   3.253   4.366 -2.0833 -0.0036  0.7430
 6852TIP3   OH220496   2.316   1.464   0.262 -0.0796  0.0730 -0.5625
 6852TIP3    H120497   2.261   1.541   0.280 -0.0627  0.3408 -1.5536
 6852TIP3    H220498   2.255   1.397   0.232  0.0444  0.1120 -0.9056
 6853TIP3   OH220499   5.322   6.777   2.476 -0.1400  0.1301 -0.9973
 6853TIP3    H120500   5.387   6.847   2.463  0.4164 -0.6633 -2.6670
 6853TIP3    H220501   5.355   6.728   2.552  0.4232  0.5990 -0.9300
 6854TIP3   OH220502   7.327   4.225   4.111  0.3848  0.3281 -0.0059
 6854TIP3    H120503   7.258   4.165   4.140 -1.1525  1.8694 -0.3422
 6854TIP3    H220504   7.287   4.275   4.040  1.7767  1.4260 -0.0478
 6855TIP3   OH220505   8.327   4.550   2.067  0.5703 -0.2334  0.1687
 6855TIP3    H120506   8.349   4.630   2.113  3.4828 -1.0170  0.3233
 6855TIP3    H220507   8.259   4.510   2.121 -0.1822  1.5880  0.6419
 6856TIP3   OH220508   2.332   2.425   3.749 -0.0564 -0.1903  0.2561
 6856TIP3    H120509   2.325   2.339   3.708 -0.0851  0.3107 -0.8176
 6856TIP3    H220510   2.367   2.482   3.681 -1.1855  0.9269  0.5590
 6857TIP3   OH220511   5.633   5.314   3.402  0.2363  0.5889  0.8820
 6857TIP3    H120512   5.579   5.256   3.456 -0.4464  0.1341 -0.2313
 6857TIP3    H220513   5.703   5.257   3.369  0.6741  0.8734  1.3046
 6858TIP3   OH220514   3.753   2.738   6.184  0.0286 -0.5821 -0.0482
 6858TIP3    H120515   3.737   2.813   6.241 -0.5443 -0.2141 -0.6707
 6858TIP3    H220516   3.785   2.777   6.102 -0.0552 -1.0289 -0.2953
 6859TIP3   OH220517   3.290   6.464   1.831 -0.1506  0.1273  0.6542
 6859TIP3    H120518   3.304   6.509   1.748  0.0658 -2.3341 -0.7478
 6859TIP3    H220519   3.254   6.379   1.807  2.0632 -1.6196  2.8452
 6860TIP3   OH220520   6.208   1.326   1.785  0.1336  0.6260  0.0001
 6860TIP3    H120521   6.199   1.265   1.858  0.1220  0.1227 -0.4086
 6860TIP3    H220522   6.123   1.369   1.778  0.3824  1.2585  0.7794
 6861TIP3   OH220523   7.885   0.420   2.824 -0.0135 -0.7333 -0.4099
 6861TIP3    H120524   7.895   0.327   2.807  0.9616 -0.4923 -1.2373
 6861TIP3    H220525   7.800   0.428   2.868 -0.1900 -1.9782 -0.5086
 6862TIP3   OH220526   5.274   6.600   6.064  0.1169  0.1928  0.3417
 6862TIP3    H120527   5.346   6.571   6.009  0.7153  1.6334  0.3092
 6862TIP3    H220528   5.196   6.586   6.010  0.2094 -2.2588  0.7316
 6863TIP3   OH220529   0.608   5.639   2.332 -0.3828  0.2996 -0.0021
 6863TIP3    H120530   0.525   5.603   2.300 -0.2606  1.2676 -1.5352
 6863TIP3    H220531   0.587   5.730   2.354 -0.2220 -0.0708  1.8197
 6864TIP3   OH220532   2.036   3.503   3.925 -0.3470 -0.3649  0.4998
 6864TIP3    H120533   1.947   3.482   3.898 -0.3594  2.2310 -1.9443
 6864TIP3    H220534   2.043   3.469   4.014 -3.5229 -1.2417  0.5214
 6865TIP3   OH220535   1.234   2.511   5.369  0.6824 -0.6186  0.3148
 6865TIP3    H120536   1.292   2.484   5.298 -0.2777 -3.9855  0.6013
 6865TIP3    H220537   1.251   2.448   5.439 -1.0867  0.2383  1.5981
 6866TIP3   OH220538   6.383   4.250   2.744 -0.5165 -0.7540 -0.3144
 6866TIP3    H120539   6.421   4.162   2.745  2.4280  0.3197  3.1599
 6866TIP3    H220540   6.451   4.304   2.703 -0.3555  0.4791  1.4863
 6867TIP3   OH220541   5.068   6.750   4.381 -0.3184 -0.5679 -0.0057
 6867TIP3    H120542   5.047   6.817   4.315 -0.2114  0.9547  1.4489
 6867TIP3    H220543   5.121   6.686   4.333 -0.1166  0.5665 -1.3748
 6868TIP3   OH220544   2.869   5.885   6.156 -0.4697 -0.3322 -0.3056
 6868TIP3    H120545   2.939   5.886   6.222  1.5835 -0.9899 -2.3318
 6868TIP3    H220546   2.913   5.858   6.075 -2.9578 -0.0226 -1.8677
 6869TIP3   OH220547   3.255   1.403   3.020 -0.2885  0.1502  0.0073
 6869TIP3    H120548   3.243   1.371   2.931  0.6702 -2.1137  0.6193
 6869TIP3    H220549   3.172   1.383   3.064  0.1385 -1.0891  0.2628
 6870TIP3   OH220550   0.045   2.231   0.287  0.1805 -0.0963  0.1348
 6870TIP3    H120551   0.077   2.205   0.201  1.1729  0.7074  0.2488
 6870TIP3    H220552   0.124   2.253   0.336 -0.5453  2.8360  0.1462
 6871TIP3   OH220553   0.866   0.332   4.858  0.5402 -0.3991 -0.3022
 6871TIP3    H120554   0.882   0.254   4.912  0.1104 -0.4679 -0.2722
 6871TIP3    H220555   0.806   0.302   4.789  0.3005 -0.0732 -0.2378
 6872TIP3   OH220556   6.546   2.120   6.101  0.0989 -0.1140 -0.3194
 6872TIP3    H120557   6.578   2.042   6.055  1.1481 -0.4188  0.8681
 6872TIP3    H220558   6.452   2.107   6.107  0.2332 -1.2119 -0.2981
 6873TIP3   OH220559   0.153   3.009   4.440 -0.5381 -0.4675 -0.6536
 6873TIP3    H120560   0.134   3.075   4.374  0.7922  1.8764  1.1402
 6873TIP3    H220561   0.077   3.011   4.499 -0.2754 -0.1641 -0.3225
 6874TIP3   OH220562   7.644   2.847   0.200  0.0737 -0.2316 -0.5023
 6874TIP3    H120563   7.670   2.756   0.185  1.2824  0.0369 -0.1586
 6874TIP3    H220564   7.586   2.843   0.276  1.4530 -0.5626  0.5823
 6875TIP3   OH220565   3.762   4.243   2.980  0.4340  0.3538  0.1111
 6875TIP3    H120566   3.846   4.204   2.954 -0.0263  0.2466 -1.2543
 6875TIP3    H220567   3.746   4.208   3.068  1.3183 -0.4340 -0.0273
 6876TIP3   OH220568   1.212   1.574   0.792 -0.0469 -0.5401  0.1276
 6876TIP3    H120569   1.237   1.587   0.884  0.2205 -1.5452  0.2141
 6876TIP3    H220570   1.210   1.662   0.755  0.3073 -0.1596  0.9772
 6877TIP3   OH220571   1.683   2.145   5.262  0.1816 -0.5688  0.0606
 6877TIP3    H120572   1.759   2.103   5.301 -0.1268 -0.9374  0.2849
 6877TIP3    H220573   1.700   2.238   5.268  1.6569 -0.6440 -1.9795
 6878TIP3   OH220574   7.955   7.755   0.647  0.8915 -0.4690 -0.0298
 6878TIP3    H120575   7.864   7.782   0.638  0.6955 -0.8665  0.6839
 6878TIP3    H220576   7.978   7.779   0.737  1.0481 -1.6788  0.2649
 6879TIP3   OH220577   1.868   1.463   1.750  0.0997 -0.3600  0.0309
 6879TIP3    H120578   1.946   1.489   1.800  0.0224 -1.3354  0.6791
 6879TIP3    H220579   1.794   1.492   1.804  0.0166 -1.3869  0.5036
 6880TIP3   OH220580   7.394   1.230   3.358 -0.1308 -0.2040  0.8665
 6880TIP3    H120581   7.466   1.293   3.351 -0.1207 -0.0214  2.2997
 6880TIP3    H220582   7.423   1.155   3.306 -1.0060  1.6526 -2.6257
 6881TIP3   OH220583   3.964   5.534   1.217  0.3710  0.2073 -0.2797
 6881TIP3    H120584   3.872   5.510   1.213 -0.1695  2.2406 -1.4742
 6881TIP3    H220585   3.966   5.615   1.269  1.3603  0.6125 -0.9011
 6882TIP3   OH220586   7.426   3.687   3.970  0.5235 -0.9003  0.1883
 6882TIP3    H120587   7.361   3.654   3.908  0.2750  1.4240 -0.9202
 6882TIP3    H220588   7.375   3.730   4.038  0.8437  0.4500 -0.3933
 6883TIP3   OH220589   6.388   7.707   3.471 -0.9605 -0.1745  0.0930
 6883TIP3    H120590   6.340   7.751   3.401  0.5544  2.1561  0.4113
 6883TIP3    H220591   6.446   7.645   3.426 -0.8442  0.4562 -0.6406
 6884TIP3   OH220592   3.145   5.851   6.286 -0.2999  0.8806  0.1777
 6884TIP3    H120593   3.160   5.945   6.273  0.0556  1.0160  1.4140
 6884TIP3    H220594   3.150   5.840   6.381 -0.2824 -0.4040  0.0347
 6885TIP3   OH220595   6.032   5.801   4.211 -0.2710  0.5361 -0.6153
 6885TIP3    H120596   5.951   5.811   4.262 -0.0396  0.5827 -0.2540
 6885TIP3    H220597   6.094   5.762   4.272  0.2916  1.4592 -0.5787
 6886TIP3   OH220598   2.725   2.077   1.098  0.1468  0.4066 -0.2590
 6886TIP3    H120599   2.695   2.152   1.149 -1.1712  1.4797 -2.4835
 6886TIP3    H220600   2.704   2.099   1.008  0.3434 -2.3744 -1.0738
 6887TIP3   OH220601   6.344   6.443   4.067 -0.3839  0.2496 -0.6483
 6887TIP3    H120602   6.289   6.426   3.990  0.7153 -2.3426 -0.9459
 6887TIP3    H220603   6.304   6.392   4.137  0.7081 -0.4076 -0.4780
 6888TIP3   OH220604   6.911   5.083   4.144  0.8068 -0.2145 -0.3264
 6888TIP3    H120605   6.984   5.122   4.193  1.2359 -1.4081  0.0326
 6888TIP3    H220606   6.858   5.040   4.211 -0.2716  0.6723 -0.5835
 6889TIP3   OH220607   0.475   5.291   6.812  0.3958 -0.4024 -0.2605
 6889TIP3    H120608   0.418   5.367   6.801 -1.4600 -1.5768  0.6111
 6889TIP3    H220609   0.562   5.328   6.825 -0.3838  1.5511 -0.1816
 6890TIP3   OH220610   7.458   6.176   2.504 -0.2420  0.0882  0.6010
 6890TIP3    H120611   7.403   6.251   2.480  0.0207  0.3336  0.7637
 6890TIP3    H220612   7.466   6.182   2.599  0.2562  0.1899  0.5550
 6891TIP3   OH220613   4.693   6.726   3.850  0.2578  0.4969 -0.0459
 6891TIP3    H120614   4.617   6.757   3.800  1.1901 -0.3723 -2.1124
 6891TIP3    H220615   4.768   6.771   3.811  0.8810  1.2141  1.8539
 6892TIP3   OH220616   6.972   0.976   4.682  0.3661 -0.0230  0.3377
 6892TIP3    H120617   7.020   1.043   4.731  0.1571 -0.9564  1.8722
 6892TIP3    H220618   6.974   0.899   4.738 -2.1671 -0.3487  0.1035
 6893TIP3   OH220619   8.042   1.586   3.480  0.0269 -0.2173  0.5451
 6893TIP3    H120620   7.953   1.603   3.449 -0.0976  1.1120  1.6016
 6893TIP3    H220621   8.088   1.668   3.467  0.9372 -0.7043  0.6325
 6894TIP3   OH220622   1.212   5.592   4.132 -0.6152 -0.1517 -0.0057
 6894TIP3    H120623   1.219   5.653   4.205  0.7325  1.4942 -1.4431
 6894TIP3    H220624   1.119   5.595   4.108 -0.6927  0.7887  0.3788
 6895TIP3   OH220625   7.874   2.115   4.999  0.1473 -0.1432 -0.0502
 6895TIP3    H120626   7.848   2.126   4.908  0.8371 -1.0530 -0.3789
 6895TIP3    H220627   7.968   2.132   5.000  0.7235 -2.8778 -0.0839
 6896TIP3   OH220628   6.761   3.770   2.326  0.4682 -0.1241 -0.6786
 6896TIP3    H120629   6.758   3.801   2.417  0.7274 -1.3240 -0.2343
 6896TIP3    H220630   6.808   3.838   2.279  0.2298  0.5735  0.0721
 6897TIP3   OH220631   3.890   6.687   4.174  0.2896 -0.2832 -0.0108
 6897TIP3    H120632   3.951   6.673   4.101 -2.4842 -0.8788 -2.3822
 6897TIP3    H220633   3.843   6.604   4.183 -3.2539  1.3753 -1.4201
 6898TIP3   OH220634   1.968   6.677   4.527  0.2116 -0.2294 -0.3169
 6898TIP3    H120635   2.013   6.593   4.530 -0.1219 -0.3921  0.3752
 6898TIP3    H220636   1.879   6.658   4.558 -0.7629 -0.1511 -2.8776
 6899TIP3   OH220637   6.070   2.957   3.137 -0.6264  0.1369  0.0249
 6899TIP3    H120638   6.158   2.923   3.153 -0.2384  1.0231 -0.1762
 6899TIP3    H220639   6.077   3.051   3.154 -2.5297 -0.2986  4.1541
 6900TIP3   OH220640   7.720   7.612   3.431 -0.2772  0.3697 -0.3433
 6900TIP3    H120641   7.803   7.636   3.473  0.0632  1.5331 -1.5777
 6900TIP3    H220642   7.734   7.523   3.398  0.1947  0.2517  0.1707
 6901TIP3   OH220643   6.252   3.806   4.689  0.0934 -0.1761  0.8834
 6901TIP3    H120644   6.336   3.816   4.642 -0.3227 -1.4203 -0.2100
 6901TIP3    H220645   6.193   3.868   4.646  0.4177  0.6546  1.6111
 6902TIP3   OH220646   6.258   3.981   1.180 -0.6977 -0.0980  0.2314
 6902TIP3    H120647   6.217   4.049   1.232  1.0383 -0.2211  1.8872
 6902TIP3    H220648   6.351   4.003   1.180 -0.1674 -2.0861  0.2850
 6903TIP3   OH220649   6.032   7.040   3.191  0.9708 -0.5071 -0.3979
 6903TIP3    H120650   6.078   7.121   3.166 -0.7668  0.5441 -0.4024
 6903TIP3    H220651   5.948   7.071   3.225 -0.3004 -2.3651 -1.6424
 6904TIP3   OH220652   5.005   2.019   2.277 -0.2139  0.7673  0.0334
 6904TIP3    H120653   4.931   2.061   2.321 -0.0700  1.8531 -0.7121
 6904TIP3    H220654   4.979   2.018   2.184  0.9297  1.7064 -0.3226
 6905TIP3   OH220655   1.989   3.658   0.268  0.0434  0.2938 -0.1608
 6905TIP3    H120656   2.076   3.685   0.239 -0.5457  1.2011 -1.1511
 6905TIP3    H220657   1.965   3.587   0.208 -0.8794  1.6928 -1.5360
 6906TIP3   OH220658   5.484   0.736   2.003  0.4596  0.3728  0.0089
 6906TIP3    H120659   5.434   0.807   2.043 -1.6422 -1.1741  0.3057
 6906TIP3    H220660   5.524   0.690   2.077 -2.3007 -1.6546  0.4256
 6907TIP3   OH220661   6.463   4.098   6.316 -0.0320  0.0863  0.1332
 6907TIP3    H120662   6.452   4.088   6.222  0.0584 -0.0993  0.1424
 6907TIP3    H220663   6.483   4.010   6.348  0.6729  0.2753  0.2292
 6908TIP3   OH220664   0.500   7.307   2.819 -0.1760 -0.1581 -0.0429
 6908TIP3    H120665   0.571   7.269   2.871 -0.1583  0.2517  0.2341
 6908TIP3    H220666   0.432   7.329   2.883  0.0577  0.8369 -0.1163
 6909TIP3   OH220667   2.824   5.118   3.074 -0.3880  0.3598 -0.0080
 6909TIP3    H120668   2.800   5.026   3.077  0.5895  0.1018  0.0874
 6909TIP3    H220669   2.745   5.164   3.104 -0.9175 -0.4256 -0.1555
 6910TIP3   OH220670   7.678   4.489   0.222  0.2672  0.4630  0.6968
 6910TIP3    H120671   7.601   4.432   0.215 -0.4625  1.3419  1.2967
 6910TIP3    H220672   7.750   4.429   0.243 -0.6764 -0.1605  2.4029
 6911TIP3   OH220673   2.974   5.318   1.451  0.0755  0.2819  0.4471
 6911TIP3    H120674   2.958   5.383   1.382  1.6179  0.1929 -0.0191
 6911TIP3    H220675   2.907   5.337   1.517 -0.9835  0.8320 -0.7275
 6912TIP3   OH220676   7.470   6.083   1.230 -0.0376 -0.6548 -0.1363
 6912TIP3    H120677   7.500   6.169   1.201 -1.3359 -0.4118 -0.8478
 6912TIP3    H220678   7.433   6.043   1.151  0.4787 -1.8449  0.1995
 6913TIP3   OH220679   6.195   0.127   4.484  0.2122  0.0891  0.1437
 6913TIP3    H120680   6.133   0.135   4.412  1.7343  2.3215 -1.0485
 6913TIP3    H220681   6.216   0.218   4.507  1.2525 -0.5900  2.0990
 6914TIP3   OH220682   4.743   2.041   0.587  0.1175 -0.4172  0.4738
 6914TIP3    H120683   4.700   2.078   0.664 -0.2681  1.1427 -0.4518
 6914TIP3    H220684   4.672   1.996   0.540  0.0473 -0.1078  0.2841
 6915TIP3   OH220685   7.938   4.397   4.475 -0.0048  0.2569  0.1361
 6915TIP3    H120686   7.953   4.453   4.552  0.2189 -0.6681  0.7797
 6915TIP3    H220687   8.025   4.367   4.450 -0.0490  0.7373 -0.6435
 6916TIP3   OH220688   8.080   6.196   4.938 -0.0912  0.2103  0.0705
 6916TIP3    H120689   8.098   6.109   4.972  2.1364  1.1940  1.6181
 6916TIP3    H220690   8.135   6.204   4.860  1.3780  0.9013  1.1183
 6917TIP3   OH220691   0.354   6.349   6.345 -0.6251 -0.1517 -0.0607
 6917TIP3    H120692   0.283   6.349   6.281 -0.1565  0.4190 -0.5885
 6917TIP3    H220693   0.311   6.363   6.429 -1.0759  0.7740 -0.4426
 6918TIP3   OH220694   4.829   4.907   6.219 -0.0533 -0.1171  0.3347
 6918TIP3    H120695   4.874   4.980   6.176  0.6727 -1.0534 -0.5158
 6918TIP3    H220696   4.863   4.829   6.177 -1.1878 -0.9428  0.8976
 6919TIP3   OH220697   1.820   0.129   6.020  0.0605  0.1349  0.1365
 6919TIP3    H120698   1.788   0.217   6.001  1.8142  0.5147 -1.3458
 6919TIP3    H220699   1.757   0.071   5.977 -1.8915  0.4999  2.2585
 6920TIP3   OH220700   6.495   1.381   6.429  0.6638 -0.2853 -0.1963
 6920TIP3    H120701   6.487   1.375   6.524 -3.5493 -1.4358 -0.4114
 6920TIP3    H220702   6.539   1.300   6.403  0.5720 -0.6257  0.6724
 6921TIP3   OH220703   0.023   5.695   6.725 -0.0659  0.0923 -0.5250
 6921TIP3    H120704   0.048   5.679   6.815  2.2217  1.0665 -0.9080
 6921TIP3    H220705  -0.067   5.728   6.730 -1.0524 -2.5654  1.0729
 6922TIP3   OH220706   6.804   4.702   5.660 -0.1427 -0.4035  0.5709
 6922TIP3    H120707   6.887   4.735   5.696 -0.7525  1.0224  0.7332
 6922TIP3    H220708   6.763   4.655   5.733 -0.2377  0.3423  1.0032
 6923TIP3   OH220709   2.949   4.475   5.427  0.2186  0.5032 -0.3794
 6923TIP3    H120710   2.870   4.522   5.454  0.9161  0.4928  1.9700
 6923TIP3    H220711   2.921   4.384   5.417 -0.0787  0.4738  0.5607
 6924TIP3   OH220712   0.158   2.652   6.218 -0.2007 -0.1539  0.9719
 6924TIP3    H120713   0.063   2.655   6.221 -0.3707 -1.3588 -1.2628
 6924TIP3    H220714   0.178   2.590   6.147  2.2284  1.7081 -0.1013
 6925TIP3   OH220715   2.418   0.998   1.779 -0.2647  0.1607 -0.3205
 6925TIP3    H120716   2.405   1.050   1.700 -0.0066  0.6185 -0.0631
 6925TIP3    H220717   2.334   1.003   1.825  0.4292  2.2465  0.8213
 6926TIP3   OH220718   7.157   7.277   6.469  0.2465  0.0089  0.4366
 6926TIP3    H120719   7.252   7.272   6.466  0.4215  1.7515  1.5071
 6926TIP3    H220720   7.139   7.365   6.501 -1.6958 -0.9089  2.0553
 6927TIP3   OH220721   7.778   4.737   6.287 -0.0174 -0.7206  0.6982
 6927TIP3    H120722   7.813   4.648   6.284 -0.1709 -0.7741 -1.0139
 6927TIP3    H220723   7.801   4.774   6.201 -1.6613  0.2029  0.6054
 6928TIP3   OH220724   3.911   5.563   3.655 -0.0505  0.3574  0.1767
 6928TIP3    H120725   3.995   5.603   3.675 -1.0496  2.3323  0.6249
 6928TIP3    H220726   3.881   5.526   3.738  0.2966 -0.2597  0.0377
 6929TIP3   OH220727   6.233   3.928   3.989 -0.1057  0.5381  0.0832
 6929TIP3    H120728   6.297   4.000   3.995  0.0510  0.5657 -1.4876
 6929TIP3    H220729   6.170   3.947   4.058  0.2494  1.8870  0.0789
 6930TIP3   OH220730   1.483   5.563   1.275  0.4514  0.3039 -0.0796
 6930TIP3    H120731   1.535   5.626   1.225 -0.4206  1.2704  0.1860
 6930TIP3    H220732   1.397   5.605   1.284 -0.2007 -0.9985 -0.0180
 6931TIP3   OH220733   5.962   6.895   4.428 -0.3658  0.2946 -0.2511
 6931TIP3    H120734   5.946   6.856   4.342 -1.2270 -0.7539  0.3584
 6931TIP3    H220735   6.057   6.890   4.439 -0.2034  0.7590 -1.2710
 6932TIP3   OH220736   6.710   5.421   1.891 -0.1461 -0.0510  0.4354
 6932TIP3    H120737   6.721   5.401   1.984  1.9066  0.0351  0.2721
 6932TIP3    H220738   6.727   5.338   1.846  0.2031  0.1985  0.0967
 6933TIP3   OH220739   5.542   7.206   0.777  0.4619  0.5348 -0.6517
 6933TIP3    H120740   5.626   7.252   0.782  0.7445  0.0116 -0.5046
 6933TIP3    H220741   5.477   7.272   0.804  1.0808  0.2607  1.7078
 6934TIP3   OH220742   7.607   4.927   4.068  0.3304 -0.1833  0.4205
 6934TIP3    H120743   7.543   4.957   4.004  0.0818  0.4837  0.9776
 6934TIP3    H220744   7.596   4.985   4.143 -0.1533 -1.6436  1.5342
 6935TIP3   OH220745   7.858   7.387   2.718  0.2710  0.1609 -0.4716
 6935TIP3    H120746   7.767   7.396   2.690 -0.0981 -0.8923  0.3187
 6935TIP3    H220747   7.885   7.475   2.743  0.1622  0.8968 -2.6714
 6936TIP3   OH220748   5.681   3.514   5.694  0.2357 -0.3020  0.1406
 6936TIP3    H120749   5.724   3.584   5.741 -0.2383  1.2659 -1.6355
 6936TIP3    H220750   5.588   3.534   5.700 -0.0654 -1.8131  1.1285
 6937TIP3   OH220751   0.719   1.944   3.156 -0.1610  0.1487 -0.3481
 6937TIP3    H120752   0.628   1.918   3.139  0.1729 -1.1568 -0.2406
 6937TIP3    H220753   0.746   1.989   3.075 -0.4361 -0.7892 -0.9742
 6938TIP3   OH220754   5.467   2.813   3.233  0.0792 -0.2758 -0.0517
 6938TIP3    H120755   5.429   2.732   3.268 -0.6051 -1.3783 -3.0631
 6938TIP3    H220756   5.561   2.801   3.243 -0.0213 -1.3944 -0.2677
 6939TIP3   OH220757   7.291   4.520   3.529  0.4431 -0.2790  0.3526
 6939TIP3    H120758   7.262   4.430   3.510  0.8364 -0.2425 -0.4441
 6939TIP3    H220759   7.218   4.559   3.576 -0.3381 -0.5608 -0.5919
 6940TIP3   OH220760   1.693   5.105   0.077 -0.4595  0.2483  0.2971
 6940TIP3    H120761   1.599   5.088   0.070 -0.4686 -0.0104  0.9540
 6940TIP3    H220762   1.727   5.032   0.129  0.1356  0.2468 -0.0829
 6941TIP3   OH220763   4.968   1.663   6.290 -0.4799  0.3454  0.8740
 6941TIP3    H120764   4.943   1.755   6.294 -2.6807 -0.1163 -0.5002
 6941TIP3    H220765   5.031   1.658   6.218 -0.7115  0.7241  0.6408
 6942TIP3   OH220766   1.487   5.158   0.633  0.0582 -0.0100 -0.2630
 6942TIP3    H120767   1.538   5.194   0.561  2.2376 -1.1251  0.6186
 6942TIP3    H220768   1.516   5.207   0.710  0.8552 -1.5748  0.4739
 6943TIP3   OH220769   7.960   4.232   1.080  0.3758  0.4142 -0.9241
 6943TIP3    H120770   7.873   4.271   1.080 -0.9333 -2.2627 -1.7416
 6943TIP3    H220771   7.977   4.209   1.172  0.9602  2.2879 -0.5125
 6944TIP3   OH220772   5.347   6.808   1.835 -0.3270  0.2591 -0.0020
 6944TIP3    H120773   5.303   6.893   1.834 -2.5518 -0.7483  2.0326
 6944TIP3    H220774   5.296   6.755   1.774  0.3183  0.0404 -0.3587
 6945TIP3   OH220775   5.318   5.615   3.338 -0.7421  0.2910 -0.2629
 6945TIP3    H120776   5.287   5.625   3.428  2.9283 -0.9648  1.3355
 6945TIP3    H220777   5.354   5.700   3.315 -0.3414  0.2043  0.0433
 6946TIP3   OH220778   4.324   4.478   1.249 -0.7783  0.2294  0.5826
 6946TIP3    H120779   4.374   4.543   1.199 -0.5617  0.4606  1.0866
 6946TIP3    H220780   4.326   4.511   1.339  0.0868 -0.9247  1.0092
 6947TIP3   OH220781   7.353   3.886   0.735 -0.8625  0.0842 -0.0771
 6947TIP3    H120782   7.268   3.888   0.689 -1.2881  0.5900  0.7145
 6947TIP3    H220783   7.334   3.845   0.819 -0.2021 -0.3084 -0.1155
 6948TIP3   OH220784   7.225   3.801   2.350 -0.3650 -0.0913  0.5260
 6948TIP3    H120785   7.286   3.785   2.422 -1.2954 -0.9969  1.1466
 6948TIP3    H220786   7.162   3.730   2.356 -0.4501 -0.2098 -1.2218
 6949TIP3   OH220787   3.884   7.137   5.142  0.1509  0.7478 -0.0475
 6949TIP3    H120788   3.891   7.169   5.052 -0.1421  0.1744 -0.2793
 6949TIP3    H220789   3.804   7.178   5.176  0.0066  0.5969 -0.2044
 6950TIP3   OH220790   5.465   5.144   2.312 -0.0898 -0.1044 -0.2703
 6950TIP3    H120791   5.409   5.152   2.388 -0.6060  0.2123 -0.6750
 6950TIP3    H220792   5.454   5.054   2.282 -0.0573 -0.1637 -0.1043
 6951TIP3   OH220793   8.214   1.223   4.667  0.1818  0.0488  0.3040
 6951TIP3    H120794   8.132   1.178   4.647 -1.0535  1.6691  1.5090
 6951TIP3    H220795   8.188   1.310   4.697  2.2666  0.2408  1.8100
 6952TIP3   OH220796   5.403   2.406   1.368 -0.2178 -0.3236  0.2223
 6952TIP3    H120797   5.371   2.368   1.286  1.4780 -0.0486 -0.6087
 6952TIP3    H220798   5.477   2.350   1.393 -0.2683  0.0189  1.1965
 6953TIP3   OH220799   2.842   1.819   6.012 -0.7249 -0.6384 -0.2758
 6953TIP3    H120800   2.771   1.830   5.949 -1.2769  1.1995  0.5894
 6953TIP3    H220801   2.813   1.749   6.069 -1.2141 -0.8371 -0.7593
 6954TIP3   OH220802   8.146   1.578   1.203  0.1140  0.4614 -0.7124
 6954TIP3    H120803   8.111   1.500   1.160  0.2879 -0.7262  1.1346
 6954TIP3    H220804   8.071   1.635   1.216  0.1363  1.0543 -2.9034
 6955TIP3   OH220805   3.476   0.332   3.374 -0.6711  0.2358  0.8365
 6955TIP3    H120806   3.538   0.399   3.402 -0.8349  0.0600  1.6184
 6955TIP3    H220807   3.519   0.289   3.300 -0.4219  0.9792  0.5447
 6956TIP3   OH220808   8.242   2.420   6.715  0.4052 -0.0387  0.4720
 6956TIP3    H120809   8.233   2.340   6.662  1.9691 -1.8697  2.7446
 6956TIP3    H220810   8.315   2.467   6.674  0.1622 -0.3087 -0.2937
 6957TIP3   OH220811   6.122   2.350   0.190 -0.0087 -0.3329 -0.0138
 6957TIP3    H120812   6.128   2.277   0.128  1.2098 -0.7116  0.5341
 6957TIP3    H220813   6.143   2.427   0.138 -0.0875 -0.5140 -0.3172
 6958TIP3   OH220814   0.453   1.881   3.183  0.6673 -0.2468 -0.4435
 6958TIP3    H120815   0.384   1.945   3.167 -0.5398 -1.4986 -0.3733
 6958TIP3    H220816   0.441   1.856   3.274  0.8686 -0.8787 -0.5895
 6959TIP3   OH220817   4.182   1.933   1.528 -0.1102  0.6566 -0.2431
 6959TIP3    H120818   4.098   1.978   1.526 -0.4559  0.0972 -3.0113
 6959TIP3    H220819   4.228   1.970   1.603 -2.5383  1.4696  0.9441
 6960TIP3   OH220820   2.605   2.811   4.158  0.0087  0.3508 -0.0402
 6960TIP3    H120821   2.583   2.751   4.086  1.7341 -1.8573  1.1222
 6960TIP3    H220822   2.687   2.852   4.131  0.9185 -0.8442  0.7815
 6961TIP3   OH220823   6.940   4.968   6.435 -0.5113  0.1377  0.0277
 6961TIP3    H120824   6.853   4.938   6.462 -0.8659 -1.7504 -2.7844
 6961TIP3    H220825   6.927   5.007   6.348  1.3337  0.6600 -0.0689
 6962TIP3   OH220826   8.191   0.211   5.103 -0.1222  0.3814 -0.5622
 6962TIP3    H120827   8.157   0.297   5.129  1.4623  1.1456 -0.8845
 6962TIP3    H220828   8.188   0.159   5.183  1.0607  1.4945  0.2574
 6963TIP3   OH220829   4.902   7.152   4.011  0.1387 -0.2827  0.0574
 6963TIP3    H120830   4.858   7.178   4.092 -0.0457  1.3417 -0.5376
 6963TIP3    H220831   4.833   7.153   3.945  0.5584 -0.2842 -0.3875
 6964TIP3   OH220832   7.133   6.667   5.774  0.0198 -0.6113 -0.0850
 6964TIP3    H120833   7.070   6.738   5.762  1.3435  0.3226 -2.1529
 6964TIP3    H220834   7.212   6.712   5.806  0.0335 -1.5999  1.3823
 6965TIP3   OH220835   6.070   4.680   0.786  0.1956  0.2503 -0.3130
 6965TIP3    H120836   5.982   4.659   0.755 -0.0927  2.5194 -1.2867
 6965TIP3    H220837   6.111   4.725   0.712  2.3996 -1.2081 -0.0609
 6966TIP3   OH220838   4.723   6.515   3.202 -0.1511  0.4988 -0.1656
 6966TIP3    H120839   4.664   6.506   3.277 -0.8462  0.6543 -0.6851
 6966TIP3    H220840   4.711   6.433   3.152 -0.4005  0.7936 -0.5996
 6967TIP3   OH220841   5.210   0.157   0.325 -0.1748 -0.0943  0.7754
 6967TIP3    H120842   5.146   0.226   0.308 -0.8209 -0.5869  1.1735
 6967TIP3    H220843   5.163   0.092   0.376  1.1074  0.3471  2.6399
 6968TIP3   OH220844   5.637   6.886   1.440  0.3548 -0.3827 -0.0259
 6968TIP3    H120845   5.628   6.827   1.366 -1.4760  2.0976 -1.9828
 6968TIP3    H220846   5.711   6.852   1.490 -0.7548 -4.3617 -0.8038
 6969TIP3   OH220847   1.715   0.660   5.013  0.0264  0.4758  0.0923
 6969TIP3    H120848   1.652   0.591   5.033 -1.0808  0.6926 -2.2178
 6969TIP3    H220849   1.665   0.741   5.024 -0.1314  0.6562 -1.6318
 6970TIP3   OH220850   6.017   2.475   6.839  0.0656  0.0487 -0.1713
 6970TIP3    H120851   5.928   2.470   6.803  0.8020  1.0768 -2.3245
 6970TIP3    H220852   6.032   2.390   6.879 -1.9012 -0.1172  0.2876
 6971TIP3   OH220853   6.979   5.798   3.776 -0.2273 -0.4839 -0.3461
 6971TIP3    H120854   6.930   5.761   3.850 -1.0483 -0.2610 -0.7555
 6971TIP3    H220855   7.050   5.737   3.760  1.0342  0.3505  1.7494
 6972TIP3   OH220856   5.125   4.855   6.376 -0.0112 -0.1360 -0.2192
 6972TIP3    H120857   5.071   4.925   6.339  1.2532  2.3926  2.2790
 6972TIP3    H220858   5.090   4.843   6.465  0.2675 -2.2348 -0.3561
 6973TIP3   OH220859   3.258   6.400   0.606 -0.7263 -0.4900 -0.3142
 6973TIP3    H120860   3.215   6.485   0.604  1.0543  0.5299  0.9883
 6973TIP3    H220861   3.222   6.356   0.683 -1.7207 -0.9862 -1.0456
 6974TIP3   OH220862   2.296   1.749   3.973  0.1759 -0.0361  0.5264
 6974TIP3    H120863   2.270   1.822   4.029 -4.1126 -0.7848 -0.1220
 6974TIP3    H220864   2.297   1.673   4.031  0.6248 -0.0674  0.4791
 6975TIP3   OH220865   1.684   4.142   2.030 -0.2585 -0.0402  0.2957
 6975TIP3    H120866   1.720   4.108   2.112  0.1935 -0.2640  0.0150
 6975TIP3    H220867   1.730   4.225   2.016 -1.0758  0.5068  0.7804
 6976TIP3   OH220868   5.107   0.872   0.737 -0.5239  0.2606 -0.1122
 6976TIP3    H120869   5.133   0.784   0.709 -0.2805  0.7017 -1.3263
 6976TIP3    H220870   5.146   0.882   0.824  0.6621 -0.2961 -0.5578
 6977TIP3   OH220871   4.509   5.403   5.714 -0.4655 -0.3273 -0.0948
 6977TIP3    H120872   4.471   5.337   5.772  2.8220 -2.0264  0.3518
 6977TIP3    H220873   4.557   5.352   5.648  0.4919  1.5939 -0.9506
 6978TIP3   OH220874   6.651   5.033   5.174  0.2759  0.1283  0.2393
 6978TIP3    H120875   6.698   5.116   5.182  0.8097  0.0788 -1.8047
 6978TIP3    H220876   6.632   5.025   5.080  0.7941 -2.3319  0.2626
 6979TIP3   OH220877   1.876   4.288   0.344  0.4166  0.2542 -0.1263
 6979TIP3    H120878   1.872   4.253   0.433 -0.1388  0.0986 -0.2103
 6979TIP3    H220879   1.918   4.218   0.293 -1.9438 -0.9212 -0.5745
 6980TIP3   OH220880   6.795   6.921   4.877  0.0830  0.5150  0.3822
 6980TIP3    H120881   6.807   6.831   4.907  1.4253  0.5592  0.0325
 6980TIP3    H220882   6.855   6.972   4.932  1.9235  0.7188 -1.6898
 6981TIP3   OH220883   0.951   3.501   3.775  0.0637  0.1669 -0.2166
 6981TIP3    H120884   0.946   3.517   3.681 -0.7851 -2.1630 -0.6267
 6981TIP3    H220885   0.879   3.440   3.793 -0.6369  1.5688  2.2001
 6982TIP3   OH220886   1.805   0.297   1.570 -0.3545  0.4075  0.2990
 6982TIP3    H120887   1.878   0.348   1.534 -1.6808  2.6837  0.6504
 6982TIP3    H220888   1.823   0.207   1.542  1.5194  1.2048 -1.3279
 6983TIP3   OH220889   4.862   7.481   6.309  0.1341 -0.0006  0.3024
 6983TIP3    H120890   4.933   7.546   6.311  1.2850 -1.2206  0.8229
 6983TIP3    H220891   4.907   7.398   6.297 -1.0811 -1.0040  2.3164
 6984TIP3   OH220892   5.148   0.887   5.261  0.2216  0.4440  0.5679
 6984TIP3    H120893   5.194   0.892   5.345  1.4767  0.4255 -0.0914
 6984TIP3    H220894   5.163   0.798   5.231 -1.6401 -0.0745  1.0726
 6985TIP3   OH220895   3.601   4.300   4.154  0.8425 -0.0062  0.6713
 6985TIP3    H120896   3.666   4.321   4.087 -0.9989  0.3914 -1.0581
 6985TIP3    H220897   3.621   4.210   4.179  0.5023 -0.7922 -1.7111
 6986TIP3   OH220898   3.740   7.854   3.128  0.1646 -0.0823  0.8514
 6986TIP3    H120899   3.834   7.867   3.116  0.4692 -1.6620  1.3114
 6986TIP3    H220900   3.722   7.887   3.216  0.4701 -0.5853  1.1087
 6987TIP3   OH220901   2.884   6.280   6.323  0.3112  0.0543  0.0720
 6987TIP3    H120902   2.896   6.295   6.230  1.5511  0.4789  0.2788
 6987TIP3    H220903   2.953   6.332   6.365  0.9108 -1.4933  1.1287
 6988TIP3   OH220904   5.121   0.446   2.650 -0.3304  0.1887 -0.2293
 6988TIP3    H120905   5.060   0.513   2.679  0.3261  0.2596  1.0387
 6988TIP3    H220906   5.181   0.433   2.724 -0.0530 -1.3309 -0.6696
 6989TIP3   OH220907   2.429   1.818   3.673  0.7303  0.2801  0.2656
 6989TIP3    H120908   2.346   1.817   3.625  0.8868 -1.3133 -0.0313
 6989TIP3    H220909   2.422   1.892   3.732 -0.2785  1.1039 -0.8422
 6990TIP3   OH220910   2.416   3.407   3.056 -0.2721 -0.4222  0.0389
 6990TIP3    H120911   2.510   3.426   3.051 -0.5843  0.9739 -1.3156
 6990TIP3    H220912   2.411   3.312   3.048  1.0690 -0.6303  1.1872
 6991TIP3   OH220913   6.409   3.416   2.612 -0.2506  0.4756  0.4143
 6991TIP3    H120914   6.395   3.327   2.580  1.0013  0.2495  0.4214
 6991TIP3    H220915   6.498   3.414   2.648  0.1882  1.9923 -0.5017
 6992TIP3   OH220916   1.916   0.938   1.393  0.3921  0.2337  0.0491
 6992TIP3    H120917   1.856   0.907   1.325  0.1461  1.8050 -0.4877
 6992TIP3    H220918   1.859   0.952   1.469  0.4644 -0.3618  0.2194
 6993TIP3   OH220919   7.768   0.384   2.052 -0.4569 -0.1257 -0.3643
 6993TIP3    H120920   7.724   0.428   2.125 -1.1576 -0.6306 -0.4681
 6993TIP3    H220921   7.698   0.339   2.005 -0.1828  1.0637 -2.0108
 6994TIP3   OH220922   2.760   0.072   1.550  0.0338 -0.1215  0.0991
 6994TIP3    H120923   2.803   0.138   1.604 -1.6491  0.6023  0.6056
 6994TIP3    H220924   2.823  -0.001   1.547  0.7606  0.3857  1.8483
 6995TIP3   OH220925   8.275   2.366   2.562  1.0298  0.2004 -0.3428
 6995TIP3    H120926   8.314   2.285   2.527  1.5630  0.5919 -0.6664
 6995TIP3    H220927   8.240   2.340   2.647  2.6433 -0.0241  0.3038
 6996TIP3   OH220928   5.665   1.589   0.103  0.0687  0.3607  0.0473
 6996TIP3    H120929   5.746   1.556   0.140  1.1275 -0.0990 -2.4726
 6996TIP3    H220930   5.597   1.563   0.166  1.5161 -1.8555  0.7992
 6997TIP3   OH220931   2.448   2.189   2.426  0.4330 -0.4425 -0.5028
 6997TIP3    H120932   2.461   2.283   2.439  1.5769 -0.8326  1.8122
 6997TIP3    H220933   2.440   2.178   2.332 -4.0020  2.4634 -0.8013
 6998TIP3   OH220934   7.169   4.138   1.987 -0.1155  0.1567 -0.2610
 6998TIP3    H120935   7.192   4.053   2.023  1.5704  0.7134  0.0530
 6998TIP3    H220936   7.195   4.133   1.895 -1.4444 -0.1622 -0.6462
 6999TIP3   OH220937   3.395   7.355   4.759  0.2457 -0.1737 -0.1394
 6999TIP3    H120938   3.363   7.385   4.844 -0.0939 -1.0279  0.0395
 6999TIP3    H220939   3.489   7.341   4.771  0.0557 -1.0896  0.3298
 7000TIP3   OH220940   6.748   5.106   6.168 -0.4341 -0.1542 -0.3440
 7000TIP3    H120941   6.675   5.093   6.107 -1.6034 -1.2324  1.2118
 7000TIP3    H220942   6.710   5.158   6.240  0.4255 -0.4311  0.3239
 7001TIP3   OH220943   2.120   7.201   0.588  0.0613  0.3233  0.2199
 7001TIP3    H120944   2.153   7.286   0.617 -0.5686  0.9461 -0.8734
 7001TIP3    H220945   2.181   7.174   0.520 -0.9302  0.8954 -0.9232
 7002TIP3   OH220946   3.769   5.613   6.203  0.2927  0.1199  0.3136
 7002TIP3    H120947   3.758   5.704   6.230 -5.2328 -0.6166  1.7505
 7002TIP3    H220948   3.747   5.561   6.280 -0.0447 -2.3923 -1.3301
 7003TIP3   OH220949   2.006   7.167   1.479 -0.0638 -0.3716 -0.4289
 7003TIP3    H120950   2.010   7.239   1.417 -1.2517  0.6703  0.6605
 7003TIP3    H220951   2.021   7.207   1.564 -0.0855 -1.5205  0.1378
 7004TIP3   OH220952   2.793   0.201   4.154 -0.3507 -0.3445 -0.2976
 7004TIP3    H120953   2.706   0.223   4.121 -0.5577 -0.7283 -0.0230
 7004TIP3    H220954   2.779   0.123   4.208  0.2806 -0.8483 -0.8390
 7005TIP3   OH220955   0.368   3.211   6.392 -0.0449 -0.0398 -0.2084
 7005TIP3    H120956   0.391   3.268   6.319 -0.5597  1.8373  1.0369
 7005TIP3    H220957   0.405   3.254   6.469 -0.9948 -1.0535  0.8544
 7006TIP3   OH220958   4.505   3.573   6.252  0.1745  0.1728  0.2344
 7006TIP3    H120959   4.445   3.620   6.311 -0.0389  1.9317 -1.2745
 7006TIP3    H220960   4.456   3.566   6.170  0.1836 -2.8740  0.3912
 7007TIP3   OH220961   6.901   0.617   1.405 -0.4862  0.2587  0.3203
 7007TIP3    H120962   6.809   0.590   1.401 -0.0784 -1.1180 -0.4418
 7007TIP3    H220963   6.927   0.602   1.496 -1.4675  2.4208  1.0473
 7008TIP3   OH220964   0.915   3.840   3.337 -0.0410 -0.8105 -0.3371
 7008TIP3    H120965   0.843   3.837   3.274  0.4705 -1.0091 -0.9278
 7008TIP3    H220966   0.953   3.928   3.326  0.1439 -0.8995 -0.4194
 7009TIP3   OH220967   2.396   3.741   2.173  0.0585 -0.0279  0.2795
 7009TIP3    H120968   2.425   3.659   2.133  0.7496 -0.2022  1.1089
 7009TIP3    H220969   2.318   3.766   2.123  1.4596  0.3266 -1.8845
 7010TIP3   OH220970   5.464   5.921   0.084  0.5682 -0.2361  0.5853
 7010TIP3    H120971   5.473   5.857   0.014  3.4156  1.2538 -0.5405
 7010TIP3    H220972   5.482   6.005   0.043  2.8220  0.6561  3.1284
 7011TIP3   OH220973   3.016   7.632   0.424 -0.3560 -0.5696  0.3627
 7011TIP3    H120974   2.930   7.642   0.466  0.6323 -0.7094  2.5911
 7011TIP3    H220975   3.045   7.722   0.407 -1.2698 -0.5408 -1.2230
 7012TIP3   OH220976   1.892   6.749   0.436  0.0808 -0.7994 -0.0029
 7012TIP3    H120977   1.979   6.785   0.419 -0.4464 -0.6119 -2.9171
 7012TIP3    H220978   1.906   6.654   0.443  0.4954 -0.8040 -0.8047
 7013TIP3   OH220979   1.793   0.382   3.109 -0.1980  0.2556 -0.0800
 7013TIP3    H120980   1.714   0.351   3.152  0.1284 -0.2241  0.1750
 7013TIP3    H220981   1.821   0.458   3.161 -0.6979  0.6638 -0.3965
 7014TIP3   OH220982   2.262   2.633   5.797  0.5510  0.1589 -0.5661
 7014TIP3    H120983   2.325   2.687   5.845  0.6498  0.1406 -0.6751
 7014TIP3    H220984   2.176   2.666   5.825  0.5926 -0.4109  0.2711
 7015TIP3   OH220985   5.183   3.208   0.237  0.1367 -0.1941  0.1294
 7015TIP3    H120986   5.129   3.287   0.233  0.5719  0.2229  1.8143
 7015TIP3    H220987   5.129   3.141   0.195 -1.3805  0.3878  1.0784
 7016TIP3   OH220988   7.212   3.884   4.879 -0.1547  0.4759  0.0115
 7016TIP3    H120989   7.130   3.930   4.895 -0.6964 -0.5792  0.4185
 7016TIP3    H220990   7.272   3.951   4.846 -0.7295  1.5708  1.1120
 7017TIP3   OH220991   3.615   5.492   4.402 -0.0391  0.0477  0.1595
 7017TIP3    H120992   3.606   5.578   4.442  2.5659  0.0328  0.9340
 7017TIP3    H220993   3.593   5.506   4.310  0.2290  1.4983  0.3046
 7018TIP3   OH220994   1.385   2.598   5.038  0.6550  0.0758  0.4219
 7018TIP3    H120995   1.398   2.664   5.106  0.9268  0.2892  0.1655
 7018TIP3    H220996   1.294   2.610   5.010  1.6719  2.9057 -2.2534
 7019TIP3   OH220997   0.542   0.654   5.597 -0.2328  0.2337  0.0445
 7019TIP3    H120998   0.589   0.647   5.680  0.2188 -2.0121 -0.3393
 7019TIP3    H220999   0.610   0.650   5.531 -0.6812  0.8503 -0.4613
 7020TIP3   OH221000   7.392   4.729   0.062  0.1454 -0.2815 -0.2443
 7020TIP3    H121001   7.476   4.723   0.017  0.2529 -2.4551  0.1185
 7020TIP3    H221002   7.329   4.752  -0.007  1.0672  2.0679 -0.3944
 7021TIP3   OH221003   2.055   3.147   0.757  0.5954  0.6674  0.5330
 7021TIP3    H121004   2.128   3.097   0.794  0.9345  0.9521  0.2517
 7021TIP3    H221005   2.053   3.123   0.665  0.3024  0.6274  0.5478
 7022TIP3   OH221006   6.310   5.532   0.778 -0.3566 -0.0618  0.2069
 7022TIP3    H121007   6.354   5.574   0.852 -0.1470 -0.8664  0.5514
 7022TIP3    H221008   6.229   5.497   0.815 -0.8028  0.5136 -0.2031
 7023TIP3   OH221009   4.192   4.321   0.904  0.5793 -0.3012 -0.2921
 7023TIP3    H121010   4.202   4.230   0.931 -0.2649 -0.2984  0.0402
 7023TIP3    H221011   4.154   4.317   0.816 -0.4914 -0.2617  0.1618
 7024TIP3   OH221012   5.450   4.794   2.437 -0.3500 -0.1616 -0.1500
 7024TIP3    H121013   5.455   4.872   2.492  1.1776  0.9927 -1.7835
 7024TIP3    H221014   5.361   4.794   2.403 -0.5005  0.6435  0.2176
 7025TIP3   OH221015   7.436   1.905   1.289 -0.2824  0.3767  0.3483
 7025TIP3    H121016   7.347   1.875   1.307 -0.8070  0.0059 -2.3924
 7025TIP3    H221017   7.467   1.939   1.373 -3.1887  1.0365  1.2820
 7026TIP3   OH221018   2.629   4.246   0.947 -0.2503 -0.4593  0.0064
 7026TIP3    H121019   2.719   4.215   0.946 -1.1429 -3.3788 -1.2733
 7026TIP3    H221020   2.610   4.262   1.039  1.7067  0.8371  0.2425
 7027TIP3   OH221021   5.328   3.951   2.370 -0.1574 -0.2086 -0.5686
 7027TIP3    H121022   5.242   3.956   2.328 -1.5965  0.0162  2.1475
 7027TIP3    H221023   5.312   3.980   2.460  2.6391 -0.8817  0.2421
 7028TIP3   OH221024   7.283   6.553   0.756  0.4235 -0.2422  0.1310
 7028TIP3    H121025   7.295   6.477   0.813 -0.2777  1.6271  3.0271
 7028TIP3    H221026   7.195   6.543   0.720  0.7777 -1.3383 -0.4644
 7029TIP3   OH221027   6.791   1.255   2.245  0.0383 -0.6279  0.3788
 7029TIP3    H121028   6.855   1.305   2.194  0.2600  0.2869  1.5193
 7029TIP3    H221029   6.727   1.320   2.274 -0.5550 -1.2752  0.5531
 7030TIP3   OH221030   2.462   2.591   3.566  0.5144  0.8804 -0.6215
 7030TIP3    H121031   2.486   2.684   3.566  1.8732  0.5465 -0.6658
 7030TIP3    H221032   2.524   2.550   3.506 -1.1944  0.1979 -1.9995
 7031TIP3   OH221033   7.872   0.206   2.439 -0.0998 -0.1207  0.0701
 7031TIP3    H121034   7.878   0.301   2.442 -1.0600  0.0995 -2.5176
 7031TIP3    H221035   7.928   0.181   2.365 -0.8784 -1.4375 -0.1021
 7032TIP3   OH221036   7.577   5.543   5.330 -0.3441 -0.1497  0.3402
 7032TIP3    H121037   7.517   5.520   5.259  1.0506  1.7712 -1.5782
 7032TIP3    H221038   7.660   5.502   5.307  0.0956  0.4046  0.8957
 7033TIP3   OH221039   6.197   5.742   3.821 -0.2085  0.3558 -0.4252
 7033TIP3    H121040   6.285   5.772   3.799 -0.8570  1.7281 -1.2932
 7033TIP3    H221041   6.187   5.661   3.771  1.0087 -0.5509  0.7219
 7034TIP3   OH221042   6.885   6.168   5.706  0.5174 -0.2480 -0.1169
 7034TIP3    H121043   6.857   6.200   5.791 -1.1068 -1.3287 -0.2051
 7034TIP3    H221044   6.961   6.112   5.725  1.6173  1.3360  0.3260
 7035TIP3   OH221045   5.411   0.272   6.016 -0.0558 -0.7637  0.2260
 7035TIP3    H121046   5.396   0.210   6.087  0.6119 -1.3175 -0.1048
 7035TIP3    H221047   5.458   0.345   6.058  0.3190 -1.0789  0.3539
 7036TIP3   OH221048   7.426   6.338   6.587  0.2167  0.4959 -0.3507
 7036TIP3    H121049   7.391   6.348   6.499  1.4449 -1.9611 -1.2193
 7036TIP3    H221050   7.420   6.425   6.626 -0.4661  1.6238 -2.8118
 7037TIP3   OH221051   4.992   6.566   2.091 -0.1939  0.1520  0.5267
 7037TIP3    H121052   4.999   6.485   2.042 -1.2600 -0.3903  1.2497
 7037TIP3    H221053   5.072   6.570   2.144  0.2019 -0.0497 -0.0566
 7038TIP3   OH221054   5.350   4.485   3.645  0.3596  0.0259 -0.1480
 7038TIP3    H121055   5.376   4.490   3.553 -0.8305  2.1976 -0.4645
 7038TIP3    H221056   5.279   4.422   3.647  1.9600 -1.8530 -0.2329
 7039TIP3   OH221057   5.838   4.465   0.201 -0.3181 -0.0601  0.3392
 7039TIP3    H121058   5.902   4.499   0.263 -0.4269  2.2067 -0.6601
 7039TIP3    H221059   5.779   4.539   0.184  0.6582  0.0734 -3.6112
 7040TIP3   OH221060   8.279   4.984   0.285  0.1476 -0.3999  0.0989
 7040TIP3    H121061   8.226   4.904   0.280  0.3191 -0.6371  1.6123
 7040TIP3    H221062   8.369   4.954   0.274  0.2640 -0.5229  1.2341
 7041TIP3   OH221063   3.335   1.686   3.492 -0.6594  0.1606 -0.1792
 7041TIP3    H121064   3.405   1.695   3.427 -1.8660 -1.4366 -1.7947
 7041TIP3    H221065   3.288   1.769   3.489 -1.0101 -0.0637 -1.7996
 7042TIP3   OH221066   1.319   3.534   2.891  0.0290  0.2009 -0.0778
 7042TIP3    H121067   1.328   3.563   2.981 -2.0813 -0.9376  0.5537
 7042TIP3    H221068   1.274   3.605   2.846 -0.7678 -0.0733  0.2790
 7043TIP3   OH221069   2.364   6.307   2.707  0.1545 -0.2871 -0.3090
 7043TIP3    H121070   2.460   6.317   2.708  0.0999  0.2583  0.6522
 7043TIP3    H221071   2.335   6.371   2.642  0.5468 -1.7885 -2.0488
 7044TIP3   OH221072   6.002   1.195   4.341  0.4668  0.9321  0.0349
 7044TIP3    H121073   5.974   1.281   4.372  0.2118  0.4700  1.1614
 7044TIP3    H221074   6.076   1.172   4.397  1.4104  0.9985 -1.1680
 7045TIP3   OH221075   1.050   4.767   4.921  0.5386 -0.5496  0.3842
 7045TIP3    H121076   1.107   4.697   4.891  2.9652  1.6041 -0.4374
 7045TIP3    H221077   0.984   4.775   4.852  2.3740  0.2427 -1.4056
 7046TIP3   OH221078   6.792   2.991   6.198  0.2452  0.4944  0.2263
 7046TIP3    H121079   6.855   3.010   6.268  0.0680 -0.2460  0.5929
 7046TIP3    H221080   6.707   2.986   6.243  0.1987 -0.5063  0.0554
 7047TIP3   OH221081   1.614   7.111   4.496 -0.1175  0.0499  0.0461
 7047TIP3    H121082   1.693   7.161   4.516  0.5094 -1.3307  1.2162
 7047TIP3    H221083   1.550   7.177   4.470  1.2523  1.2499 -0.4274
 7048TIP3   OH221084   4.506   1.786   5.006 -0.4655  0.0319 -0.8842
 7048TIP3    H121085   4.563   1.851   5.048 -0.3893 -1.0416  0.7680
 7048TIP3    H221086   4.563   1.742   4.942  0.6701 -1.0673  0.7766
 7049TIP3   OH221087   4.696   4.826   0.377  0.4645  0.3960 -0.3070
 7049TIP3    H121088   4.784   4.831   0.340  1.0272  2.3130  1.1453
 7049TIP3    H221089   4.700   4.754   0.440  0.8361  0.1583 -0.5972
 7050TIP3   OH221090   6.814   5.455   3.302 -0.3663  0.0015 -0.2745
 7050TIP3    H121091   6.768   5.510   3.365 -1.2524 -0.0186 -0.8829
 7050TIP3    H221092   6.907   5.467   3.322 -0.6320  0.0833  0.9431
 7051TIP3   OH221093   1.728   2.501   4.690  0.0660 -0.7973 -0.7162
 7051TIP3    H121094   1.794   2.502   4.620  1.0024 -1.9117  0.1044
 7051TIP3    H221095   1.654   2.452   4.652 -0.0380 -0.1251 -1.4137
 7052TIP3   OH221096   7.445   7.159   1.785  0.1485  0.3220  0.3690
 7052TIP3    H121097   7.487   7.148   1.870 -0.2592 -0.1849  0.5146
 7052TIP3    H221098   7.382   7.230   1.799 -0.3149 -0.1297  0.6598
 7053TIP3   OH221099   0.077   2.613   5.527 -0.1077  0.3551  0.3265
 7053TIP3    H121100   0.117   2.578   5.447 -0.4292  0.7398 -0.0043
 7053TIP3    H221101   0.134   2.581   5.597  1.1264  1.3645 -0.1693
 7054TIP3   OH221102   5.555   7.690   4.308  0.3218 -0.0857  0.1903
 7054TIP3    H121103   5.514   7.768   4.270 -1.2775 -0.6560  0.6454
 7054TIP3    H221104   5.572   7.633   4.233  0.8974  0.4238 -0.0748
 7055TIP3   OH221105   0.631   6.349   3.843  0.0668  0.2949 -0.0350
 7055TIP3    H121106   0.567   6.319   3.909  1.4054  0.2026  1.2786
 7055TIP3    H221107   0.671   6.268   3.811 -0.0356  0.3909 -0.4100
 7056TIP3   OH221108   6.610   0.170   5.639  0.3275  0.3703  0.5728
 7056TIP3    H121109   6.596   0.217   5.557  2.8233  0.0387 -0.1191
 7056TIP3    H221110   6.571   0.227   5.706  1.4703  2.4902 -0.4678
 7057TIP3   OH221111   5.158   0.760   1.485  0.0769 -0.3463 -0.2742
 7057TIP3    H121112   5.120   0.673   1.497 -2.2809  0.5262 -0.9115
 7057TIP3    H221113   5.166   0.770   1.390  0.8111 -0.0557 -0.1875
 7058TIP3   OH221114   7.437   3.600   2.199  0.5596  0.2924 -0.0098
 7058TIP3    H121115   7.457   3.507   2.210 -0.8587 -0.0173  0.1777
 7058TIP3    H221116   7.372   3.603   2.129 -1.6598  0.8118  1.9431
 7059TIP3   OH221117   4.060   3.261   0.484  0.0024  0.4008  0.4052
 7059TIP3    H121118   4.112   3.181   0.481  0.7475  0.9182 -1.4169
 7059TIP3    H221119   4.072   3.301   0.398 -2.9001  0.8644  0.1000
 7060TIP3   OH221120   4.663   6.103   1.173  0.0095  0.0183  0.3667
 7060TIP3    H121121   4.618   6.180   1.207 -0.6588 -0.9581  1.7824
 7060TIP3    H221122   4.605   6.069   1.105  0.1202  0.5263  0.0153
 7061TIP3   OH221123   8.204   4.123   5.349  0.0176 -0.0477 -0.3149
 7061TIP3    H121124   8.227   4.121   5.256  1.3951 -0.3857  0.0031
 7061TIP3    H221125   8.200   4.216   5.371  1.0902  0.0430 -0.4203
 7062TIP3   OH221126   4.907   2.523   5.772 -0.6094  0.2810 -0.0103
 7062TIP3    H121127   4.830   2.515   5.828 -0.1902  1.2965  0.7388
 7062TIP3    H221128   4.878   2.495   5.686 -0.9241 -2.7188  0.9607
 7063TIP3   OH221129   8.038   6.257   6.867 -0.1831  0.1570 -0.0907
 7063TIP3    H121130   8.063   6.174   6.827 -1.0017  0.0509 -0.4059
 7063TIP3    H221131   8.120   6.295   6.897  0.1800 -0.8735  0.2757
 7064TIP3   OH221132   7.824   0.863   0.217  0.1063  0.1338 -0.3662
 7064TIP3    H121133   7.758   0.800   0.191  0.1927  0.6425 -1.9055
 7064TIP3    H221134   7.906   0.830   0.179  0.6609 -0.2080  1.0648
 7065TIP3   OH221135   1.008   6.020   4.594 -0.5826  0.2648  0.1096
 7065TIP3    H121136   0.968   6.095   4.637 -1.6612  0.6156 -1.3903
 7065TIP3    H221137   0.935   5.959   4.580 -0.1643 -0.0776 -0.6620
 7066TIP3   OH221138   7.704   7.763   1.798  0.0454  0.3243  0.4326
 7066TIP3    H121139   7.771   7.706   1.835  0.2930 -0.4265 -1.0734
 7066TIP3    H221140   7.753   7.829   1.748 -0.2654  1.3845  1.4845
 7067TIP3   OH221141   0.300   4.204   1.965 -0.1025  0.2005  0.3598
 7067TIP3    H121142   0.381   4.234   2.005  0.6851  0.9954 -1.7374
 7067TIP3    H221143   0.232   4.256   2.008  0.9908  3.2554 -1.3164
 7068TIP3   OH221144   7.557   7.456   1.067  0.0991 -0.4078  0.2767
 7068TIP3    H121145   7.557   7.472   0.973 -0.5380  3.1430  0.7423
 7068TIP3    H221146   7.587   7.365   1.076  0.9256 -0.6281 -3.2632
 7069TIP3   OH221147   2.743   2.490   3.775  0.3890 -0.3791  0.3211
 7069TIP3    H121148   2.769   2.417   3.720  0.2572  0.2207 -0.5627
 7069TIP3    H221149   2.713   2.557   3.713 -1.5543 -0.3782  1.1878
 7070TIP3   OH221150   1.335   4.501   1.923  0.2212 -0.2121 -0.1586
 7070TIP3    H121151   1.264   4.526   1.982  1.0784  0.8551  0.4605
 7070TIP3    H221152   1.297   4.433   1.867 -0.2321 -2.3855  2.5439
 7071TIP3   OH221153   3.404   3.516   4.067 -0.0244 -0.1664  0.1983
 7071TIP3    H121154   3.472   3.557   4.013 -0.1880  0.3976  0.4187
 7071TIP3    H221155   3.324   3.525   4.015  0.3884 -2.6324 -0.9965
 7072TIP3   OH221156   0.683   1.230   4.642 -0.1615  1.1760  0.0866
 7072TIP3    H121157   0.621   1.159   4.655  1.0268  0.2558  0.8891
 7072TIP3    H221158   0.684   1.243   4.547 -0.8616  0.5650 -0.0155
 7073TIP3   OH221159   5.980   1.439   6.839  0.6173  0.1015  0.2931
 7073TIP3    H121160   5.966   1.427   6.745 -1.3060  1.5390  0.3336
 7073TIP3    H221161   6.031   1.520   6.845  2.0271 -0.7576  0.4837
 7074TIP3   OH221162   5.416   4.492   3.360  0.6172 -0.1101 -0.3734
 7074TIP3    H121163   5.423   4.542   3.278  2.2157  0.5559  0.1314
 7074TIP3    H221164   5.417   4.401   3.332 -4.0408 -0.0912 -1.4652
 7075TIP3   OH221165   1.372   5.392   2.278  0.1663  0.1214  0.4505
 7075TIP3    H121166   1.369   5.449   2.355  0.8350  0.6363  0.1078
 7075TIP3    H221167   1.284   5.356   2.271 -0.1095  0.6740  1.0077
 7076TIP3   OH221168   2.663   1.079   4.729 -1.0100 -0.1509 -0.4216
 7076TIP3    H121169   2.637   1.077   4.821  0.0285 -1.0001 -0.1208
 7076TIP3    H221170   2.671   1.172   4.708  1.2152  0.0899  1.1085
 7077TIP3   OH221171   6.043   5.495   2.249  0.2165 -0.6999 -0.1269
 7077TIP3    H121172   6.026   5.462   2.161  0.0822 -1.1398  0.0588
 7077TIP3    H221173   6.101   5.570   2.236 -0.4799 -0.2419 -0.6434
 7078TIP3   OH221174   3.619   2.313   5.154  0.5552 -0.4226 -0.5999
 7078TIP3    H121175   3.611   2.244   5.220  0.2103 -0.8716 -1.1011
 7078TIP3    H221176   3.707   2.301   5.118  1.3801  0.8219  0.8482
 7079TIP3   OH221177   1.155   1.574   0.412  0.2644 -0.4540 -0.0234
 7079TIP3    H121178   1.123   1.485   0.428 -0.1457 -0.4675 -0.8539
 7079TIP3    H221179   1.125   1.624   0.487 -0.9878 -0.6610 -0.3591
 7080TIP3   OH221180   7.442   0.398   2.123  0.2498 -0.3944  0.0473
 7080TIP3    H121181   7.496   0.470   2.155  0.2507 -1.3664  2.4371
 7080TIP3    H221182   7.352   0.429   2.133  0.2867  0.2461 -1.4608
 7081TIP3   OH221183   4.311   7.211   2.974 -1.1686 -0.1780  0.1756
 7081TIP3    H121184   4.300   7.136   3.033  2.8700 -1.6100 -0.6125
 7081TIP3    H221185   4.253   7.192   2.900 -0.4742 -2.4189  0.1399
 7082TIP3   OH221186   7.217   7.491   0.613  0.0264  0.3048  0.3848
 7082TIP3    H121187   7.203   7.583   0.590 -2.3949 -0.3647 -1.2532
 7082TIP3    H221188   7.307   7.487   0.644  0.7150  2.9425 -0.9687
 7083TIP3   OH221189   8.104   6.337   6.353 -0.2904 -0.1917  0.0868
 7083TIP3    H121190   8.141   6.283   6.283 -2.4407 -1.5266 -0.1149
 7083TIP3    H221191   8.136   6.426   6.334  1.9684 -1.0804 -0.5507
 7084TIP3   OH221192   3.391   6.688   1.267  0.0478 -0.2526  0.3477
 7084TIP3    H121193   3.452   6.761   1.277  0.6712 -0.5394 -1.0803
 7084TIP3    H221194   3.324   6.720   1.207  0.2836 -0.8061 -0.2307
 7085TIP3   OH221195   3.082   0.510   5.762  0.5956 -0.4116  0.5851
 7085TIP3    H121196   3.119   0.589   5.803  0.0222 -0.3777  1.0557
 7085TIP3    H221197   3.005   0.490   5.815 -0.1526 -0.3938 -0.4612
 7086TIP3   OH221198   2.195   5.013   4.447 -0.3505 -0.4241 -0.3101
 7086TIP3    H121199   2.278   4.999   4.400  0.1542  1.1999  0.0138
 7086TIP3    H221200   2.145   4.933   4.431  1.5805 -1.8174  0.1374
 7087TIP3   OH221201   6.732   4.712   1.477 -0.3668 -0.2071 -0.5883
 7087TIP3    H121202   6.787   4.763   1.418 -0.1545 -2.2640 -2.2945
 7087TIP3    H221203   6.643   4.725   1.442 -0.3538 -0.7045 -0.8081
 7088TIP3   OH221204   0.991   5.189   3.598 -0.5062 -0.4442 -0.0583
 7088TIP3    H121205   0.914   5.159   3.550  0.3955 -1.3531 -1.0036
 7088TIP3    H221206   1.047   5.111   3.602  0.2237  0.1172  0.8873
 7089TIP3   OH221207   2.626   2.471   3.399  0.1076  0.0732 -0.3943
 7089TIP3    H121208   2.677   2.453   3.320  2.5980 -0.5105  1.2191
 7089TIP3    H221209   2.670   2.421   3.468 -3.1390 -1.1001  1.0689
 7090TIP3   OH221210   5.893   2.063   1.458  0.3237 -0.3754 -0.6619
 7090TIP3    H121211   5.883   2.132   1.392  1.0535 -0.7981 -1.2214
 7090TIP3    H221212   5.936   2.107   1.531  0.2591 -0.1027 -0.7836
 7091TIP3   OH221213   3.921   0.166   6.389 -0.4652  0.0188  0.4812
 7091TIP3    H121214   3.997   0.216   6.418 -1.7212  1.6388  1.0963
 7091TIP3    H221215   3.862   0.231   6.351 -0.6693 -1.4771 -2.0069
 7092TIP3   OH221216   3.042   2.473   2.555  0.0005 -0.2109  0.0915
 7092TIP3    H121217   3.061   2.488   2.648  1.5613  1.3524 -0.4211
 7092TIP3    H221218   2.949   2.450   2.552 -0.4152  1.0733  1.9026
 7093TIP3   OH221219   2.804   5.916   2.952  0.0693  0.1372 -0.2957
 7093TIP3    H121220   2.865   5.924   3.025  0.5884  0.6017 -0.7643
 7093TIP3    H221221   2.751   5.995   2.957  1.1190  0.9474 -1.3005
 7094TIP3   OH221222   0.457   1.409   2.113 -0.7585  0.2753  0.0731
 7094TIP3    H121223   0.467   1.459   2.194 -1.2649  0.9524 -0.2712
 7094TIP3    H221224   0.399   1.463   2.059 -0.6759 -0.3174 -0.6161
 7095TIP3   OH221225   1.095   1.992   3.406  0.4340  0.2266  0.3864
 7095TIP3    H121226   1.078   1.926   3.473  1.0724 -0.1605  0.1746
 7095TIP3    H221227   1.029   1.975   3.338  0.5295 -0.1244  0.3826
 7096TIP3   OH221228   2.941   4.434   6.235 -0.0522  0.0201 -0.4661
 7096TIP3    H121229   2.846   4.441   6.225 -0.2319  1.5745  1.6253
 7096TIP3    H221230   2.972   4.400   6.151 -2.1266  2.4399 -2.3564
 7097TIP3   OH221231   8.233   6.765   5.163  0.3461 -0.1033  0.3316
 7097TIP3    H121232   8.242   6.670   5.174  1.9935  0.0377  0.3472
 7097TIP3    H221233   8.143   6.783   5.190  0.2712 -1.5421  1.1482
 7098TIP3   OH221234   4.775   1.601   1.788  0.1936  0.5826 -0.0786
 7098TIP3    H121235   4.753   1.690   1.816  1.6743  1.1733 -0.6931
 7098TIP3    H221236   4.724   1.586   1.709 -0.2531  0.7850  0.1720
 7099TIP3   OH221237   2.305   2.002   0.837  0.7633  0.5789 -0.0533
 7099TIP3    H121238   2.391   1.976   0.804  0.4103  0.4572 -0.9025
 7099TIP3    H221239   2.321   2.086   0.880  1.9062 -0.8529  2.6348
 7100TIP3   OH221240   2.730   4.811   4.542 -0.1838  0.1493 -0.8426
 7100TIP3    H121241   2.662   4.744   4.552 -1.3501  1.0122 -2.5455
 7100TIP3    H221242   2.683   4.894   4.544  1.0272  0.8497 -0.4543
 7101TIP3   OH221243   7.195   0.522   2.322  0.5238 -0.2028 -0.0550
 7101TIP3    H121244   7.154   0.437   2.337 -1.0027  0.2490 -1.4788
 7101TIP3    H221245   7.277   0.517   2.372  1.3274 -3.1581 -1.4466
 7102TIP3   OH221246   7.973   3.432   1.352  0.2627  0.2705 -0.0378
 7102TIP3    H121247   8.059   3.438   1.393  0.5386  2.8080 -0.8287
 7102TIP3    H221248   7.920   3.499   1.397 -1.5617 -1.6808  0.9068
 7103TIP3   OH221249   1.287   4.019   0.932 -0.4652 -0.0183  0.2330
 7103TIP3    H121250   1.250   4.045   1.017 -0.5868  1.0463 -0.1361
 7103TIP3    H221251   1.347   4.090   0.909 -1.4827  0.4191 -1.2236
 7104TIP3   OH221252   4.336   3.030   4.434  0.1088  0.6966 -0.6336
 7104TIP3    H121253   4.304   2.943   4.411 -0.8579 -0.1373  3.1802
 7104TIP3    H221254   4.430   3.019   4.445  0.2237  0.5516 -1.6872
 7105TIP3   OH221255   7.629   7.579   4.812  0.6515 -0.1397  0.6119
 7105TIP3    H121256   7.588   7.605   4.729  1.7278  1.9753  0.6872
 7105TIP3    H221257   7.692   7.511   4.787  0.5742  0.0851 -0.2154
 7106TIP3   OH221258   2.180   1.169   1.162 -0.2937 -0.3406 -0.2882
 7106TIP3    H121259   2.239   1.195   1.091 -0.0176 -1.4074 -0.4591
 7106TIP3    H221260   2.237   1.136   1.230 -0.6974 -1.7167 -0.5915
 7107TIP3   OH221261   7.489   2.536   0.633  0.1230  0.2924  0.3887
 7107TIP3    H121262   7.481   2.562   0.725  0.2104 -0.3171  0.5734
 7107TIP3    H221263   7.579   2.504   0.624  0.0054  0.0153  0.1798
 7108TIP3   OH221264   8.372   3.252   1.076 -0.0431 -0.5038 -0.0895
 7108TIP3    H121265   8.289   3.294   1.100  0.3904 -1.1798  2.9879
 7108TIP3    H221266   8.438   3.317   1.097  0.3343 -0.4993 -1.2092
 7109TIP3   OH221267   0.422   5.901   5.106  0.3491 -0.1894  0.2492
 7109TIP3    H121268   0.382   5.988   5.109  1.3255  0.3982 -1.8741
 7109TIP3    H221269   0.354   5.844   5.072 -0.1125 -0.1702  1.1018
 7110TIP3   OH221270   1.294   6.008   3.902 -0.5021  0.1241 -0.2709
 7110TIP3    H121271   1.322   5.999   3.811 -0.3668 -1.0553 -0.1220
 7110TIP3    H221272   1.337   5.936   3.948  0.1798  1.2521  0.9197
 7111TIP3   OH221273   2.227   5.174   6.002  0.6841 -0.1033 -0.0910
 7111TIP3    H121274   2.131   5.182   6.005  0.5315 -1.4499 -0.5523
 7111TIP3    H221275   2.257   5.216   6.083 -0.2137  1.2070 -0.4025
 7112TIP3   OH221276   4.898   0.444   1.826  0.2416 -0.8642  0.2252
 7112TIP3    H121277   4.809   0.452   1.861  0.2193 -0.0382 -0.0092
 7112TIP3    H221278   4.953   0.429   1.903 -0.2030 -2.3533  0.2823
 7113TIP3   OH221279   0.825   7.708   4.004  0.6169 -0.5886  0.6319
 7113TIP3    H121280   0.765   7.647   3.962  0.0143  0.0396  0.5669
 7113TIP3    H221281   0.776   7.743   4.078  1.2795 -0.8563  1.2133
 7114TIP3   OH221282   2.944   0.829   2.190  0.2159  0.0754  0.8501
 7114TIP3    H121283   3.009   0.763   2.170 -0.9397 -0.6154 -0.8374
 7114TIP3    H221284   2.988   0.912   2.171  1.3690 -0.2116  2.0985
 7115TIP3   OH221285   1.639   6.414   2.852 -0.0231  0.1867 -0.6022
 7115TIP3    H121286   1.668   6.496   2.812  0.7197  0.4478  0.4260
 7115TIP3    H221287   1.617   6.437   2.942  2.5154 -1.1302  0.4614
 7116TIP3   OH221288   8.078   4.788   0.227  0.3701  0.2602 -0.3582
 7116TIP3    H121289   8.029   4.810   0.148  0.2567 -0.8808 -0.6157
 7116TIP3    H221290   8.014   4.744   0.284  0.8428 -0.3655 -0.2968
 7117TIP3   OH221291   4.452   2.184   0.319  0.3602  0.5535  0.4555
 7117TIP3    H121292   4.365   2.162   0.286  0.8423  0.5997 -0.8865
 7117TIP3    H221293   4.485   2.102   0.356  0.1108  0.3106  0.1440
 7118TIP3   OH221294   5.880   2.053   3.133 -0.2189  0.0916  0.5155
 7118TIP3    H121295   5.845   2.051   3.222 -0.3619  0.5653  0.4746
 7118TIP3    H221296   5.834   1.984   3.087  0.6178 -0.8663  1.0849
 7119TIP3   OH221297   8.113   6.537   5.369  0.2897  0.1212 -0.0823
 7119TIP3    H121298   8.051   6.568   5.302  2.1470  1.0158 -1.4787
 7119TIP3    H221299   8.119   6.610   5.431  1.4767  0.9348 -1.0964
 7120TIP3   OH221300   0.153   3.054   2.702  0.4476  0.3112  0.2188
 7120TIP3    H121301   0.077   3.110   2.686  0.0929 -0.1168  0.4123
 7120TIP3    H221302   0.145   2.983   2.638  0.1057 -0.3146  0.9458
 7121TIP3   OH221303   8.223   6.215   3.565  0.0271 -0.1208  0.0093
 7121TIP3    H121304   8.138   6.227   3.608 -0.6596 -0.6648 -1.1514
 7121TIP3    H221305   8.286   6.210   3.638 -1.2923 -2.8763  1.1094
 7122TIP3   OH221306   3.539   6.658   4.953 -0.1425  0.0325 -0.3265
 7122TIP3    H121307   3.500   6.650   5.040 -0.5286 -0.2195 -0.5194
 7122TIP3    H221308   3.475   6.617   4.894  0.2368 -0.0375 -0.6950
 7123TIP3   OH221309   3.873   5.428   5.039 -0.2666  0.5039  0.2990
 7123TIP3    H121310   3.905   5.473   5.118  0.6895 -1.4443  1.1124
 7123TIP3    H221311   3.878   5.335   5.062 -3.1255 -0.0532 -0.9133
 7124TIP3   OH221312   6.891   2.589   0.237  0.1987  0.1087 -0.0615
 7124TIP3    H121313   6.982   2.583   0.209  1.3780  0.7959  3.1047
 7124TIP3    H221314   6.889   2.543   0.321 -2.0144  1.3697  0.6641
 7125TIP3   OH221315   6.527   4.115   4.562  0.6465 -0.1272  0.2462
 7125TIP3    H121316   6.472   4.117   4.483  0.3263  1.7195  0.4698
 7125TIP3    H221317   6.567   4.028   4.561 -1.3804 -1.1230 -0.5544
 7126TIP3   OH221318   7.128   4.505   4.150  0.2069  0.3412  0.1360
 7126TIP3    H121319   7.040   4.493   4.113 -0.6848 -0.3034  2.2822
 7126TIP3    H221320   7.143   4.599   4.147 -0.7809  0.5125  0.1483
 7127TIP3   OH221321   0.467   7.864   0.385  0.9299 -0.0497  0.6382
 7127TIP3    H121322   0.500   7.813   0.459  0.5478 -0.3344  0.6172
 7127TIP3    H221323   0.377   7.834   0.374  0.4024  1.2846  1.1952
 7128TIP3   OH221324   3.747   3.720   2.180  0.5913  0.1020  0.2359
 7128TIP3    H121325   3.743   3.813   2.202  1.7809  0.5713 -1.3662
 7128TIP3    H221326   3.832   3.709   2.137 -0.0206 -1.4864 -0.6301
 7129TIP3   OH221327   2.730   7.500   4.406 -0.3198 -0.6825 -0.4465
 7129TIP3    H121328   2.819   7.495   4.441 -0.1286 -0.7457 -0.9497
 7129TIP3    H221329   2.679   7.441   4.462 -0.1362 -0.3188  0.1135
 7130TIP3   OH221330   7.741   7.499   6.691  0.2857  0.5267  0.5850
 7130TIP3    H121331   7.770   7.541   6.772 -0.4714  1.3733  0.4328
 7130TIP3    H221332   7.676   7.559   6.655 -0.7874 -0.7576  0.3124
 7131TIP3   OH221333   4.814   7.666   3.241 -0.1740 -0.2159  0.0621
 7131TIP3    H121334   4.781   7.755   3.230 -1.0123 -0.4369  0.7101
 7131TIP3    H221335   4.759   7.612   3.184  0.4721 -0.2986 -0.4979
 7132TIP3   OH221336   1.805   0.110   2.080 -0.6861  0.0197 -0.4814
 7132TIP3    H121337   1.851   0.093   1.997 -1.0716 -0.2300 -0.6462
 7132TIP3    H221338   1.787   0.023   2.115  0.3364  0.1243  0.3543
 7133TIP3   OH221339   2.021   7.603   1.196 -0.4090  0.2475 -0.2614
 7133TIP3    H121340   2.115   7.605   1.176 -0.1649 -0.0704  0.7630
 7133TIP3    H221341   1.980   7.648   1.123  0.6439  1.4134 -0.1864
 7134TIP3   OH221342   4.087   4.856   2.153  0.0567 -1.0884  0.5825
 7134TIP3    H121343   4.127   4.853   2.066 -0.8976 -1.8836  0.1502
 7134TIP3    H221344   4.122   4.779   2.198 -0.6227 -1.5385  0.3564
 7135TIP3   OH221345   4.100   0.448   3.283 -0.0177 -0.0709  0.7756
 7135TIP3    H121346   4.175   0.496   3.317 -1.0185  0.4247  2.3962
 7135TIP3    H221347   4.118   0.357   3.304  1.4622 -0.3753 -1.4955
 7136TIP3   OH221348   2.086   3.910   2.647 -0.0765 -0.2175  0.5472
 7136TIP3    H121349   2.157   3.949   2.699  1.2468 -1.0981 -0.5223
 7136TIP3    H221350   2.101   3.943   2.559 -0.3223 -1.2895  0.0876
 7137TIP3   OH221351   1.620   4.465   1.696  0.0901  0.5388  0.4003
 7137TIP3    H121352   1.665   4.452   1.780 -0.4661  1.0174  0.7833
 7137TIP3    H221353   1.665   4.407   1.635  1.3754  1.1612  0.7195
 7138TIP3   OH221354   4.081   5.220   0.634 -0.1366  0.4588 -0.0665
 7138TIP3    H121355   4.157   5.215   0.693 -0.8177  0.1312  0.7945
 7138TIP3    H221356   4.101   5.295   0.577  1.0743  0.0546 -0.2099
 7139TIP3   OH221357   5.589   7.555   6.789  0.7971  0.3417 -0.4059
 7139TIP3    H121358   5.618   7.483   6.845 -1.2175 -1.8191 -1.9375
 7139TIP3    H221359   5.629   7.538   6.704  1.5866  1.9969 -0.4052
 7140TIP3   OH221360   1.460   4.866   5.776 -0.4054  0.6152 -0.2919
 7140TIP3    H121361   1.499   4.870   5.689 -2.4328 -1.3926 -1.3843
 7140TIP3    H221362   1.461   4.773   5.799 -0.5959  1.0256  1.5276
 7141TIP3   OH221363   3.703   0.928   3.701 -0.2583 -0.7339  0.4304
 7141TIP3    H121364   3.636   0.978   3.748  1.2170  0.3642  1.4437
 7141TIP3    H221365   3.724   0.855   3.759 -0.6976 -1.1930  0.0224
 7142TIP3   OH221366   6.668   4.774   0.171 -0.3092 -0.2961  0.0168
 7142TIP3    H121367   6.629   4.810   0.251  0.7991 -2.1420  1.4655
 7142TIP3    H221368   6.723   4.844   0.138  0.4275  0.0072  1.7743
 7143TIP3   OH221369   2.054   4.845   3.597 -0.3500  0.4062  0.1268
 7143TIP3    H121370   2.125   4.837   3.533  0.6185 -0.1378  1.2346
 7143TIP3    H221371   2.037   4.939   3.602 -0.0393  0.5024 -0.4794
 7144TIP3   OH221372   6.868   6.306   0.977  0.3884 -1.0337  0.0106
 7144TIP3    H121373   6.952   6.282   0.938  0.7909  0.6379 -0.2268
 7144TIP3    H221374   6.842   6.386   0.931 -2.0286 -2.2265 -0.8810
 7145TIP3   OH221375   4.199   5.458   4.954  0.0061  0.2834 -0.0114
 7145TIP3    H121376   4.204   5.553   4.966 -1.9646  0.3520  0.7048
 7145TIP3    H221377   4.158   5.447   4.868  0.3168  0.0804 -0.1334
 7146TIP3   OH221378   7.962   6.738   6.781  0.2641  0.2440  0.3636
 7146TIP3    H121379   7.987   6.734   6.689  1.5798  1.1683  0.6601
 7146TIP3    H221380   7.888   6.799   6.784 -1.1010 -1.3025 -0.3087
 7147TIP3   OH221381   0.987   4.852   0.712  0.1984 -0.1890  0.4969
 7147TIP3    H121382   1.013   4.887   0.798 -0.3895 -2.8320  1.8404
 7147TIP3    H221383   0.955   4.764   0.730 -2.2044 -0.0117 -2.1594
 7148TIP3   OH221384   7.169   6.997   2.670 -0.6286 -0.2330 -0.3407
 7148TIP3    H121385   7.212   7.053   2.734  0.2633 -0.3495 -0.8213
 7148TIP3    H221386   7.231   6.991   2.597 -0.8276 -1.5889 -0.4296
 7149TIP3   OH221387   6.202   1.701   0.118 -0.1484 -0.0821  0.1125
 7149TIP3    H121388   6.171   1.652   0.194 -1.0914 -0.7997 -0.7028
 7149TIP3    H221389   6.187   1.793   0.141  1.0975 -0.1704  1.4231
 7150TIP3   OH221390   6.915   0.300   4.193  0.4554 -0.2854 -0.0813
 7150TIP3    H121391   6.871   0.286   4.110 -0.5371  1.2543  0.1400
 7150TIP3    H221392   6.860   0.257   4.258  0.4911 -0.3051 -0.0640
 7151TIP3   OH221393   1.088   6.018   2.441  0.6279 -0.0148 -0.4670
 7151TIP3    H121394   1.164   6.013   2.382 -0.8802 -0.8216 -2.4314
 7151TIP3    H221395   1.048   6.103   2.422  0.9145  0.3343  0.4416
 7152TIP3   OH221396   1.789   2.392   3.209 -0.5084  0.8614 -0.5210
 7152TIP3    H121397   1.882   2.414   3.200  0.1173 -1.1381  0.4843
 7152TIP3    H221398   1.773   2.324   3.144 -0.0046 -2.0808  2.1500
 7153TIP3   OH221399   5.923   3.651   4.773  0.5597  0.7173  0.0860
 7153TIP3    H121400   6.002   3.662   4.826  0.9028 -0.8695 -0.0476
 7153TIP3    H221401   5.851   3.661   4.836  0.9756 -2.1229  1.1417
 7154TIP3   OH221402   6.761   7.340   4.621  0.4019 -0.6730 -0.3309
 7154TIP3    H121403   6.846   7.302   4.643  0.3294 -1.1081 -0.7604
 7154TIP3    H221404   6.722   7.363   4.705  1.5536  0.9381 -0.1920
 7155TIP3   OH221405   4.474   2.440   6.292 -0.2618  0.3483 -0.0995
 7155TIP3    H121406   4.515   2.515   6.334 -1.1836  2.8793 -3.2966
 7155TIP3    H221407   4.380   2.450   6.312 -0.5425  0.8457 -1.5676
 7156TIP3   OH221408   7.470   0.087   2.877 -0.3550  0.2763  0.4074
 7156TIP3    H121409   7.439   0.013   2.824  0.0854 -0.6642  1.4152
 7156TIP3    H221410   7.442   0.165   2.828 -3.5994 -0.4657  0.8336
 7157TIP3   OH221411   0.975   7.127   3.539 -0.1533 -0.3763 -0.0559
 7157TIP3    H121412   1.022   7.138   3.456 -1.0910 -0.7747 -0.6614
 7157TIP3    H221413   0.898   7.183   3.530 -0.0232 -0.0686  0.7419
 7158TIP3   OH221414   7.728   6.548   3.515 -0.3941 -0.6295  0.3500
 7158TIP3    H121415   7.766   6.537   3.428  0.1318 -0.7798  0.5913
 7158TIP3    H221416   7.633   6.546   3.501 -0.3113 -0.9011 -0.1838
 7159TIP3   OH221417   1.849   6.189   4.237  0.1686 -0.2658 -0.0409
 7159TIP3    H121418   1.926   6.240   4.214 -1.7570  2.0440 -1.9563
 7159TIP3    H221419   1.775   6.248   4.220 -2.1582 -3.0950 -0.6203
 7160TIP3   OH221420   8.251   7.251   0.777  0.2966  0.0997 -0.5759
 7160TIP3    H121421   8.316   7.322   0.780 -0.6226  1.0992 -2.2831
 7160TIP3    H221422   8.244   7.220   0.867  0.8314  2.1128  0.2105
 7161TIP3   OH221423   3.004   5.529   2.662  0.0969 -0.2588  0.2452
 7161TIP3    H121424   2.976   5.569   2.744 -0.3474 -1.0545  0.4940
 7161TIP3    H221425   2.922   5.511   2.615  0.3668  0.7010 -0.6237
 7162TIP3   OH221426   3.157   1.352   5.571  0.3357  0.1642 -0.7159
 7162TIP3    H121427   3.185   1.280   5.515  1.2441  0.6620 -0.9197
 7162TIP3    H221428   3.224   1.358   5.638 -0.2071  0.2460 -0.1739
 7163TIP3   OH221429   5.705   6.445   5.364 -0.1137  0.9644  0.2443
 7163TIP3    H121430   5.637   6.379   5.349  0.3130  0.3113  1.0778
 7163TIP3    H221431   5.716   6.488   5.279  1.8747 -2.1937 -1.2615
 7164TIP3   OH221432   5.734   2.053   4.449  0.2221 -0.6397 -0.1991
 7164TIP3    H121433   5.728   1.987   4.379  0.8324 -0.0953 -0.7857
 7164TIP3    H221434   5.686   2.128   4.415 -1.1903 -1.0534  0.8215
 7165TIP3   OH221435   1.439   4.955   1.523 -0.0623 -0.4357 -0.0275
 7165TIP3    H121436   1.407   4.961   1.613 -0.5881 -0.9459 -0.1731
 7165TIP3    H221437   1.478   4.868   1.516  0.1725 -0.3158 -0.2291
 7166TIP3   OH221438   2.611   3.311   3.871 -0.1881 -0.4372 -0.1758
 7166TIP3    H121439   2.577   3.252   3.803 -2.0496  0.4336 -0.0550
 7166TIP3    H221440   2.635   3.390   3.823  3.2219 -1.4878 -0.4868
 7167TIP3   OH221441   5.587   4.281   2.515 -0.0428  0.0999  0.0772
 7167TIP3    H121442   5.600   4.375   2.500 -2.7615  0.2615 -2.3661
 7167TIP3    H221443   5.590   4.243   2.427 -0.6079 -1.8529  0.8586
 7168TIP3   OH221444   4.425   1.351   1.609  0.3888 -0.1198  0.3403
 7168TIP3    H121445   4.387   1.265   1.630  1.1630 -0.5480  0.0203
 7168TIP3    H221446   4.440   1.392   1.695 -1.9214  0.5837  0.4700
 7169TIP3   OH221447   0.518   1.335   6.619  0.1002 -0.1910  0.6435
 7169TIP3    H121448   0.579   1.349   6.691  0.2812 -0.2845  0.5110
 7169TIP3    H221449   0.507   1.422   6.580  0.5577 -0.2620  0.3460
 7170TIP3   OH221450   6.172   1.752   2.388 -0.3471  0.3592 -0.1768
 7170TIP3    H121451   6.209   1.811   2.453 -1.8248  1.0213  0.1134
 7170TIP3    H221452   6.232   1.755   2.314  1.6107 -0.7438  1.2784
 7171TIP3   OH221453   1.264   0.307   5.596  0.3123 -0.0601 -0.7875
 7171TIP3    H121454   1.236   0.356   5.519  0.1064 -0.7360 -1.1483
 7171TIP3    H221455   1.243   0.364   5.670 -1.3152 -0.2205 -1.0963
 7172TIP3   OH221456   8.054   3.653   1.594  0.2904  0.1124  0.0610
 7172TIP3    H121457   8.069   3.561   1.570 -0.5314 -0.0429  0.1104
 7172TIP3    H221458   7.960   3.666   1.582  0.5018  1.1509 -0.6334
 7173TIP3   OH221459   7.500   5.524   3.202 -0.5021  0.1812  0.5987
 7173TIP3    H121460   7.544   5.450   3.160 -0.0349 -0.1649  1.6467
 7173TIP3    H221461   7.407   5.511   3.183 -0.2993  0.0567 -0.3390
 7174TIP3   OH221462   4.454   2.789   2.785 -0.4530 -0.1853  0.3219
 7174TIP3    H121463   4.473   2.855   2.718 -0.1358 -1.3973 -0.8156
 7174TIP3    H221464   4.369   2.816   2.821 -0.8301  0.2731 -0.8558
 7175TIP3   OH221465   6.593   6.676   2.903 -0.3171 -0.0678  0.5719
 7175TIP3    H121466   6.530   6.719   2.962 -1.5570  0.9180 -1.3778
 7175TIP3    H221467   6.654   6.746   2.878 -0.8890  0.0081 -0.6966
 7176TIP3   OH221468   5.848   1.314   5.909  0.2895 -0.0113  0.4134
 7176TIP3    H121469   5.927   1.313   5.964 -0.9523  0.4995  2.3056
 7176TIP3    H221470   5.829   1.407   5.897 -1.4532 -0.0766  2.2283
 7177TIP3   OH221471   6.334   6.352   1.838  0.6441  0.2982 -0.0147
 7177TIP3    H121472   6.241   6.350   1.858  0.2428 -2.4161 -1.5891
 7177TIP3    H221473   6.345   6.429   1.781 -1.2328 -0.8466 -2.0414
 7178TIP3   OH221474   1.197   2.512   3.902  0.6971 -0.1248 -0.0001
 7178TIP3    H121475   1.125   2.568   3.931  1.2302  0.7751 -0.3710
 7178TIP3    H221476   1.158   2.425   3.894 -1.0128  0.7635 -2.5889
 7179TIP3   OH221477   6.524   3.610   5.271  0.0006 -0.6408 -0.2078
 7179TIP3    H121478   6.606   3.569   5.297  1.3790  1.0956 -1.6272
 7179TIP3    H221479   6.533   3.702   5.297 -1.2760 -0.2924 -0.8927
 7180TIP3   OH221480   1.696   2.271   2.556 -0.5683 -0.3153 -0.2193
 7180TIP3    H121481   1.674   2.352   2.510 -2.0104 -1.5429 -1.8177
 7180TIP3    H221482   1.648   2.202   2.509  0.3406 -2.0727  1.2732
 7181TIP3   OH221483   6.466   0.385   3.816  0.4912 -0.1736  0.0989
 7181TIP3    H121484   6.389   0.338   3.782  0.7206 -1.1468  0.8875
 7181TIP3    H221485   6.518   0.318   3.860  1.2676  0.6726  0.5092
 7182TIP3   OH221486   4.374   4.393   0.404  0.2165 -0.0337  0.3316
 7182TIP3    H121487   4.333   4.323   0.354 -0.0748  0.5109 -0.1958
 7182TIP3    H221488   4.365   4.471   0.350  2.6869 -0.0303 -0.1851
 7183TIP3   OH221489   5.208   0.081   6.649 -0.7188  0.0543 -0.0237
 7183TIP3    H121490   5.176   0.060   6.737 -0.2684  0.2756  0.1945
 7183TIP3    H221491   5.270   0.010   6.629  1.0062  1.2692  0.8197
 7184TIP3   OH221492   3.146   4.499   3.883 -0.1761 -0.3980  0.2139
 7184TIP3    H121493   3.139   4.594   3.897 -1.2335 -0.7091  2.1567
 7184TIP3    H221494   3.194   4.468   3.959 -0.5983 -1.5272  0.0286
 7185TIP3   OH221495   7.485   3.784   1.738 -0.6329 -0.0527  0.5894
 7185TIP3    H121496   7.557   3.804   1.798  1.0020 -1.0485 -0.9419
 7185TIP3    H221497   7.477   3.689   1.740 -0.8757 -0.0705 -0.4031
 7186TIP3   OH221498   7.493   3.157   1.269  0.3732  0.5338  0.0341
 7186TIP3    H121499   7.495   3.116   1.356  0.6431 -0.0435 -0.2456
 7186TIP3    H221500   7.571   3.125   1.225 -0.6420 -0.5428 -1.0532
 7187TIP3   OH221501   7.382   5.959   1.575  0.0395 -0.3917 -0.0646
 7187TIP3    H121502   7.302   5.926   1.614  0.3194 -2.1462 -0.8918
 7187TIP3    H221503   7.393   6.046   1.613 -1.4537 -0.7023  1.1692
 7188TIP3   OH221504   1.747   1.634   3.077  0.3156  0.2373  0.1705
 7188TIP3    H121505   1.656   1.630   3.108  0.6138  0.9821  1.1679
 7188TIP3    H221506   1.741   1.606   2.985 -0.5952 -1.8857  0.8260
 7189TIP3   OH221507   7.041   7.841   3.041 -0.7832 -0.2444  0.5436
 7189TIP3    H121508   6.993   7.920   3.014 -2.4224 -2.1098 -2.4695
 7189TIP3    H221509   7.123   7.845   2.992 -0.3664  0.0646  1.2398
 7190TIP3   OH221510   0.982   0.863   1.019  0.2498 -1.2544 -0.0508
 7190TIP3    H121511   1.042   0.872   1.093 -0.2131 -2.0043  0.4303
 7190TIP3    H221512   0.897   0.843   1.060 -0.7090  1.2615 -0.6177
 7191TIP3   OH221513   1.633   0.697   4.451 -0.2557  0.0118 -0.1206
 7191TIP3    H121514   1.544   0.728   4.433 -0.1985 -0.8385 -2.1060
 7191TIP3    H221515   1.620   0.612   4.494 -0.3930  0.6127  1.0446
 7192TIP3   OH221516   2.270   5.913   3.341  0.2770 -0.1837  0.0473
 7192TIP3    H121517   2.340   5.979   3.338 -1.2021  1.4257 -0.7336
 7192TIP3    H221518   2.233   5.914   3.253 -0.3893 -1.4193  0.2968
 7193TIP3   OH221519   7.303   2.831   2.794  0.0773  0.1529  0.3585
 7193TIP3    H121520   7.372   2.797   2.850 -0.4677  0.1933  1.0632
 7193TIP3    H221521   7.277   2.913   2.835 -0.9605 -0.2672  0.5730
 7194TIP3   OH221522   7.734   1.840   6.293  0.4429  0.4899  0.2874
 7194TIP3    H121523   7.692   1.841   6.379  0.9442 -0.1200  0.5440
 7194TIP3    H221524   7.688   1.772   6.244  1.9283 -1.0998  0.9974
 7195TIP3   OH221525   0.670   4.809   2.763  0.6937 -0.4312 -0.0344
 7195TIP3    H121526   0.629   4.770   2.685 -0.9881 -1.7036  1.4037
 7195TIP3    H221527   0.685   4.736   2.822  1.8148  0.5225  0.9172
 7196TIP3   OH221528   1.654   3.659   1.725 -0.6522  0.4139 -0.0700
 7196TIP3    H121529   1.566   3.642   1.692 -0.5692  1.8644 -1.1631
 7196TIP3    H221530   1.642   3.731   1.787 -0.6018 -1.3310  2.0827
 7197TIP3   OH221531   5.024   1.859   3.668 -0.0235 -0.4442 -0.0067
 7197TIP3    H121532   5.111   1.886   3.697 -0.3186 -0.6016  1.0609
 7197TIP3    H221533   5.039   1.778   3.619  0.4521 -0.3420 -0.0349
 7198TIP3   OH221534   5.620   1.194   5.283 -0.2096  0.1351 -0.1772
 7198TIP3    H121535   5.597   1.144   5.205 -1.2056 -1.0621  0.8367
 7198TIP3    H221536   5.620   1.129   5.354  0.3490  1.2466  0.8801
 7199TIP3   OH221537   3.674   2.009   1.373 -0.2191 -0.1609 -0.0044
 7199TIP3    H121538   3.736   1.958   1.425 -0.3859  0.2563  0.6254
 7199TIP3    H221539   3.696   2.100   1.394 -2.4484  0.0212  2.0038
 7200TIP3   OH221540   6.931   5.664   5.979  0.2726 -0.2819  0.2995
 7200TIP3    H121541   6.855   5.715   6.006 -0.0033  0.4739 -1.6937
 7200TIP3    H221542   6.999   5.730   5.963  0.7916 -0.7988  0.3581
 7201TIP3   OH221543   0.502   0.534   4.930 -0.0947  0.0502  0.2971
 7201TIP3    H121544   0.517   0.628   4.937 -0.9097  0.1791  0.4150
 7201TIP3    H221545   0.414   0.526   4.894 -0.4131 -0.6666  1.1843
 7202TIP3   OH221546   0.086   2.339   1.792 -0.2979 -0.5864 -0.3093
 7202TIP3    H121547   0.026   2.330   1.867 -1.2396  0.4302 -0.9048
 7202TIP3    H221548   0.120   2.251   1.778 -1.1358 -1.0631  0.4852
 7203TIP3   OH221549   3.763   3.845   4.412  0.1595 -0.9497 -0.0077
 7203TIP3    H121550   3.690   3.843   4.475  0.4030  2.7123  0.5963
 7203TIP3    H221551   3.840   3.865   4.465  0.5963  0.8645 -1.2099
 7204TIP3   OH221552   7.648   7.367   4.504  0.6429  0.1060 -0.2450
 7204TIP3    H121553   7.698   7.428   4.450  1.9941 -0.1400  0.6732
 7204TIP3    H221554   7.713   7.305   4.537 -0.2071 -0.0317  1.2662
 7205TIP3   OH221555   1.277   4.657   3.506 -0.6053  0.0921  0.6954
 7205TIP3    H121556   1.257   4.644   3.599  2.6083 -0.7527  1.3842
 7205TIP3    H221557   1.313   4.745   3.501  0.7493 -0.4524  0.5800
 7206TIP3   OH221558   3.318   3.687   3.758  0.2965  0.3677  0.0767
 7206TIP3    H121559   3.397   3.740   3.751  0.8098 -0.3178  0.5394
 7206TIP3    H221560   3.287   3.678   3.668  0.6760  0.7433 -0.0946
 7207TIP3   OH221561   0.704   0.939   4.364  0.0386  0.7665 -0.1301
 7207TIP3    H121562   0.793   0.911   4.344  0.2886  1.8507 -0.6126
 7207TIP3    H221563   0.670   0.972   4.280 -1.5516 -1.4822 -0.4624
 7208TIP3   OH221564   5.508   3.609   0.902 -0.5670 -0.2803 -0.0070
 7208TIP3    H121565   5.515   3.676   0.834  0.4544  0.0547  0.4041
 7208TIP3    H221566   5.524   3.527   0.857  2.2082  0.1075  0.1330
 7209TIP3   OH221567   3.613   4.042   4.267  0.1858 -0.7583  0.2151
 7209TIP3    H121568   3.526   4.005   4.256  0.1628 -0.3005 -1.3499
 7209TIP3    H221569   3.665   3.971   4.305  0.0424 -2.3298 -2.3270
 7210TIP3   OH221570   4.850   7.465   6.643 -0.4064  0.2558  0.1774
 7210TIP3    H121571   4.826   7.388   6.591 -0.8407  1.6868 -1.8968
 7210TIP3    H221572   4.862   7.534   6.578 -1.1565  2.2390  2.0251
 7211TIP3   OH221573   3.725   0.489   0.481  1.0138  0.6414  0.1585
 7211TIP3    H121574   3.736   0.584   0.479  0.5161  0.6975 -1.4161
 7211TIP3    H221575   3.641   0.476   0.523  0.9777  0.9114  0.1741
 7212TIP3   OH221576   4.296   7.665   5.345  0.3736  0.3471  0.2959
 7212TIP3    H121577   4.359   7.600   5.377  1.3221  1.0272 -0.1561
 7212TIP3    H221578   4.222   7.657   5.405  1.2467  0.1295  1.3848
 7213TIP3   OH221579   7.752   5.486   6.040 -0.2504 -0.1246 -0.0728
 7213TIP3    H121580   7.790   5.509   6.125  0.0235 -0.9411  0.0342
 7213TIP3    H221581   7.674   5.434   6.062  0.0119 -0.6260 -0.3226
 7214TIP3   OH221582   2.201   2.456   6.478  0.3818  0.0433  0.1925
 7214TIP3    H121583   2.169   2.546   6.472 -0.7785 -0.4030 -0.5210
 7214TIP3    H221584   2.122   2.402   6.482  1.0548 -0.9953 -0.1447
 7215TIP3   OH221585   6.858   0.809   2.551  0.4264 -0.4472  0.1659
 7215TIP3    H121586   6.954   0.802   2.547  0.4890 -0.3508  1.1379
 7215TIP3    H221587   6.840   0.833   2.642 -0.4410  1.1349 -0.4040
 7216TIP3   OH221588   4.889   5.910   2.061  0.4443  0.2660  0.1067
 7216TIP3    H121589   4.844   5.991   2.084 -0.9375 -0.5344  0.3498
 7216TIP3    H221590   4.919   5.924   1.971  0.5533  1.1768  0.2732
 7217TIP3   OH221591   7.111   3.920   5.803  0.0607  0.2359 -0.1669
 7217TIP3    H121592   7.016   3.913   5.793  0.2769  0.5825 -3.5476
 7217TIP3    H221593   7.141   3.830   5.813 -0.6315  0.1747  1.6432
 7218TIP3   OH221594   4.801   4.767   6.689  0.1905  0.7868 -0.1420
 7218TIP3    H121595   4.731   4.799   6.631  0.1139  2.3215  0.7452
 7218TIP3    H221596   4.756   4.709   6.750 -0.0640  0.6466 -0.4590
 7219TIP3   OH221597   2.180   2.281   5.462 -0.0375  0.1072 -0.3466
 7219TIP3    H121598   2.182   2.266   5.556  0.2697 -1.3857 -0.5635
 7219TIP3    H221599   2.238   2.215   5.425 -1.0608 -0.1117 -1.6688
 7220TIP3   OH221600   6.377   5.015   0.528 -0.0275 -0.2760  0.0509
 7220TIP3    H121601   6.370   5.076   0.454  2.0242  0.1506  0.1550
 7220TIP3    H221602   6.405   5.069   0.602  1.3332 -1.2290  0.2672
 7221TIP3   OH221603   4.574   0.736   0.067  0.2442 -0.0545 -0.6985
 7221TIP3    H121604   4.539   0.792   0.136  0.5617 -2.6940  1.8119
 7221TIP3    H221605   4.501   0.679   0.043  1.2910 -2.2035  0.8918
 7222TIP3   OH221606   1.079   6.193   3.614  0.1147  0.0008 -0.0822
 7222TIP3    H121607   1.088   6.125   3.547 -1.4740 -2.0182  1.6114
 7222TIP3    H221608   0.993   6.177   3.652  0.9106  1.1362  2.3536
 7223TIP3   OH221609   1.260   7.028   6.375  0.2067  0.1567 -0.1344
 7223TIP3    H121610   1.228   7.021   6.286  1.2522 -1.7769 -0.4220
 7223TIP3    H221611   1.241   6.943   6.414  1.0090  0.4875  1.0382
 7224TIP3   OH221612   6.214   2.358   3.282  0.9923  0.4342  0.3964
 7224TIP3    H121613   6.185   2.275   3.320 -0.6332  1.3996  1.3856
 7224TIP3    H221614   6.209   2.420   3.355  0.2935  1.8071 -0.7825
 7225TIP3   OH221615   7.881   4.127   3.476 -0.4075 -0.3417  0.2140
 7225TIP3    H121616   7.848   4.079   3.553  3.0660 -2.2372  0.7134
 7225TIP3    H221617   7.833   4.090   3.402 -0.6234 -1.7816  1.0393
 7226TIP3   OH221618   8.306   0.923   2.905  0.0377 -0.6676 -0.7585
 7226TIP3    H121619   8.384   0.978   2.899  0.6118 -1.4307 -0.4242
 7226TIP3    H221620   8.246   0.973   2.960  0.3483 -0.1498 -0.8817
 7227TIP3   OH221621   4.187   2.113   2.430  0.4869  0.3945 -0.6284
 7227TIP3    H121622   4.124   2.096   2.500  1.0630  1.1918  0.1194
 7227TIP3    H221623   4.149   2.185   2.380 -0.4083 -0.8483 -1.7868
 7228TIP3   OH221624   5.993   2.074   1.905  0.0809  0.2833  0.5321
 7228TIP3    H121625   6.061   2.049   1.969  1.0321 -1.4516 -1.0446
 7228TIP3    H221626   5.911   2.071   1.955  0.8704 -0.1898  1.8617
 7229TIP3   OH221627   7.408   5.382   4.234 -0.5889  0.2987 -0.0378
 7229TIP3    H121628   7.440   5.472   4.240  1.1471 -0.1945 -1.2736
 7229TIP3    H221629   7.368   5.365   4.320 -1.5243  2.4188  0.0100
 7230TIP3   OH221630   0.666   5.383   4.920 -0.8839 -0.0075 -0.0652
 7230TIP3    H121631   0.680   5.445   4.848 -2.2229  1.0166  0.5194
 7230TIP3    H221632   0.752   5.376   4.962 -0.7008  1.5078 -0.1184
 7231TIP3   OH221633   3.496   1.412   1.643 -0.3416  0.5445  0.0844
 7231TIP3    H121634   3.525   1.475   1.709  1.5100  1.0569 -1.1406
 7231TIP3    H221635   3.575   1.362   1.621 -1.1635 -0.3630 -0.9355
 7232TIP3   OH221636   0.035   3.141   2.983 -0.7182 -0.1872 -0.1342
 7232TIP3    H121637   0.038   3.229   2.945  1.8839 -0.3725 -0.5682
 7232TIP3    H221638   0.035   3.155   3.077 -0.6778  0.2945 -0.2024
 7233TIP3   OH221639   5.840   1.813   5.605 -0.2122  0.1330  0.3653
 7233TIP3    H121640   5.804   1.902   5.607  4.0688  2.1857 -0.4077
 7233TIP3    H221641   5.904   1.812   5.676  0.2771 -2.1283 -0.0287
 7234TIP3   OH221642   7.495   4.916   1.011  0.3311 -0.3217 -0.2894
 7234TIP3    H121643   7.403   4.908   0.984 -0.1484 -0.0149  1.1658
 7234TIP3    H221644   7.544   4.915   0.929 -1.1313  2.1058 -1.3070
 7235TIP3   OH221645   4.744   3.672   0.604 -0.2210 -0.5182  0.3138
 7235TIP3    H121646   4.742   3.699   0.512 -1.9576 -1.2834  0.0996
 7235TIP3    H221647   4.837   3.657   0.623  0.1228 -0.7169 -1.4180
 7236TIP3   OH221648   7.604   3.902   5.661 -0.3654 -0.4835 -0.7694
 7236TIP3    H121649   7.693   3.885   5.630 -0.3348  1.3355 -1.8234
 7236TIP3    H221650   7.594   3.997   5.654 -2.7810 -0.7442 -1.7913
 7237TIP3   OH221651   5.873   1.319   1.154  0.3089 -0.1862 -0.0420
 7237TIP3    H121652   5.908   1.333   1.242  1.6564  2.3159 -0.8868
 7237TIP3    H221653   5.951   1.307   1.100 -0.5157 -1.9991 -0.9263
 7238TIP3   OH221654   5.316   2.001   4.641 -0.3968 -0.1031  0.0881
 7238TIP3    H121655   5.273   2.064   4.699 -1.3783 -0.6091 -0.0698
 7238TIP3    H221656   5.408   2.025   4.644 -0.4845  0.1629  1.5212
 7239TIP3   OH221657   2.370   5.027   2.319  0.5690 -0.0655  0.5848
 7239TIP3    H121658   2.357   4.980   2.237 -1.7766 -0.2431  0.9852
 7239TIP3    H221659   2.364   5.119   2.296 -1.3015 -0.1302  0.6736
 7240TIP3   OH221660   2.129   5.007   4.710 -0.1096 -0.0071 -0.5510
 7240TIP3    H121661   2.134   5.025   4.616  0.6175  2.0724 -0.1769
 7240TIP3    H221662   2.214   4.970   4.732 -0.5229 -1.1411 -0.8061
 7241TIP3   OH221663   3.616   2.572   5.881 -0.0015  0.7700  0.0697
 7241TIP3    H121664   3.635   2.589   5.974  2.0971  2.2772 -0.5816
 7241TIP3    H221665   3.521   2.587   5.874 -0.3580 -0.1036  2.0824
 7242TIP3   OH221666   2.281   5.584   1.919  0.3265 -0.3937 -0.2034
 7242TIP3    H121667   2.299   5.490   1.907  0.6971 -0.1612 -1.6854
 7242TIP3    H221668   2.225   5.588   1.997 -1.2559 -2.0262 -1.1795
 7243TIP3   OH221669   0.317   0.392   6.276  0.1744  0.4112 -0.6256
 7243TIP3    H121670   0.347   0.436   6.197  0.5767 -0.5986 -1.0450
 7243TIP3    H221671   0.383   0.414   6.342 -0.4997  1.7856 -0.3784
 7244TIP3   OH221672   4.545   7.235   6.206 -0.0985 -0.0632  0.3265
 7244TIP3    H121673   4.566   7.143   6.188 -1.7665 -0.1954 -1.2753
 7244TIP3    H221674   4.506   7.234   6.293 -0.5711 -0.9520  0.1140
 7245TIP3   OH221675   3.902   1.233   6.815  0.2771  0.0599 -0.0640
 7245TIP3    H121676   3.918   1.269   6.902  0.1084 -0.1645  0.0594
 7245TIP3    H221677   3.806   1.235   6.806  0.2359 -0.7292  0.1022
 7246TIP3   OH221678   3.516   7.061   4.365 -0.5016  0.2325 -0.3195
 7246TIP3    H121679   3.607   7.057   4.395  0.2467 -0.0995 -2.5073
 7246TIP3    H221680   3.498   7.154   4.356 -0.4431  0.3056  0.2593
 7247TIP3   OH221681   5.393   0.187   3.547 -0.1635 -0.1742  0.3060
 7247TIP3    H121682   5.370   0.095   3.561 -1.7950  0.3134  1.0158
 7247TIP3    H221683   5.437   0.188   3.462 -2.0883 -1.3302 -0.7701
 7248TIP3   OH221684   6.894   1.790   1.521 -0.5728  0.2722  0.2078
 7248TIP3    H121685   6.839   1.856   1.564 -1.4673 -0.6137  0.4612
 7248TIP3    H221686   6.858   1.784   1.432  0.6085  1.3469 -0.3737
 7249TIP3   OH221687   1.808   3.635   5.430 -0.1680 -0.0505 -0.1393
 7249TIP3    H121688   1.800   3.540   5.438  1.9636 -0.1435  2.1058
 7249TIP3    H221689   1.888   3.648   5.379 -0.8390  0.5811 -1.0621
 7250TIP3   OH221690   2.293   6.719   5.082 -0.4092 -0.3329 -0.1455
 7250TIP3    H121691   2.307   6.703   4.989 -0.4320 -0.4441 -0.1309
 7250TIP3    H221692   2.358   6.663   5.125  0.0274  0.1884 -0.1082
 7251TIP3   OH221693   1.307   2.466   1.955 -0.7585  0.0033  0.3237
 7251TIP3    H121694   1.348   2.441   1.873 -0.9729 -0.8469  0.4644
 7251TIP3    H221695   1.289   2.559   1.946 -2.4611 -0.4467 -1.3198
 7252TIP3   OH221696   3.145   4.274   1.975 -0.4289  0.1110 -0.4703
 7252TIP3    H121697   3.226   4.271   1.924  0.3555  0.0884  0.7607
 7252TIP3    H221698   3.092   4.202   1.940 -0.0150  0.2547 -1.4206
 7253TIP3   OH221699   4.067   4.666   5.316 -0.2824 -0.1979  0.5440
 7253TIP3    H121700   4.123   4.740   5.337  0.3941 -0.0579 -1.5262
 7253TIP3    H221701   4.062   4.615   5.397  1.9328  0.3725  1.0854
 7254TIP3   OH221702   6.374   4.086   0.866 -0.3963  0.3489  0.7951
 7254TIP3    H121703   6.378   3.993   0.889 -2.1592  0.2040  0.6299
 7254TIP3    H221704   6.318   4.089   0.788  0.7273  1.4365 -0.0148
 7255TIP3   OH221705   8.038   7.096   6.108  0.1703  0.2172 -0.2842
 7255TIP3    H121706   8.061   7.111   6.017  3.1520 -0.0546  0.3140
 7255TIP3    H221707   8.013   7.004   6.113  0.6162  0.0738 -0.7182
 7256TIP3   OH221708   3.289   7.078   3.360 -0.2810 -0.2757 -0.2148
 7256TIP3    H121709   3.328   6.997   3.328  2.6054  2.0488 -3.3910
 7256TIP3    H221710   3.303   7.076   3.454  1.0196 -2.8119 -0.3726
 7257TIP3   OH221711   5.681   2.443   3.726 -0.3698  0.1011  0.0374
 7257TIP3    H121712   5.587   2.426   3.732 -0.3366 -0.5484 -0.9531
 7257TIP3    H221713   5.717   2.409   3.807 -0.9303 -0.1185  0.2014
 7258TIP3   OH221714   0.531   4.119   1.695 -0.5434  0.5180  0.0200
 7258TIP3    H121715   0.559   4.210   1.696  1.3353  0.0597 -2.4564
 7258TIP3    H221716   0.613   4.069   1.702 -1.5425 -1.0365  1.5004
 7259TIP3   OH221717   7.253   0.912   1.303 -0.2531  0.0236 -0.4114
 7259TIP3    H121718   7.321   0.977   1.319 -0.8789  0.7501 -0.5922
 7259TIP3    H221719   7.179   0.963   1.271 -0.8399 -0.7610 -0.3422
 7260TIP3   OH221720   7.227   1.324   1.303 -0.3698  0.4632  0.4429
 7260TIP3    H121721   7.261   1.385   1.238  1.3058 -0.5402  0.3024
 7260TIP3    H221722   7.159   1.372   1.349 -0.0533  1.9403 -0.5731
 7261TIP3   OH221723   6.467   6.687   3.968  0.4466  0.0834 -0.1866
 7261TIP3    H121724   6.396   6.748   3.987 -0.0934 -0.6132  0.0934
 7261TIP3    H221725   6.441   6.606   4.013  1.4398 -0.1684 -0.0438
 7262TIP3   OH221726   1.684   6.604   0.209 -0.7031 -0.4878  0.2452
 7262TIP3    H121727   1.731   6.566   0.135  0.1822  0.0978  0.5056
 7262TIP3    H221728   1.668   6.530   0.267 -1.8839 -1.0625 -0.7512
 7263TIP3   OH221729   5.762   7.427   2.444  0.3193 -0.2405  0.1250
 7263TIP3    H121730   5.675   7.450   2.413  0.9318  1.8920 -0.2138
 7263TIP3    H221731   5.805   7.385   2.370 -0.0715 -0.3212 -0.0541
 7264TIP3   OH221732   4.990   5.535   5.562  0.0836  0.1945 -1.2133
 7264TIP3    H121733   4.899   5.564   5.573  0.4797  1.8518 -1.9019
 7264TIP3    H221734   5.028   5.600   5.503  1.7966 -0.3219 -0.7324
 7265TIP3   OH221735   0.074   2.130   0.028  0.6177  0.1283 -0.5885
 7265TIP3    H121736  -0.002   2.074   0.011  0.3682  0.5106 -0.7310
 7265TIP3    H221737   0.148   2.083  -0.011  0.8915 -1.4923  1.6920
 7266TIP3   OH221738   1.815   2.435   1.435 -0.2537  0.3746 -0.1827
 7266TIP3    H121739   1.790   2.347   1.463  0.1864  0.0730 -0.7003
 7266TIP3    H221740   1.756   2.455   1.362 -0.4079  0.5396 -0.0116
 7267TIP3   OH221741   7.440   6.850   2.217  0.3396 -0.1253 -0.3193
 7267TIP3    H121742   7.391   6.923   2.253  0.0879 -0.9486  1.0471
 7267TIP3    H221743   7.532   6.875   2.228  0.2634 -0.2892  0.7607
 7268TIP3   OH221744   8.214   6.382   6.034  0.0860 -0.1900 -0.6145
 7268TIP3    H121745   8.228   6.474   6.010  0.9926 -0.5513 -1.5643
 7268TIP3    H221746   8.228   6.334   5.953 -1.4832 -1.1028 -0.3861
 7269TIP3   OH221747   4.067   7.718   2.579  0.0002  0.0718 -0.1277
 7269TIP3    H121748   4.032   7.628   2.584  1.1071 -0.5036 -1.6840
 7269TIP3    H221749   4.051   7.743   2.488  0.4387  1.1519  0.0880
 7270TIP3   OH221750   7.944   2.485   4.068  0.2284 -0.2493 -0.1456
 7270TIP3    H121751   7.922   2.420   4.134 -2.1892 -0.3675 -0.9732
 7270TIP3    H221752   7.878   2.554   4.080  1.0596  0.7340 -1.0558
 7271TIP3   OH221753   5.079   1.226   3.326 -0.5049  0.3632  0.3678
 7271TIP3    H121754   5.094   1.264   3.239 -0.7444  0.5854  0.4214
 7271TIP3    H221755   5.090   1.132   3.313  0.5438  0.4845  0.3342
 7272TIP3   OH221756   4.767   5.992   6.170 -0.4592  0.6671  0.4686
 7272TIP3    H121757   4.792   6.029   6.086  0.1636  0.2478  0.4636
 7272TIP3    H221758   4.741   5.902   6.150 -2.6076  1.2469  0.3772
 7273TIP3   OH221759   2.530   6.927   4.230 -0.0881  0.1023 -0.4507
 7273TIP3    H121760   2.499   6.972   4.308  2.1342  0.7589  0.1429
 7273TIP3    H221761   2.473   6.957   4.160 -0.1725  2.0200  0.3706
 7274TIP3   OH221762   7.153   3.700   6.364  0.2184 -0.7978  0.6013
 7274TIP3    H121763   7.113   3.749   6.436  1.0804  0.0417  0.5426
 7274TIP3    H221764   7.244   3.730   6.364  0.2016 -0.6959 -0.9137
 7275TIP3   OH221765   6.701   5.969   0.894 -0.0202  0.3166  0.1911
 7275TIP3    H121766   6.793   5.986   0.874 -0.0409  1.1619  0.7631
 7275TIP3    H221767   6.654   5.997   0.816  0.1640  0.3543  0.0926
 7276TIP3   OH221768   3.327   6.358   3.619 -0.0656  0.3951  0.2476
 7276TIP3    H121769   3.379   6.284   3.587 -1.6893 -0.8740  0.4009
 7276TIP3    H221770   3.357   6.371   3.709 -0.6164 -0.9376  0.6513
 7277TIP3   OH221771   0.359   6.243   5.747 -0.1452  0.6472 -0.4597
 7277TIP3    H121772   0.394   6.201   5.669  0.8663 -0.2501  0.4309
 7277TIP3    H221773   0.436   6.283   5.788  0.3370 -2.6627  2.3639
 7278TIP3   OH221774   0.640   1.051   0.426  0.0765  0.3020 -0.2574
 7278TIP3    H121775   0.727   1.054   0.467  0.0903 -0.3718 -0.2219
 7278TIP3    H221776   0.587   0.998   0.486  0.4900 -1.9782 -1.7892
 7279TIP3   OH221777   0.946   6.471   2.668 -0.6134 -0.4976  0.0143
 7279TIP3    H121778   0.909   6.538   2.726 -0.7748 -1.0857  0.6146
 7279TIP3    H221779   0.919   6.497   2.580  0.0612  0.6888  0.1443
 7280TIP3   OH221780   2.615   0.936   4.138 -0.6180  0.2364  0.3771
 7280TIP3    H121781   2.655   0.851   4.158 -0.9694 -1.0097 -3.4800
 7280TIP3    H221782   2.687   0.998   4.144  0.8027 -1.1346 -1.2525
 7281TIP3   OH221783   7.589   1.672   0.422  0.2063  0.0838  0.3425
 7281TIP3    H121784   7.533   1.695   0.496 -1.1634 -0.0146 -0.6372
 7281TIP3    H221785   7.659   1.620   0.461 -1.1725 -1.0426  1.4088
 7282TIP3   OH221786   1.910   0.615   0.777 -0.1249  0.3523  0.5489
 7282TIP3    H121787   2.002   0.626   0.804 -0.0949 -0.0629  0.6163
 7282TIP3    H221788   1.900   0.521   0.764 -0.4423  0.4380  0.1732
 7283TIP3   OH221789   1.974   7.799   4.940 -0.2426  0.1629 -0.5779
 7283TIP3    H121790   1.906   7.864   4.957  0.6219  0.8752  0.3044
 7283TIP3    H221791   2.037   7.844   4.884  0.5716  0.2600  0.3786
 7284TIP3   OH221792   4.645   4.587   5.197 -0.4536 -0.1014 -0.2872
 7284TIP3    H121793   4.652   4.627   5.283  1.6773 -1.9539  0.4956
 7284TIP3    H221794   4.565   4.535   5.201  0.0040 -0.7556  0.8858
 7285TIP3   OH221795   1.595   5.837   0.584  0.1645 -0.6077  0.1304
 7285TIP3    H121796   1.643   5.917   0.562  0.7427 -0.5401  1.5281
 7285TIP3    H221797   1.515   5.843   0.532  1.0520 -0.0805 -1.2642
 7286TIP3   OH221798   0.791   5.036   0.747  0.0576 -1.1906 -0.2226
 7286TIP3    H121799   0.850   5.109   0.728 -1.9771  0.2938 -1.2556
 7286TIP3    H221800   0.840   4.958   0.720  1.7326 -0.0862 -0.5365
 7287TIP3   OH221801   6.313   2.830   5.347  0.3138  0.1684  0.0532
 7287TIP3    H121802   6.273   2.906   5.390  0.3920  1.1096 -1.4564
 7287TIP3    H221803   6.401   2.860   5.322 -0.2083  0.1582 -1.9630
 7288TIP3   OH221804   3.662   5.156   5.931  0.0806 -0.0467 -0.2328
 7288TIP3    H121805   3.737   5.102   5.904  0.0869 -1.0618  1.6675
 7288TIP3    H221806   3.700   5.226   5.983 -0.1148  0.7735 -1.1578
 7289TIP3   OH221807   6.457   4.801   6.714  0.2122  0.3228  0.7218
 7289TIP3    H121808   6.491   4.728   6.765 -1.7499 -0.9734  0.2790
 7289TIP3    H221809   6.449   4.766   6.625 -0.8505  1.0296  0.5216
 7290TIP3   OH221810   3.429   7.727   3.458  0.0080 -0.3428 -0.1699
 7290TIP3    H121811   3.362   7.785   3.493  1.0568  0.9223 -0.1627
 7290TIP3    H221812   3.431   7.747   3.364  1.1793  0.5478  0.0145
 7291TIP3   OH221813   6.573   7.041   0.678 -0.5840  0.0431 -0.2033
 7291TIP3    H121814   6.599   7.097   0.751 -0.0083  1.2246 -1.2743
 7291TIP3    H221815   6.503   7.090   0.634  0.3540  0.2515 -1.5212
 7292TIP3   OH221816   6.017   7.510   4.107  0.2485 -0.3648 -0.3210
 7292TIP3    H121817   6.023   7.575   4.176  0.4855 -0.5438 -0.1718
 7292TIP3    H221818   5.956   7.444   4.141 -1.4703  0.6816 -1.2131
 7293TIP3   OH221819   3.586   2.061   4.083 -0.4303  0.3645  0.2184
 7293TIP3    H121820   3.567   2.005   4.158 -0.5303  1.0509  0.7081
 7293TIP3    H221821   3.570   2.004   4.007  0.8486 -0.7061  0.7214
 7294TIP3   OH221822   0.803   5.476   1.777  0.1873 -0.4192  0.0424
 7294TIP3    H121823   0.783   5.511   1.864 -2.3219 -1.6083  0.0111
 7294TIP3    H221824   0.781   5.547   1.717  0.3696 -0.1602  0.2802
 7295TIP3   OH221825   5.824   2.711   4.880  0.2363 -0.4362  0.2547
 7295TIP3    H121826   5.871   2.769   4.819  0.8341 -1.2877 -0.1091
 7295TIP3    H221827   5.858   2.624   4.861 -1.5609 -1.1075 -0.0675
 7296TIP3   OH221828   3.815   3.258   5.647 -0.5642 -0.1607  0.4074
 7296TIP3    H121829   3.902   3.267   5.685 -0.2360  0.8813 -0.5380
 7296TIP3    H221830   3.828   3.270   5.553 -1.9351  1.7571  0.4054
 7297TIP3   OH221831   0.389   2.110   4.133  0.1437  0.4553  0.0725
 7297TIP3    H121832   0.404   2.045   4.202 -0.5964 -1.1335 -1.1812
 7297TIP3    H221833   0.342   2.181   4.176  0.0703 -0.3023  1.2878
 7298TIP3   OH221834   7.802   0.975   3.743  0.1926 -0.4821 -0.4742
 7298TIP3    H121835   7.867   0.997   3.810 -0.6217  0.2364  0.1038
 7298TIP3    H221836   7.719   0.967   3.791  0.0114 -2.5105 -1.0098
 7299TIP3   OH221837   4.340   4.622   3.178  0.6126 -0.0350  0.0423
 7299TIP3    H121838   4.414   4.649   3.125  1.1750 -2.2034 -0.3875
 7299TIP3    H221839   4.376   4.609   3.266  0.3762  0.4669  0.2175
 7300TIP3   OH221840   3.104   1.891   1.583  0.0560 -0.9087 -0.8194
 7300TIP3    H121841   3.154   1.960   1.539 -1.3903  1.3495  0.8053
 7300TIP3    H221842   3.099   1.820   1.519 -0.7383  1.5877 -3.7971
 7301TIP3   OH221843   7.294   3.841   3.161 -0.1198  0.3051  0.7111
 7301TIP3    H121844   7.231   3.832   3.090  0.5705  0.1337  0.1170
 7301TIP3    H221845   7.280   3.763   3.215  1.5475 -1.2734 -1.0004
 7302TIP3   OH221846   1.193   4.952   5.800 -0.0465 -0.2734  0.3683
 7302TIP3    H121847   1.179   5.009   5.725  1.2161  1.4611  1.3895
 7302TIP3    H221848   1.279   4.912   5.784 -0.4696 -1.1422  0.1634
 7303TIP3   OH221849   5.109   7.187   3.185  0.2017 -0.3099  0.1951
 7303TIP3    H121850   5.076   7.276   3.182  2.0689  0.4968  1.9433
 7303TIP3    H221851   5.072   7.150   3.265 -0.5907 -1.1803 -0.5326
 7304TIP3   OH221852   2.096   3.944   0.762  0.4847 -0.0111  0.2029
 7304TIP3    H121853   2.047   4.003   0.820  0.1604 -0.5946  0.5372
 7304TIP3    H221854   2.062   3.962   0.675  1.4808  1.3879  0.0656
 7305TIP3   OH221855   3.566   2.392   2.519  0.0297  0.4664  0.0640
 7305TIP3    H121856   3.578   2.325   2.587 -0.7727  0.1022 -0.1370
 7305TIP3    H221857   3.580   2.475   2.564 -0.6685  0.2415  0.7258
 7306TIP3   OH221858   3.817   5.964   4.575  0.1018 -0.3809  0.0048
 7306TIP3    H121859   3.792   6.018   4.500 -1.2693 -1.4156 -0.3296
 7306TIP3    H221860   3.910   5.981   4.587  0.0930  0.6805 -1.2025
 7307TIP3   OH221861  -0.017   1.985   6.004 -0.5213 -0.4215  0.1922
 7307TIP3    H121862  -0.052   1.906   5.962  0.9893 -0.2754 -1.4801
 7307TIP3    H221863   0.074   1.989   5.974 -0.5704  1.9886  0.1945
 7308TIP3   OH221864   5.899   1.029   1.353  0.0856 -0.1879 -0.7111
 7308TIP3    H121865   5.983   1.070   1.374 -0.7600  1.9544 -1.2303
 7308TIP3    H221866   5.911   0.993   1.265  1.0511 -1.7872  0.0200
 7309TIP3   OH221867   2.129   4.939   2.951 -0.3548 -0.1354  0.4395
 7309TIP3    H121868   2.081   4.992   3.015 -0.1394 -0.0298  0.5115
 7309TIP3    H221869   2.083   4.956   2.868  2.1925  3.5480 -0.4660
 7310TIP3   OH221870   6.990   5.958   6.531  0.3366 -0.4066 -0.0263
 7310TIP3    H121871   6.955   6.047   6.535  0.7935 -0.2513  2.4225
 7310TIP3    H221872   6.949   5.919   6.454 -0.6067  1.6143 -0.6080
 7311TIP3   OH221873   8.400   0.035   0.180  0.5221 -0.3597  0.0458
 7311TIP3    H121874   8.473   0.091   0.203  1.2628 -0.9643 -0.7731
 7311TIP3    H221875   8.332   0.095   0.149  0.7624  0.1847  0.5687
 7312TIP3   OH221876   2.476   1.345   4.648  0.1263 -0.4193  0.2975
 7312TIP3    H121877   2.560   1.364   4.690  0.1252  2.4422 -0.7710
 7312TIP3    H221878   2.429   1.428   4.649 -0.6197 -0.5894 -3.5753
 7313TIP3   OH221879   0.045   1.695   4.558  0.0713 -0.1400 -0.5258
 7313TIP3    H121880   0.009   1.609   4.535  1.1677 -1.3051  1.7449
 7313TIP3    H221881  -0.013   1.728   4.627  0.8071 -0.0323  0.0596
 7314TIP3   OH221882   1.627   7.691   1.302 -0.1623 -0.6946 -0.1308
 7314TIP3    H121883   1.683   7.624   1.341 -0.2170 -0.6680 -0.0036
 7314TIP3    H221884   1.685   7.765   1.286  0.1626 -1.2067 -1.4278
 7315TIP3   OH221885   2.191   4.693   3.323  0.0487  0.4336 -0.2577
 7315TIP3    H121886   2.176   4.601   3.303  3.2298 -0.4745  0.9354
 7315TIP3    H221887   2.266   4.718   3.269 -0.0849  2.0002  0.2140
 7316TIP3   OH221888   0.718   4.245   1.192 -0.2431  0.0575  0.0020
 7316TIP3    H121889   0.705   4.253   1.098 -0.7620 -0.6676  0.0066
 7316TIP3    H221890   0.727   4.151   1.208  1.4966  0.2699  0.4772
 7317TIP3   OH221891   5.489   3.645   4.058  0.3610 -0.2387  0.8275
 7317TIP3    H121892   5.443   3.671   4.139  0.0260 -1.5599  1.0829
 7317TIP3    H221893   5.569   3.698   4.058 -0.1475  0.5552  1.4754
 7318TIP3   OH221894   2.576   5.678   5.285 -0.2411  0.4463  0.1369
 7318TIP3    H121895   2.505   5.692   5.223 -0.7703 -1.6728  0.1848
 7318TIP3    H221896   2.638   5.623   5.238 -1.4364 -2.6560  1.9077
 7319TIP3   OH221897   1.809   1.056   4.833  0.5602 -0.6718 -0.1734
 7319TIP3    H121898   1.805   1.016   4.746 -2.2055  0.6186 -0.7575
 7319TIP3    H221899   1.786   0.985   4.892 -0.4731 -0.8920 -0.8110
 7320TIP3   OH221900   8.095   2.064   4.077  0.7183  0.1849 -0.0063
 7320TIP3    H121901   8.140   2.105   4.003 -1.8985  3.9476  0.2394
 7320TIP3    H221902   8.009   2.040   4.043 -0.2639  1.2813  1.5852
 7321TIP3   OH221903   0.596   0.612   1.062  0.0588  0.8378  0.0118
 7321TIP3    H121904   0.546   0.542   1.104 -1.2720  1.7073 -0.0788
 7321TIP3    H221905   0.685   0.576   1.053 -0.8758 -1.3215 -1.2142
 7322TIP3   OH221906   0.025   0.502   2.530 -0.2168 -0.6005  0.3418
 7322TIP3    H121907   0.064   0.493   2.444  0.5888  1.3917  0.4591
 7322TIP3    H221908   0.092   0.470   2.591  0.0612 -0.0321  0.3438
 7323TIP3   OH221909   7.485   2.755   1.104 -0.3883  0.0868  0.3149
 7323TIP3    H121910   7.514   2.708   1.183  1.0646  0.4100 -0.0028
 7323TIP3    H221911   7.536   2.716   1.033 -1.0268  0.4221 -0.3334
 7324TIP3   OH221912   0.181   4.218   6.663  0.9780  0.1462  0.0824
 7324TIP3    H121913   0.225   4.148   6.614 -0.1624 -0.3157 -0.3035
 7324TIP3    H221914   0.212   4.298   6.622  1.9693 -0.1254  0.2522
 7325TIP3   OH221915   0.903   7.592   1.981 -0.0940  0.3426  0.3452
 7325TIP3    H121916   0.855   7.674   1.989 -0.6553  0.0623 -0.1093
 7325TIP3    H221917   0.837   7.527   1.959  0.7422  0.3392 -2.6773
 7326TIP3   OH221918   1.981   0.655   5.051 -0.0269 -0.1872 -0.0511
 7326TIP3    H121919   1.890   0.649   5.022  0.1165 -0.2703 -0.4939
 7326TIP3    H221920   2.020   0.722   4.995  0.8153 -1.8578 -1.5711
 7327TIP3   OH221921   6.332   2.156   5.279  0.3236  0.3854  0.3976
 7327TIP3    H121922   6.282   2.166   5.197  0.4881  1.1715  0.3840
 7327TIP3    H221923   6.285   2.210   5.342  0.0766 -0.3909  0.8863
 7328TIP3   OH221924   4.260   2.023   3.143  0.5483  0.1353  0.2219
 7328TIP3    H121925   4.313   2.004   3.066 -0.1155 -1.3712  0.0960
 7328TIP3    H221926   4.308   1.983   3.215  0.8781  1.0478  0.5236
 7329TIP3   OH221927   4.579   3.031   2.125 -0.4050  0.2018  0.0072
 7329TIP3    H121928   4.516   3.050   2.194 -0.3863 -0.1627  0.1311
 7329TIP3    H221929   4.598   2.937   2.135  0.5935  0.4297  0.3412
 7330TIP3   OH221930   1.763   4.887   5.230  0.3969 -0.3520 -0.3744
 7330TIP3    H121931   1.834   4.948   5.250  2.0014 -2.0634 -0.5691
 7330TIP3    H221932   1.791   4.804   5.268 -1.1993 -1.2421 -1.0470
 7331TIP3   OH221933   4.407   2.304   2.405 -0.0366 -0.1248 -0.7296
 7331TIP3    H121934   4.388   2.350   2.486 -1.3023 -1.4055 -0.2574
 7331TIP3    H221935   4.364   2.220   2.414  0.7020 -0.7238 -2.3002
 7332TIP3   OH221936   7.947   7.444   6.520  0.6476 -0.0685  0.2518
 7332TIP3    H121937   7.886   7.468   6.591  0.8008  0.2383  0.2795
 7332TIP3    H221938   8.023   7.501   6.533  0.5855  0.1453 -0.2920
 7333TIP3   OH221939   0.574   7.054   2.671 -0.6608 -0.4923  0.3328
 7333TIP3    H121940   0.517   7.057   2.747  0.3054  1.5669  1.0431
 7333TIP3    H221941   0.569   7.142   2.633  0.7033 -0.7728 -0.5734
 7334TIP3   OH221942   7.975   3.431   5.696  0.2059 -0.1350 -0.1141
 7334TIP3    H121943   7.896   3.473   5.729  0.6912  2.6967 -2.1637
 7334TIP3    H221944   7.958   3.418   5.602  1.7098 -0.5594 -0.3521
 7335TIP3   OH221945   0.115   4.218   0.380  0.0009 -0.2943  0.8082
 7335TIP3    H121946   0.094   4.289   0.319  0.8644 -0.2519  0.5525
 7335TIP3    H221947   0.047   4.152   0.363 -0.6593  0.3507  0.8717
 7336TIP3   OH221948   1.735   3.960   3.560  0.3063 -0.6629  0.3775
 7336TIP3    H121949   1.772   3.924   3.641 -1.1777 -1.6707  0.6425
 7336TIP3    H221950   1.645   3.984   3.583  0.3987  0.6923 -0.5400
 7337TIP3   OH221951   7.691   1.840   0.022 -0.0870 -0.1689  0.3082
 7337TIP3    H121952   7.767   1.811  -0.029 -0.1962  0.4289 -0.2030
 7337TIP3    H221953   7.728   1.870   0.105  0.6323  2.7814 -0.9344
 7338TIP3   OH221954   8.390   6.971   0.493 -0.0091  0.2418 -0.0008
 7338TIP3    H121955   8.297   6.953   0.483 -0.0472 -0.2845  1.1770
 7338TIP3    H221956   8.396   7.067   0.493 -0.2360  0.3368 -2.4475
 7339TIP3   OH221957   0.159   4.990   0.571  0.3442 -0.4437 -0.6281
 7339TIP3    H121958   0.071   4.966   0.600  1.1143  0.6893  3.2325
 7339TIP3    H221959   0.217   4.954   0.638  2.8852 -0.8946 -2.8888
 7340TIP3   OH221960   5.068   7.739   3.398  0.7149 -0.5512 -0.5486
 7340TIP3    H121961   5.086   7.831   3.376 -0.2065 -0.4149 -0.7473
 7340TIP3    H221962   4.996   7.714   3.341  1.0184 -1.4386 -0.5613
 7341TIP3   OH221963   3.835   1.922   2.151 -0.1945 -0.4561  0.6767
 7341TIP3    H121964   3.771   1.931   2.222 -1.2151 -0.0129 -0.2848
 7341TIP3    H221965   3.920   1.928   2.195 -0.7995  1.4428  1.6734
 7342TIP3   OH221966   4.973   1.026   5.418  0.4540 -0.1116  0.3118
 7342TIP3    H121967   4.984   0.936   5.387  1.9862 -0.7459  2.4632
 7342TIP3    H221968   5.061   1.053   5.445 -0.4807  0.8635  2.6582
 7343TIP3   OH221969   2.777   1.160   3.824 -0.3044  0.0419 -0.3262
 7343TIP3    H121970   2.861   1.166   3.779 -0.1605  3.0772  0.1223
 7343TIP3    H221971   2.798   1.122   3.909 -0.1895 -3.3419 -1.7111
 7344TIP3   OH221972   7.590   2.212   2.592 -0.4113 -1.0609 -0.2057
 7344TIP3    H121973   7.582   2.164   2.674 -0.2281 -0.4952  0.1510
 7344TIP3    H221974   7.571   2.303   2.616 -2.9629 -1.2404 -1.2690
 7345TIP3   OH221975   3.379   2.055   3.383  0.1267 -0.3264  0.6207
 7345TIP3    H121976   3.345   2.139   3.351 -0.0394 -0.9372 -0.9077
 7345TIP3    H221977   3.307   2.017   3.432  0.5382  0.8424  2.2090
 7346TIP3   OH221978   7.047   7.711   6.492 -0.4991 -0.0403  0.1595
 7346TIP3    H121979   7.095   7.751   6.565  1.1768 -0.9367 -0.4068
 7346TIP3    H221980   7.055   7.775   6.421  0.6283 -0.5526 -0.1939
 7347TIP3   OH221981   2.456   2.724   2.634 -0.2786  0.2310  0.9688
 7347TIP3    H121982   2.478   2.696   2.723  2.0427  1.7432  0.9689
 7347TIP3    H221983   2.401   2.801   2.647 -0.1692  0.2861  1.1208
 7348TIP3   OH221984   1.805   1.738   4.042 -0.7653 -0.3712  0.2774
 7348TIP3    H121985   1.886   1.707   4.083 -0.4405 -0.5573 -0.4790
 7348TIP3    H221986   1.763   1.658   4.009 -1.1781 -0.2587  0.5298
 7349TIP3   OH221987   3.253   7.497   2.093  0.1809 -0.0923  0.1797
 7349TIP3    H121988   3.175   7.533   2.052  0.1067  0.5682  0.8583
 7349TIP3    H221989   3.233   7.498   2.187  0.7187 -0.6241  0.3066
 7350TIP3   OH221990   5.368   7.403   4.319 -0.3096 -0.3628 -0.1693
 7350TIP3    H121991   5.387   7.391   4.412  1.2180  1.3649 -0.1992
 7350TIP3    H221992   5.442   7.452   4.286 -0.8798 -0.8611 -2.3104
 7351TIP3   OH221993   7.221   3.962   3.637  0.4570 -0.0990  0.1046
 7351TIP3    H121994   7.258   4.004   3.559  1.7550  0.2296  0.8740
 7351TIP3    H221995   7.173   3.887   3.602  1.1736 -0.0754 -0.9941
 7352TIP3   OH221996   4.977   3.514   3.171 -0.0214  0.1426 -0.1294
 7352TIP3    H121997   4.984   3.440   3.111  0.9677 -0.5578  0.8442
 7352TIP3    H221998   5.059   3.562   3.160 -0.4069  0.7831 -0.3140
 7353TIP3   OH221999   7.943   1.652   5.282  0.3512 -0.3850 -0.1342
 7353TIP3    H122000   7.984   1.718   5.226  0.7010 -0.0666  0.4893
 7353TIP3    H222001   7.899   1.703   5.350 -0.9098 -0.7214 -0.6638
 7354TIP3   OH222002   8.345   5.426   6.698 -0.1627  0.3468 -0.6283
 7354TIP3    H122003   8.279   5.421   6.767  0.0928 -4.8783 -0.3556
 7354TIP3    H222004   8.366   5.519   6.691 -3.2257  1.6076  3.3464
 7355TIP3   OH222005   3.694   4.069   0.455  0.1102  0.4377 -0.7849
 7355TIP3    H122006   3.763   4.129   0.429  0.8349 -1.4029 -3.5597
 7355TIP3    H222007   3.718   4.043   0.544 -0.1601  3.9565  0.4801
 7356TIP3   OH222008   0.676   6.440   5.166 -0.3571 -0.3982  0.2871
 7356TIP3    H122009   0.592   6.478   5.193  0.0581  0.3914  0.5315
 7356TIP3    H222010   0.674   6.442   5.071 -0.2392  0.5248  0.2908
 7357TIP3   OH222011   1.580   3.542   3.094  0.4349  0.0168  0.5423
 7357TIP3    H122012   1.564   3.512   3.004  0.5620  0.7587  0.2612
 7357TIP3    H222013   1.647   3.610   3.084 -1.2121  1.7764  0.9294
 7358TIP3   OH222014   1.465   1.768   5.828 -0.1660  0.2341 -0.1690
 7358TIP3    H122015   1.398   1.699   5.835  0.9478 -0.8319  0.3689
 7358TIP3    H222016   1.462   1.795   5.737 -1.2325  0.1004 -0.1861
 7359TIP3   OH222017   4.106   1.493   6.425  0.0039 -0.7504 -1.0028
 7359TIP3    H122018   4.079   1.442   6.501 -1.2836 -0.8469 -1.4996
 7359TIP3    H222019   4.024   1.519   6.383  0.6719  0.2147 -1.7589
 7360TIP3   OH222020   7.279   3.841   4.138 -0.6393  0.3353 -1.1625
 7360TIP3    H122021   7.252   3.870   4.051 -2.3487  0.9894 -0.4520
 7360TIP3    H222022   7.275   3.920   4.192  0.7100  0.0071 -0.5280
 7361TIP3   OH222023   2.043   2.530   3.736 -0.3091  0.0280 -0.2575
 7361TIP3    H122024   2.009   2.464   3.676 -0.0714 -1.9052  1.6143
 7361TIP3    H222025   2.132   2.501   3.757 -0.7623 -0.0211  1.8624
 7362TIP3   OH222026   1.870   7.294   2.900  0.2454  0.3843  0.3702
 7362TIP3    H122027   1.825   7.254   2.825  0.6615 -0.2811  0.4626
 7362TIP3    H222028   1.960   7.306   2.870  0.3019  0.5465  0.6044
 7363TIP3   OH222029   7.558   4.261   3.437  0.0903  0.0279  0.0463
 7363TIP3    H122030   7.634   4.294   3.485 -0.8710  2.8151 -0.1706
 7363TIP3    H222031   7.495   4.238   3.505  0.1414  0.3016  0.1880
 7364TIP3   OH222032   7.406   1.006   0.631  0.2392 -0.1078  0.0028
 7364TIP3    H122033   7.349   1.056   0.573  1.0746  0.2157 -0.5644
 7364TIP3    H222034   7.354   0.990   0.709  0.2584  2.5747  0.6722
 7365TIP3   OH222035   1.375   2.819   3.197  0.0461  0.2338 -0.2975
 7365TIP3    H122036   1.470   2.825   3.205  0.1621 -0.8652 -0.6718
 7365TIP3    H222037   1.350   2.747   3.255 -0.4554  0.0111 -0.7720
 7366TIP3   OH222038   2.100   3.880   3.680 -0.4467  0.4531  0.1380
 7366TIP3    H122039   2.108   3.848   3.590 -0.0945 -0.5254  0.5086
 7366TIP3    H222040   2.006   3.872   3.700 -0.2342 -1.3922  0.5799
 7367TIP3   OH222041   8.161   0.547   3.639 -0.2240 -0.3559 -0.5032
 7367TIP3    H122042   8.093   0.531   3.703  0.3168 -1.0989 -0.0896
 7367TIP3    H222043   8.227   0.599   3.685 -0.1062 -0.3835 -0.6382
 7368TIP3   OH222044   3.027   1.999   4.380  0.4703 -0.0667  0.4510
 7368TIP3    H122045   2.955   2.058   4.403 -0.7584 -0.1469 -2.7334
 7368TIP3    H222046   3.093   2.057   4.341  0.0233 -0.5207 -1.0401
 7369TIP3   OH222047   2.663   5.817   1.356  0.4010 -0.3050  0.3484
 7369TIP3    H122048   2.648   5.742   1.297  2.5208 -0.5363  0.0418
 7369TIP3    H222049   2.648   5.894   1.301 -0.1331 -0.4974  0.2124
 7370TIP3   OH222050   0.752   5.255   1.542  0.5739 -0.2718  0.0257
 7370TIP3    H122051   0.769   5.306   1.621 -1.4570 -0.5624  0.6963
 7370TIP3    H222052   0.696   5.312   1.489 -0.9148 -1.3675  0.3562
 7371TIP3   OH222053   0.273   3.879   3.824  0.3536  0.2318  0.1766
 7371TIP3    H122054   0.278   3.974   3.820 -0.0039  0.2071 -1.3077
 7371TIP3    H222055   0.354   3.853   3.869  0.4517  1.2221  0.5993
 7372TIP3   OH222056   1.235   5.284   1.975  0.3128 -0.2440 -0.2110
 7372TIP3    H122057   1.292   5.331   2.036  2.4814 -1.3834 -1.2681
 7372TIP3    H222058   1.279   5.201   1.959 -0.8185 -0.4958 -2.3644
 7373TIP3   OH222059   2.769   4.748   0.457 -0.1477  0.5138 -1.0872
 7373TIP3    H122060   2.764   4.761   0.362  0.1935  1.2197 -1.0202
 7373TIP3    H222061   2.712   4.815   0.493 -0.9622 -0.3157 -0.8141
 7374TIP3   OH222062   7.366   1.673   2.555  0.4322 -0.0632  0.0199
 7374TIP3    H122063   7.460   1.655   2.556  0.7996  1.5870  1.9181
 7374TIP3    H222064   7.360   1.768   2.544 -1.0954 -0.2516 -1.2790
 7375TIP3   OH222065   3.567   6.517   6.710  0.3475  0.5764 -0.3152
 7375TIP3    H122066   3.563   6.441   6.769  1.5929  0.1479 -0.7341
 7375TIP3    H222067   3.476   6.541   6.694 -0.0464 -0.4242  0.3616
 7376TIP3   OH222068   6.755   2.688   1.669  0.4195 -0.0792 -0.4987
 7376TIP3    H122069   6.663   2.662   1.663  0.4206  0.1773 -2.0841
 7376TIP3    H222070   6.802   2.624   1.615  0.9481  0.7031 -0.9945
 7377TIP3   OH222071   4.555   7.712   3.788 -0.4454  0.2178 -0.0349
 7377TIP3    H122072   4.557   7.619   3.809  0.1351  0.4910  1.2284
 7377TIP3    H222073   4.568   7.716   3.694  0.1326 -0.9537 -0.0198
 7378TIP3   OH222074   3.075   7.074   0.854  0.1704 -0.0579 -0.4554
 7378TIP3    H122075   3.161   7.031   0.858  0.1274 -0.0538  1.5417
 7378TIP3    H222076   3.012   7.004   0.871 -0.1451  0.1673 -0.6817
 7379TIP3   OH222077   3.942   1.431   0.906  0.3283 -0.5251 -0.1219
 7379TIP3    H122078   3.917   1.345   0.874  0.2585  0.2053 -2.1465
 7379TIP3    H222079   3.859   1.474   0.927  0.3742 -1.0027  1.1467
 7380TIP3   OH222080   3.502   4.259   0.362  0.1073 -0.3670 -0.4136
 7380TIP3    H122081   3.411   4.261   0.393 -0.0398 -0.7870 -0.7898
 7380TIP3    H222082   3.535   4.174   0.391  0.5642  0.0238  0.2152
 7381TIP3   OH222083   0.605   4.738   2.407 -0.4438  1.0118  0.0961
 7381TIP3    H122084   0.554   4.801   2.356 -0.1627  2.5044  1.5710
 7381TIP3    H222085   0.696   4.765   2.394 -0.2201  0.1411 -0.2245
 7382TIP3   OH222086   5.819   6.810   2.890  0.1327 -0.0003  0.6018
 7382TIP3    H122087   5.897   6.824   2.837  0.1287 -0.2545  0.5324
 7382TIP3    H222088   5.851   6.766   2.969 -0.0606 -0.8407  0.2134
 7383TIP3   OH222089   1.569   6.658   0.536 -0.3748  0.0930 -0.2595
 7383TIP3    H122090   1.602   6.586   0.590  4.8808  1.3339 -1.2102
 7383TIP3    H222091   1.587   6.631   0.446 -0.0218  1.7768 -0.7363
 7384TIP3   OH222092   4.217   5.587   4.361  0.3944 -0.3600 -0.4194
 7384TIP3    H122093   4.293   5.641   4.336  0.1332 -0.3823 -1.2698
 7384TIP3    H222094   4.164   5.646   4.415  0.6371 -0.1063 -0.4504
 7385TIP3   OH222095   0.607   6.931   6.456  0.1347 -0.4134 -0.3594
 7385TIP3    H122096   0.632   6.839   6.466  0.0995 -0.3030  0.8013
 7385TIP3    H222097   0.686   6.980   6.480 -1.0090 -0.0583  3.1983
 7386TIP3   OH222098   5.393   3.932   3.123  0.0632  0.1736 -0.1929
 7386TIP3    H122099   5.409   3.839   3.104  0.7856  0.2201  0.1445
 7386TIP3    H222100   5.302   3.946   3.098  0.2137 -0.3983 -1.1319
 7387TIP3   OH222101   5.411   7.448   2.967  0.6766  0.0647 -0.1039
 7387TIP3    H122102   5.407   7.361   2.928  0.2423 -0.2786  0.6815
 7387TIP3    H222103   5.503   7.458   2.993  0.4927 -0.6519  0.8739
 7388TIP3   OH222104   2.801   0.105   6.356  0.2353  0.6801 -0.2139
 7388TIP3    H122105   2.766   0.191   6.379  1.0527  0.8063  0.6454
 7388TIP3    H222106   2.742   0.072   6.288 -0.9915  1.2642  0.5222
 7389TIP3   OH222107   2.033   5.670   1.344  1.0446  0.0008  0.0628
 7389TIP3    H122108   2.030   5.630   1.432 -3.7248  1.4843  0.8752
 7389TIP3    H222109   2.021   5.597   1.284 -0.3312 -0.6157  1.0354
 7390TIP3   OH222110   2.256   5.046   0.342  0.3417 -0.3483  0.0439
 7390TIP3    H122111   2.220   5.133   0.358 -1.8080 -1.2715  0.6499
 7390TIP3    H222112   2.351   5.057   0.351  0.0724  1.7460  0.9049
 7391TIP3   OH222113   6.246   0.611   3.437  0.4788  0.5370  0.2431
 7391TIP3    H122114   6.189   0.685   3.458 -0.9465  0.1975 -2.0434
 7391TIP3    H222115   6.276   0.629   3.348  0.9063 -1.1438  0.0247
 7392TIP3   OH222116   7.298   4.480   5.444 -0.0990  0.3108 -0.0181
 7392TIP3    H122117   7.317   4.564   5.401 -1.3738  0.1630 -0.9100
 7392TIP3    H222118   7.205   4.467   5.430 -0.6528  0.3299  2.9542
 7393TIP3   OH222119   8.348   1.787   4.816 -0.4397 -0.5035 -0.5391
 7393TIP3    H122120   8.357   1.873   4.858  1.4102 -1.2690  0.7497
 7393TIP3    H222121   8.258   1.760   4.835 -0.1288 -0.1263  1.6449
 7394TIP3   OH222122   1.405   2.962   3.479  0.1176  0.0016  0.2285
 7394TIP3    H122123   1.353   2.931   3.405 -0.0794 -0.8776  0.7214
 7394TIP3    H222124   1.352   2.942   3.555  0.2598  1.0218  0.6080
 7395TIP3   OH222125   2.219   0.684   2.316 -0.1011  0.3739  0.9239
 7395TIP3    H122126   2.313   0.680   2.331  0.4782  0.9443 -1.9327
 7395TIP3    H222127   2.186   0.597   2.339  1.1247  0.1258  1.8015
 7396TIP3   OH222128   6.782   6.463   4.392  0.2428 -0.3154 -0.6214
 7396TIP3    H122129   6.707   6.521   4.377  0.4821 -0.0644 -0.8769
 7396TIP3    H222130   6.836   6.474   4.313 -0.0775 -1.4582 -1.0257
 7397TIP3   OH222131   5.161   6.939   3.883 -0.1405  0.2913 -0.0703
 7397TIP3    H122132   5.211   6.863   3.914 -2.0150 -0.6036  0.9311
 7397TIP3    H222133   5.183   7.009   3.944  1.3495  0.4941 -0.8043
 7398TIP3   OH222134   5.802   1.823   1.782 -0.5584  0.0207  0.1851
 7398TIP3    H122135   5.849   1.769   1.845 -0.4735  0.8960  0.9020
 7398TIP3    H222136   5.790   1.907   1.827 -1.9374  0.1401 -0.3565
 7399TIP3   OH222137   0.137   1.779   5.068  0.3676 -0.1871 -0.1349
 7399TIP3    H122138   0.150   1.687   5.045  0.8205 -0.7286  2.0792
 7399TIP3    H222139   0.149   1.827   4.986  0.6719 -2.0507 -1.2131
 7400TIP3   OH222140   5.779   3.230   5.203 -0.0675  0.1348 -0.0589
 7400TIP3    H122141   5.712   3.165   5.180  0.8232 -0.6838 -0.4151
 7400TIP3    H222142   5.842   3.181   5.256  0.7636  0.6301 -0.5775
 7401TIP3   OH222143   1.678   1.131   3.934  0.3025  0.2534  0.0501
 7401TIP3    H122144   1.677   1.164   3.844 -1.9992  0.8524  0.2381
 7401TIP3    H222145   1.768   1.102   3.948  0.3470 -1.3947 -2.9999
 7402TIP3   OH222146   6.729   3.830   0.806  0.4102  0.2213 -0.2498
 7402TIP3    H122147   6.646   3.792   0.833  1.5130 -1.1983  1.3834
 7402TIP3    H222148   6.713   3.861   0.717 -1.8793  0.1139  0.0619
 7403TIP3   OH222149   5.640   1.141   5.971  0.0344  0.1013 -0.3031
 7403TIP3    H122150   5.718   1.167   6.021 -0.7783  0.0785  1.0338
 7403TIP3    H222151   5.670   1.137   5.880  1.7438 -0.4802  0.2393
 7404TIP3   OH222152   7.500   0.382   1.000 -0.1392 -0.0687  0.1853
 7404TIP3    H122153   7.478   0.468   0.964 -0.9578  0.1897  1.2436
 7404TIP3    H222154   7.594   0.374   0.987  0.1670  1.5333  1.1678
 7405TIP3   OH222155   6.234   4.363   0.667  0.3271  0.8103 -0.5794
 7405TIP3    H122156   6.263   4.273   0.652 -1.6496 -0.5081  2.5563
 7405TIP3    H222157   6.152   4.370   0.617  0.4370  0.8413 -0.7561
 7406TIP3   OH222158   1.398   0.364   3.266  0.3027 -0.1304 -0.5243
 7406TIP3    H122159   1.469   0.419   3.234  0.2538 -1.2120 -2.6598
 7406TIP3    H222160   1.430   0.274   3.255 -1.2748 -0.6328 -1.3018
 7407TIP3   OH222161   4.468   3.020   3.909  0.2326  0.5583 -0.1181
 7407TIP3    H122162   4.492   3.087   3.973  0.7393 -0.5123  0.8324
 7407TIP3    H222163   4.397   2.972   3.951  2.3096 -1.8689  0.8816
 7408TIP3   OH222164   3.895   5.392   4.089 -0.0387 -0.3817  0.1022
 7408TIP3    H122165   3.801   5.385   4.100  0.3363 -2.8574  2.6417
 7408TIP3    H222166   3.929   5.412   4.176  1.8534 -0.4613 -0.5590
 7409TIP3   OH222167   4.540   3.932   2.338 -0.5676 -0.5687 -0.5090
 7409TIP3    H122168   4.535   3.990   2.262 -0.6638 -0.4977 -0.4499
 7409TIP3    H222169   4.519   3.845   2.304  1.1608 -0.8509 -0.9026
 7410TIP3   OH222170   2.918   5.788   1.137  0.3530 -0.0489  0.2790
 7410TIP3    H122171   2.994   5.832   1.097  0.9199 -1.1461  0.1014
 7410TIP3    H222172   2.847   5.852   1.131 -0.2799 -0.8785 -4.5942
 7411TIP3   OH222173   1.471   5.645   1.811 -0.0728  0.0339  0.2482
 7411TIP3    H122174   1.394   5.615   1.762  0.3838 -2.0549  0.7076
 7411TIP3    H222175   1.445   5.639   1.903 -0.0597  1.4552  0.3735
 7412TIP3   OH222176   4.587   0.262   5.345  0.3133  0.1515 -0.7002
 7412TIP3    H122177   4.511   0.223   5.388  1.1195 -0.8685 -0.1466
 7412TIP3    H222178   4.560   0.273   5.254 -0.1295 -1.2851 -0.7737
 7413TIP3   OH222179   1.429   6.525   6.280  0.6933  0.4260 -0.8357
 7413TIP3    H122180   1.354   6.498   6.226  0.4620 -0.4879 -0.0948
 7413TIP3    H222181   1.401   6.505   6.369  1.5414  0.7836 -0.4870
 7414TIP3   OH222182   3.498   7.741   1.172 -0.6245  0.2620 -0.1892
 7414TIP3    H122183   3.512   7.646   1.164 -0.6365  0.0663  1.7230
 7414TIP3    H222184   3.403   7.750   1.180 -0.4844  0.0340  3.1196
 7415TIP3   OH222185   6.703   2.664   5.727  0.6329 -0.3185  0.5812
 7415TIP3    H122186   6.795   2.640   5.717  0.9703  0.9328  0.4480
 7415TIP3    H222187   6.661   2.629   5.649  1.3288  0.5389 -0.2042
 7416TIP3   OH222188   5.169   0.154   3.378  0.2881 -0.1310  0.3636
 7416TIP3    H122189   5.234   0.206   3.426 -0.9859  1.9625 -0.0171
 7416TIP3    H222190   5.196   0.063   3.391  3.4769  0.6204 -0.0581
 7417TIP3   OH222191   6.018   6.046   0.774  0.3284 -0.5054  0.9435
 7417TIP3    H122192   5.982   6.009   0.855 -1.4963 -0.0263  0.4003
 7417TIP3    H222193   5.985   5.989   0.705 -0.7834  0.8824  0.2884
 7418TIP3   OH222194   1.786   0.894   4.161  0.0809 -0.1259  0.2446
 7418TIP3    H122195   1.764   0.801   4.157 -1.4149  0.1778  0.7763
 7418TIP3    H222196   1.881   0.897   4.148  0.0425 -1.6504 -0.6284
 7419TIP3   OH222197   2.880   4.204   0.679  0.9865 -0.0282 -0.1309
 7419TIP3    H122198   2.860   4.186   0.587 -1.5229  1.2938  0.0825
 7419TIP3    H222199   2.818   4.272   0.705  1.4528 -0.5279  2.6277
 7420TIP3   OH222200   5.232   6.188   6.223  0.2190 -0.2592  0.3719
 7420TIP3    H122201   5.293   6.118   6.248  1.6695  1.1643  0.9744
 7420TIP3    H222202   5.255   6.208   6.132 -1.1056 -1.4392 -0.2557
 7421TIP3   OH222203   6.184   5.468   4.696 -0.5156 -0.0659 -0.8162
 7421TIP3    H122204   6.126   5.408   4.647 -0.4083 -1.5547  0.7914
 7421TIP3    H222205   6.125   5.514   4.756 -0.3205  0.0363 -0.7049
 7422TIP3   OH222206   2.719   7.793   6.329  0.1603  0.1478 -0.1502
 7422TIP3    H122207   2.676   7.818   6.412 -0.8154 -0.5717 -0.4132
 7422TIP3    H222208   2.812   7.807   6.345 -0.1827  2.3028  0.2709
 7423TIP3   OH222209   2.045   0.828   0.641 -0.4923 -0.2129 -0.2833
 7423TIP3    H122210   2.007   0.904   0.598  0.3636  1.1937  1.3511
 7423TIP3    H222211   1.970   0.776   0.670 -1.0804 -0.5196 -2.1913
 7424TIP3   OH222212   5.135   6.780   6.364 -0.4382 -0.4273  0.1016
 7424TIP3    H122213   5.170   6.783   6.275 -0.0177  0.3037  0.2885
 7424TIP3    H222214   5.162   6.863   6.404 -2.1449  0.0590  0.3356
 7425TIP3   OH222215   1.201   0.283   2.283 -0.2113 -0.2333  0.8316
 7425TIP3    H122216   1.218   0.197   2.320  0.5308 -0.6649 -0.4612
 7425TIP3    H222217   1.105   0.288   2.277 -0.2403 -1.1963  0.3976
 7426TIP3   OH222218   2.175   5.343   0.312  0.8763 -0.0647  0.2312
 7426TIP3    H122219   2.225   5.339   0.230 -1.3075 -2.3010 -1.1381
 7426TIP3    H222220   2.139   5.432   0.313 -0.2900 -0.4286 -2.1312
 7427TIP3   OH222221   2.367   2.349   3.368 -0.4779  0.2094  0.6016
 7427TIP3    H122222   2.338   2.322   3.455  0.2610  0.0545  0.8075
 7427TIP3    H222223   2.461   2.363   3.377 -0.3922  0.2001 -0.1721
 7428TIP3   OH222224   2.269   2.601   4.779  0.1099 -0.1712  0.3036
 7428TIP3    H122225   2.288   2.656   4.704  1.2228 -0.1510  0.5852
 7428TIP3    H222226   2.351   2.554   4.796 -0.1950 -0.3481  1.3587
 7429TIP3   OH222227   5.611   3.004   6.713 -0.1425  0.0487  0.2296
 7429TIP3    H122228   5.544   2.947   6.750  0.3434 -1.4542 -1.1154
 7429TIP3    H222229   5.685   2.947   6.695  0.0415  0.8945 -1.9898
 7430TIP3   OH222230   8.087   3.894   3.352 -0.2924 -0.2367  0.2556
 7430TIP3    H122231   8.122   3.974   3.312 -0.4301 -0.6616 -0.7612
 7430TIP3    H222232   8.108   3.902   3.445  1.6628 -0.0371 -0.1526
 7431TIP3   OH222233   6.960   7.065   1.496  0.4407  0.1125  0.3837
 7431TIP3    H122234   6.971   7.005   1.422 -0.2706 -0.7162  0.9121
 7431TIP3    H222235   7.045   7.064   1.541  0.4448 -0.5017  0.3729
 7432TIP3   OH222236   0.058   6.675   6.435  0.4715  0.6984  0.0058
 7432TIP3    H122237   0.112   6.730   6.378 -0.4412  1.1535 -0.4546
 7432TIP3    H222238  -0.032   6.695   6.408  0.1165 -1.9437 -1.0686
 7433TIP3   OH222239   0.243   4.686   0.180 -0.1756  0.1373  0.1787
 7433TIP3    H122240   0.327   4.723   0.155 -0.2706  0.0479 -0.2844
 7433TIP3    H222241   0.206   4.653   0.098 -1.5810  1.9929  0.0172
 7434TIP3   OH222242   3.542   7.309   2.212  0.1458 -0.1028  0.2991
 7434TIP3    H122243   3.495   7.376   2.263  0.3963 -1.1548  1.9955
 7434TIP3    H222244   3.474   7.249   2.184  0.0430  0.3303 -0.4020
 7435TIP3   OH222245   2.464   7.557   2.498 -0.2432  0.4553  0.7729
 7435TIP3    H122246   2.391   7.549   2.437 -0.2196  1.9688  0.5208
 7435TIP3    H222247   2.532   7.499   2.461 -0.1986  1.3935 -0.7047
 7436TIP3   OH222248   5.114   3.222   2.138 -0.2061  0.3854 -0.7663
 7436TIP3    H122249   5.054   3.216   2.064 -0.3050  2.4170 -0.8970
 7436TIP3    H222250   5.058   3.227   2.215 -0.2503  1.9405 -0.8640
 7437TIP3   OH222251   3.196   4.973   4.215 -0.6286 -0.0736 -0.8427
 7437TIP3    H122252   3.269   4.979   4.276 -0.2054 -2.4815 -1.0046
 7437TIP3    H222253   3.118   4.969   4.270 -0.4871  0.5773 -0.5909
 7438TIP3   OH222254   1.402   5.606   3.112 -0.2116 -0.4218  0.8824
 7438TIP3    H122255   1.345   5.576   3.182 -0.4587 -1.7588  0.1352
 7438TIP3    H222256   1.373   5.558   3.034 -0.3146  1.4240 -0.2943
 7439TIP3   OH222257   4.004   3.909   3.178  0.0688  0.3615  0.0212
 7439TIP3    H122258   3.976   3.884   3.090 -1.2436  0.6814  0.3319
 7439TIP3    H222259   4.100   3.905   3.175 -0.0047 -1.2079 -0.9515
 7440TIP3   OH222260   2.255   7.426   5.857  0.0471 -0.4867 -0.1078
 7440TIP3    H122261   2.316   7.494   5.828 -0.4604 -0.8615 -2.2100
 7440TIP3    H222262   2.277   7.411   5.949  0.9634  1.6509  0.0656
 7441TIP3   OH222263   3.824   0.043   2.277 -0.5176  0.1382  0.5393
 7441TIP3    H122264   3.825  -0.048   2.305 -0.3690  0.2859  1.0245
 7441TIP3    H222265   3.911   0.077   2.299 -0.9489  0.7070  1.4182
 7442TIP3   OH222266   6.119   6.203   2.158 -0.1515 -0.0394  0.1089
 7442TIP3    H122267   6.196   6.260   2.162  0.3322 -0.6159 -0.7626
 7442TIP3    H222268   6.046   6.263   2.139  0.7356  0.0732 -3.8549
 7443TIP3   OH222269   2.208   0.568   3.345 -0.1916  0.4950 -0.2140
 7443TIP3    H122270   2.277   0.631   3.322  1.2559 -0.4913  1.2549
 7443TIP3    H222271   2.156   0.614   3.411 -0.0115  0.6920 -0.2064
 7444TIP3   OH222272  -0.002   6.195   0.583 -0.2197  0.5565  0.0089
 7444TIP3    H122273   0.026   6.188   0.492  0.2954  1.4073  0.0884
 7444TIP3    H222274   0.022   6.284   0.608  1.5246 -0.2989  1.5941
 7445TIP3   OH222275   3.538   0.794   6.503  0.0684  0.4538  0.3755
 7445TIP3    H122276   3.563   0.886   6.512 -0.5005  0.5845  0.6684
 7445TIP3    H222277   3.464   0.783   6.563  0.2998 -0.2627  0.5460
 7446TIP3   OH222278   7.197   4.581   1.129  0.5389 -0.3964  0.6379
 7446TIP3    H122279   7.264   4.600   1.194  0.9965 -0.0913  0.0810
 7446TIP3    H222280   7.213   4.490   1.104 -0.2470 -0.8406  1.6472
 7447TIP3   OH222281   8.127   1.297   4.372 -0.4656  0.3407  0.1457
 7447TIP3    H122282   8.108   1.209   4.403 -0.4277  0.1273 -0.4162
 7447TIP3    H222283   8.154   1.285   4.281  0.3698  0.8512  0.3178
 7448TIP3   OH222284   6.520   3.834   6.686 -0.0089 -0.2154 -0.5420
 7448TIP3    H122285   6.446   3.782   6.656 -0.3218 -0.0801 -0.0249
 7448TIP3    H222286   6.534   3.806   6.776 -0.0563  0.4499 -0.3202
 7449TIP3   OH222287   2.778   7.100   0.234  0.2859 -0.2915  0.6938
 7449TIP3    H122288   2.813   7.090   0.145 -0.2379  1.6203  0.2412
 7449TIP3    H222289   2.850   7.138   0.284  0.0327  0.2662  0.6441
 7450TIP3   OH222290   1.635   1.555   3.412  0.1546  0.7947 -0.5404
 7450TIP3    H122291   1.726   1.526   3.424 -0.6685 -1.5018  0.7429
 7450TIP3    H222292   1.582   1.480   3.440 -2.1625  1.3770 -2.9791
 7451TIP3   OH222293   8.209   0.218   6.483  0.2747 -0.1054  0.0142
 7451TIP3    H122294   8.245   0.219   6.572 -1.5971 -1.8964  0.8783
 7451TIP3    H222295   8.280   0.250   6.428  1.2853  1.6520  2.2043
 7452TIP3   OH222296   6.001   6.690   3.810  0.5901  0.4998  0.0809
 7452TIP3    H122297   5.992   6.660   3.719 -0.6516 -1.3958  0.7692
 7452TIP3    H222298   6.006   6.610   3.861 -0.6091  1.4945  1.8594
 7453TIP3   OH222299   0.175   7.229   6.614 -0.0348  0.0282 -0.3631
 7453TIP3    H122300   0.239   7.300   6.604  0.0818  0.0007  0.1904
 7453TIP3    H222301   0.208   7.159   6.557  0.4337  0.0093 -0.0754
 7454TIP3   OH222302   2.086   0.793   6.116 -0.6107 -0.3052 -1.2305
 7454TIP3    H122303   2.181   0.790   6.129 -0.3363  2.7471 -1.8861
 7454TIP3    H222304   2.050   0.751   6.195  1.2449 -0.5445 -0.4516
 7455TIP3   OH222305   8.278   3.053   2.754 -0.0867 -0.2021 -0.4499
 7455TIP3    H122306   8.219   3.121   2.720 -2.0728 -1.1020  0.9929
 7455TIP3    H222307   8.297   3.082   2.844 -0.7735 -1.3896  0.1005
 7456TIP3   OH222308   3.814   6.841   3.727  0.5698  0.0512  0.2171
 7456TIP3    H122309   3.747   6.812   3.789  1.1736 -0.8350  0.4820
 7456TIP3    H222310   3.815   6.936   3.734  0.4648 -0.0224  1.4011
 7457TIP3   OH222311   1.075   7.099   2.323 -0.3159  0.4941 -0.1929
 7457TIP3    H122312   1.074   7.116   2.228 -0.5883  0.1226 -0.2614
 7457TIP3    H222313   1.166   7.080   2.343 -0.5118 -1.1925 -0.7187
 7458TIP3   OH222314   7.224   2.014   3.259  0.2411  0.0115 -0.4296
 7458TIP3    H122315   7.188   1.937   3.302  2.4408 -0.7911  0.1108
 7458TIP3    H222316   7.284   1.980   3.193  1.9473  1.1922  0.4173
 7459TIP3   OH222317   7.093   2.410   6.059 -0.3412  0.1834 -0.2751
 7459TIP3    H122318   7.122   2.481   6.002  3.1410 -0.2423  0.7188
 7459TIP3    H222319   7.081   2.452   6.145 -2.0316  0.1821 -0.4800
 7460TIP3   OH222320   1.584   6.097   5.594 -0.2797  0.0613  0.5172
 7460TIP3    H122321   1.606   6.169   5.534  1.8389  0.1849  1.3292
 7460TIP3    H222322   1.491   6.083   5.582 -0.5780  2.3313 -0.3613
 7461TIP3   OH222323   3.481   2.466   4.976 -0.8894 -0.1881 -0.1854
 7461TIP3    H122324   3.538   2.415   5.034 -1.1003 -0.7713 -0.4840
 7461TIP3    H222325   3.507   2.557   4.991  0.9238 -0.5018 -1.1495
 7462TIP3   OH222326   4.148   3.979   3.808 -0.0316 -0.3028  0.4483
 7462TIP3    H122327   4.231   3.973   3.854 -0.3238 -1.5544  0.8499
 7462TIP3    H222328   4.172   3.993   3.716  0.6221 -0.5555  0.5738
 7463TIP3   OH222329   5.134   4.395   0.224 -0.0473 -0.1060 -0.1674
 7463TIP3    H122330   5.113   4.456   0.154 -1.1791 -0.2407  0.0312
 7463TIP3    H222331   5.192   4.444   0.282 -2.5443  1.5831  1.0981
 7464TIP3   OH222332   0.367   5.810   5.381 -0.3106 -0.3324 -0.2875
 7464TIP3    H122333   0.360   5.868   5.304  3.8778 -0.4138 -0.9553
 7464TIP3    H222334   0.391   5.725   5.345 -0.7468 -1.0213  1.0000
 7465TIP3   OH222335   8.135   0.830   4.700  0.4400 -0.6145  0.2364
 7465TIP3    H122336   8.137   0.895   4.770 -0.0933 -1.5810  1.1868
 7465TIP3    H222337   8.051   0.844   4.656  0.3422 -0.6307  0.4161
 7466TIP3   OH222338   5.249   6.441   1.888 -0.3120  0.4105  0.5695
 7466TIP3    H122339   5.337   6.436   1.852 -0.6129 -0.8411 -0.0569
 7466TIP3    H222340   5.239   6.360   1.939 -1.4531  0.0222 -0.2270
 7467TIP3   OH222341   6.876   6.324   0.255 -0.1969 -0.3427 -0.0311
 7467TIP3    H122342   6.959   6.354   0.220  0.9211 -1.5478  1.4306
 7467TIP3    H222343   6.826   6.404   0.272  1.5686  0.5644  1.1787
 7468TIP3   OH222344   4.893   6.973   0.559 -0.2297  0.2345  0.0009
 7468TIP3    H122345   4.802   6.974   0.530 -0.2115  0.6886 -0.0473
 7468TIP3    H222346   4.888   6.961   0.654 -0.3871  1.3330  0.1493
 7469TIP3   OH222347   8.272   7.417   3.272  0.5499 -0.6692  0.3894
 7469TIP3    H122348   8.211   7.355   3.233 -0.8587  0.4428  0.7305
 7469TIP3    H222349   8.228   7.449   3.350  0.5670  1.7794 -0.5011
 7470TIP3   OH222350   6.537   5.861   6.373 -0.0142 -0.2526  0.5054
 7470TIP3    H122351   6.473   5.886   6.440 -0.6562 -1.2802  0.2997
 7470TIP3    H222352   6.487   5.859   6.292  0.8730  1.5084 -0.1311
 7471TIP3   OH222353   6.887   3.680   1.715 -0.1884  0.0861  0.1198
 7471TIP3    H122354   6.816   3.682   1.651 -1.4335 -0.1941  1.4383
 7471TIP3    H222355   6.896   3.770   1.744 -1.6175 -0.2029  1.6050
 7472TIP3   OH222356   7.261   1.862   4.503 -0.0307 -1.0909 -0.1290
 7472TIP3    H122357   7.209   1.929   4.547  3.0597  1.0348  0.6358
 7472TIP3    H222358   7.280   1.798   4.572  0.4983 -0.4844  0.3027
 7473TIP3   OH222359   6.277   1.434   6.281  0.3577 -0.2258 -0.5398
 7473TIP3    H122360   6.359   1.411   6.325  0.9366 -0.0896 -1.5008
 7473TIP3    H222361   6.250   1.353   6.237 -1.0973 -0.8320  1.3445
 7474TIP3   OH222362   6.503   6.864   1.641  0.2373  0.5492  0.2393
 7474TIP3    H122363   6.560   6.829   1.572 -1.2103  1.0705 -1.2819
 7474TIP3    H222364   6.554   6.935   1.681  1.5637 -0.5348  0.5590
 7475TIP3   OH222365   1.458   5.403   6.545  0.1500  0.0522  0.1902
 7475TIP3    H122366   1.528   5.348   6.581  2.1788  2.0550 -0.4395
 7475TIP3    H222367   1.430   5.357   6.465 -1.4509 -2.2810  1.9598
 7476TIP3   OH222368   8.200   7.614   1.667  0.3498 -0.4179 -0.3782
 7476TIP3    H122369   8.250   7.551   1.719 -0.8875 -1.6848 -0.6696
 7476TIP3    H222370   8.161   7.562   1.597 -2.5822  0.2064  0.6421
 7477TIP3   OH222371   3.202   4.906   2.966 -0.1442 -0.3019  0.0981
 7477TIP3    H122372   3.235   4.860   2.889  0.3809  0.4278 -0.1285
 7477TIP3    H222373   3.150   4.841   3.013 -0.9500 -0.6076 -1.1648
 7478TIP3   OH222374   1.057   6.940   0.928  0.3414  0.2094 -0.0936
 7478TIP3    H122375   1.142   6.928   0.969  1.0517 -0.0043 -1.5762
 7478TIP3    H222376   0.996   6.949   1.001  1.7239  1.0695  1.0017
 7479TIP3   OH222377   3.206   6.579   5.434 -0.1849  0.0311 -0.2951
 7479TIP3    H122378   3.235   6.561   5.345  1.3530 -0.1132  0.2035
 7479TIP3    H222379   3.173   6.495   5.466 -1.1150  0.1770 -0.8482
 7480TIP3   OH222380   5.954   5.402   1.355 -0.4395 -0.2814  0.1443
 7480TIP3    H122381   6.041   5.434   1.333  0.1828 -2.1561 -0.3432
 7480TIP3    H222382   5.896   5.443   1.291 -0.3167  2.6484  1.7523
 7481TIP3   OH222383   7.144   1.643   1.445 -0.2856 -0.0515 -0.1041
 7481TIP3    H122384   7.102   1.662   1.528 -2.7546  1.2270 -1.5187
 7481TIP3    H222385   7.100   1.564   1.413 -0.0634  0.0208 -0.6045
 7482TIP3   OH222386   0.594   7.622   4.762  0.0572  0.1474  0.0439
 7482TIP3    H122387   0.563   7.613   4.852  1.6059 -0.0928  0.6005
 7482TIP3    H222388   0.630   7.536   4.740 -1.2568 -0.1228 -1.2221
 7483TIP3   OH222389   1.226   6.504   2.855  0.0947 -0.5975 -0.1372
 7483TIP3    H122390   1.211   6.415   2.824 -0.9394 -0.4065 -0.2464
 7483TIP3    H222391   1.138   6.543   2.858  0.3453 -0.0805  1.4267
 7484TIP3   OH222392   7.531   2.430   4.635  0.2028 -0.0449  0.0032
 7484TIP3    H122393   7.531   2.396   4.725  0.4200  0.0781  0.0500
 7484TIP3    H222394   7.459   2.492   4.633 -1.6355 -2.0731 -0.6859
 7485TIP3   OH222395   2.189   2.644   1.116 -0.0563 -0.6610  0.1549
 7485TIP3    H122396   2.258   2.591   1.077  2.3936  0.2106  2.9866
 7485TIP3    H222397   2.164   2.598   1.196 -3.0298 -1.0419 -0.8407
 7486TIP3   OH222398   4.415   5.541   2.148  0.0645 -0.8542  0.5397
 7486TIP3    H122399   4.482   5.477   2.171  0.8886  0.2035  1.1360
 7486TIP3    H222400   4.455   5.626   2.165 -0.4787 -0.1027 -1.6409
 7487TIP3   OH222401   7.153   4.591   2.387  0.3704 -0.2159  0.2500
 7487TIP3    H122402   7.247   4.602   2.373  0.2502  2.0209  0.7708
 7487TIP3    H222403   7.132   4.655   2.455 -1.2538 -1.8636  1.3880
 7488TIP3   OH222404   5.297   2.993   1.422  0.0073  0.2887 -0.0981
 7488TIP3    H122405   5.337   2.906   1.422 -0.7599 -0.0739 -0.4753
 7488TIP3    H222406   5.306   3.024   1.332 -0.0743  0.4255 -0.0601
 7489TIP3   OH222407   7.937   1.872   1.966  0.6326 -0.1867 -0.1390
 7489TIP3    H122408   7.849   1.856   2.000  0.2936  1.2528 -0.2654
 7489TIP3    H222409   7.927   1.867   1.871  1.2066 -2.3996 -0.1245
 7490TIP3   OH222410   8.283   3.352   2.642 -0.3559  0.2819  0.1527
 7490TIP3    H122411   8.195   3.350   2.679 -0.1123  0.6063  0.7459
 7490TIP3    H222412   8.273   3.399   2.559 -1.0886 -1.3051 -0.7075
 7491TIP3   OH222413   6.708   0.905   0.964  0.3671 -0.0846  0.0937
 7491TIP3    H122414   6.689   0.932   1.054  0.4330  1.6638 -0.3812
 7491TIP3    H222415   6.661   0.968   0.910 -0.3982 -1.6244 -1.1318
 7492TIP3   OH222416   7.164   4.807   4.621 -0.1711  0.1356 -0.0193
 7492TIP3    H122417   7.167   4.897   4.653 -2.2316  0.3770 -0.3949
 7492TIP3    H222418   7.071   4.785   4.619  0.2084 -1.5708 -1.1330
 7493TIP3   OH222419   4.942   1.317   2.789 -0.4555  0.0858 -0.2472
 7493TIP3    H122420   4.892   1.259   2.846  0.9821  0.7286  1.7931
 7493TIP3    H222421   4.997   1.259   2.738 -0.3174 -0.4495  0.4930
 7494TIP3   OH222422   1.841   2.657   4.879  0.6397 -0.1425 -0.4857
 7494TIP3    H122423   1.783   2.613   4.817  1.0444 -0.5303 -0.5934
 7494TIP3    H222424   1.850   2.746   4.843  0.4017 -0.1880 -0.6639
 7495TIP3   OH222425   0.408   1.570   4.110 -0.3827 -0.4405 -0.2024
 7495TIP3    H122426   0.376   1.485   4.079 -0.5750 -0.7183  0.7166
 7495TIP3    H222427   0.371   1.579   4.198  0.4205  0.1544  0.0924
 7496TIP3   OH222428   5.640   0.327   1.236 -0.3832  0.1455 -0.0895
 7496TIP3    H122429   5.636   0.241   1.279 -1.7182  1.0612  1.7756
 7496TIP3    H222430   5.732   0.340   1.216  0.0857 -0.9951  1.1941
 7497TIP3   OH222431   1.557   2.337   4.574  0.2504 -0.5917  0.1289
 7497TIP3    H122432   1.594   2.312   4.489  1.1281 -2.1787  0.9400
 7497TIP3    H222433   1.536   2.254   4.617 -0.0648  0.1728  1.5251
 7498TIP3   OH222434   2.890   6.203   0.203 -0.2776  0.0776 -0.0791
 7498TIP3    H122435   2.814   6.262   0.208 -0.0543  0.3194  0.4937
 7498TIP3    H222436   2.909   6.197   0.109 -1.5145 -0.6443 -0.3181
 7499TIP3   OH222437   3.699   1.595   1.279  0.1545 -0.2342  0.0420
 7499TIP3    H122438   3.676   1.637   1.196 -3.0662 -2.6656 -0.4541
 7499TIP3    H222439   3.619   1.599   1.332  1.6267 -0.2483  2.4437
 7500TIP3   OH222440   4.370   5.732   0.522  0.3104  0.4196 -0.3875
 7500TIP3    H122441   4.464   5.727   0.507  0.1724 -2.9239 -0.8998
 7500TIP3    H222442   4.331   5.701   0.440 -1.3474  2.7622 -0.5971
 7501TIP3   OH222443   2.171   2.950   5.846  0.1644  0.3678  0.0306
 7501TIP3    H122444   2.149   3.041   5.866  0.2949  0.2121  0.9388
 7501TIP3    H222445   2.184   2.949   5.751 -0.0011  1.2586 -0.0136
 7502TIP3   OH222446   8.111   2.006   4.677  0.4489  0.5904  0.7060
 7502TIP3    H122447   8.073   1.942   4.738  0.4064 -0.3650 -0.2879
 7502TIP3    H222448   8.041   2.069   4.661  0.2042  0.4080  1.0328
 7503TIP3   OH222449   7.727   5.121   4.748  0.3008  0.0098  0.2768
 7503TIP3    H122450   7.792   5.192   4.743  1.4648 -1.0838 -1.3814
 7503TIP3    H222451   7.729   5.093   4.839  0.9998  1.0540  0.6020
 7504TIP3   OH222452   1.846   5.748   6.319 -0.5597  0.4919 -0.1840
 7504TIP3    H122453   1.900   5.815   6.361  0.4818 -0.0072 -0.6725
 7504TIP3    H222454   1.759   5.788   6.313 -0.0138  1.7381 -0.2935
 7505TIP3   OH222455   5.547   5.645   1.361 -1.0028 -0.0867 -0.2199
 7505TIP3    H122456   5.561   5.574   1.424 -0.9505 -0.6527 -0.8503
 7505TIP3    H222457   5.601   5.717   1.394 -1.2745 -0.2351  0.5832
 7506TIP3   OH222458   5.871   2.031   0.949  0.1415  0.3114 -0.2097
 7506TIP3    H122459   5.910   1.972   0.885  1.0569  0.2906  0.3541
 7506TIP3    H222460   5.843   2.107   0.898 -0.0888 -0.1502 -0.7802
 7507TIP3   OH222461   3.833   4.126   4.578 -0.1111 -0.2366 -0.0922
 7507TIP3    H122462   3.903   4.060   4.578  0.0410 -0.1299  1.4826
 7507TIP3    H222463   3.833   4.162   4.490 -0.2539 -2.3855 -1.0337
 7508TIP3   OH222464   6.089   4.708   5.155 -0.2978 -0.0938  0.6026
 7508TIP3    H122465   6.163   4.768   5.168  0.4948 -0.5905 -1.2684
 7508TIP3    H222466   6.092   4.650   5.231  1.6654 -0.5052  0.2622
 7509TIP3   OH222467   7.739   6.260   3.275 -0.2160  0.6966 -0.6947
 7509TIP3    H122468   7.688   6.211   3.340  1.1079 -0.2438 -0.3324
 7509TIP3    H222469   7.828   6.228   3.285  1.0657  4.2054  0.5590
 7510TIP3   OH222470   8.149   4.919   5.696  0.1031 -0.3138  0.2126
 7510TIP3    H122471   8.233   4.965   5.695  0.3502 -0.6453 -2.4370
 7510TIP3    H222472   8.157   4.857   5.768  2.1558 -0.3332  0.0418
 7511TIP3   OH222473   0.124   5.493   4.843 -0.1211  0.3281  0.8585
 7511TIP3    H122474   0.054   5.434   4.872  0.3841  0.1273  1.7047
 7511TIP3    H222475   0.140   5.550   4.919  0.2367  0.7514  0.4720
 7512TIP3   OH222476   2.478   5.070   5.956  0.1511 -0.1641  0.1776
 7512TIP3    H122477   2.470   5.023   5.874  2.1733 -1.4057  0.6147
 7512TIP3    H222478   2.390   5.102   5.975 -1.0110 -2.5646 -0.8757
 7513TIP3   OH222479   1.994   3.002   6.784 -0.1801  0.4776 -0.3817
 7513TIP3    H122480   2.076   2.957   6.764  0.1459  0.7790  0.2642
 7513TIP3    H222481   2.016   3.062   6.856 -0.9408  0.6357 -0.2742
 7514TIP3   OH222482   3.071   1.350   6.370  0.0695 -0.1283  0.3008
 7514TIP3    H122483   3.072   1.320   6.461  0.5286 -2.1794 -0.3169
 7514TIP3    H222484   3.160   1.332   6.338  0.6157  2.6748  0.0399
 7515TIP3   OH222485   2.081   5.114   4.178 -0.6542 -0.0837 -0.3681
 7515TIP3    H122486   2.045   5.025   4.182  0.5483 -0.6922 -1.9121
 7515TIP3    H222487   2.164   5.108   4.224 -1.5641  0.8334  1.4785
 7516TIP3   OH222488   0.273   2.287   4.688  0.1644  0.1984  0.2449
 7516TIP3    H122489   0.333   2.220   4.720 -0.1806 -1.3578 -2.1049
 7516TIP3    H222490   0.187   2.257   4.717  0.1851  0.6085  0.7342
 7517TIP3   OH222491   7.356   3.440   5.410  0.4804 -0.0019  0.4440
 7517TIP3    H122492   7.411   3.434   5.332  0.5002 -0.6150  0.4975
 7517TIP3    H222493   7.376   3.526   5.447  0.5181  0.2700 -0.1887
 7518TIP3   OH222494   3.337   4.665   0.640 -0.4353 -0.1074  0.1671
 7518TIP3    H122495   3.266   4.688   0.700  0.0720  0.0811  0.7085
 7518TIP3    H222496   3.304   4.688   0.553 -0.4647  1.3799  0.5515
 7519TIP3   OH222497   7.732   3.851   2.827  0.1367 -0.1529  0.5126
 7519TIP3    H122498   7.647   3.865   2.868 -0.2796  0.1600 -0.4356
 7519TIP3    H222499   7.795   3.894   2.885 -0.7512  3.0122 -0.6882
 7520TIP3   OH222500   8.306   3.409   4.931 -0.4580  0.8033 -0.7638
 7520TIP3    H122501   8.366   3.452   4.992 -0.6100  0.1324 -0.1365
 7520TIP3    H222502   8.234   3.471   4.922  0.1824  1.5017 -1.3218
 7521TIP3   OH222503   4.249   6.800   3.362  0.3276  0.7195 -0.1908
 7521TIP3    H122504   4.168   6.838   3.395  0.6308  0.9526  0.2930
 7521TIP3    H222505   4.223   6.714   3.328  0.0038  0.4608  0.6811
 7522TIP3   OH222506   0.272   0.599   5.783  0.6574  0.0535 -0.3055
 7522TIP3    H122507   0.177   0.602   5.777  0.4645 -2.9334 -0.4221
 7522TIP3    H222508   0.303   0.621   5.695  0.1948  2.2793  0.0443
 7523TIP3   OH222509   1.066   6.731   4.407 -0.3973 -0.3094  0.2575
 7523TIP3    H122510   1.140   6.696   4.358 -0.0341 -0.6786  1.0449
 7523TIP3    H222511   1.106   6.774   4.483 -1.0453 -2.1072  1.6945
 7524TIP3   OH222512   1.900   0.564   0.452  0.3284 -0.0363 -0.1021
 7524TIP3    H122513   1.970   0.502   0.430  0.1673 -0.6803  1.1343
 7524TIP3    H222514   1.820   0.511   0.450  0.2365 -0.0017  1.3867
 7525TIP3   OH222515   5.699   3.325   3.516 -0.1797  0.1707  0.2732
 7525TIP3    H122516   5.691   3.341   3.422 -0.4949 -0.9870  0.0868
 7525TIP3    H222517   5.619   3.360   3.554 -0.4112 -0.0661  0.0034
 7526TIP3   OH222518   3.781   2.994   4.897 -0.2248 -0.0648  0.7102
 7526TIP3    H122519   3.859   3.047   4.882 -0.3316 -0.0607  0.1401
 7526TIP3    H222520   3.812   2.903   4.892 -0.2132 -0.0606  0.7046
 7527TIP3   OH222521   6.473   5.612   4.379  0.1496  0.6080  0.4808
 7527TIP3    H122522   6.412   5.539   4.389  0.0808  0.6003  0.0581
 7527TIP3    H222523   6.551   5.586   4.428  0.3304  0.0122 -0.1078
 7528TIP3   OH222524   1.029   0.956   1.955  0.0721 -0.3217  0.1330
 7528TIP3    H122525   1.064   1.015   2.021 -2.1188  0.8690  0.3348
 7528TIP3    H222526   1.003   1.013   1.883 -1.0819 -1.1502 -0.1442
 7529TIP3   OH222527   0.732   4.019   6.688 -0.2001  0.0785  0.2030
 7529TIP3    H122528   0.808   4.076   6.676  1.7006 -2.0205  1.5248
 7529TIP3    H222529   0.765   3.931   6.672 -2.5663 -0.8832  0.1179
 7530TIP3   OH222530   8.098   5.401   3.084  0.0742  0.5031 -0.4303
 7530TIP3    H122531   8.110   5.452   3.164 -2.8656  0.6597  0.0223
 7530TIP3    H222532   8.058   5.319   3.113 -0.4971  0.3180 -1.6631
 7531TIP3   OH222533   1.364   1.585   3.812  0.2085 -0.3141 -0.5613
 7531TIP3    H122534   1.367   1.585   3.716  0.4474 -0.7253 -0.5580
 7531TIP3    H222535   1.283   1.538   3.833  1.2135 -2.1735 -0.5623
 7532TIP3   OH222536   6.238   4.342   3.823  0.1444  0.0144  0.0615
 7532TIP3    H122537   6.257   4.407   3.755 -1.8865  0.2186 -0.3805
 7532TIP3    H222538   6.243   4.391   3.905  1.4161  0.0449 -0.0167
 7533TIP3   OH222539   5.768   5.658   6.757  0.2370  0.2676 -0.1299
 7533TIP3    H122540   5.685   5.624   6.790  1.0633 -0.8471  0.8539
 7533TIP3    H222541   5.783   5.609   6.676  1.1844 -1.4840  1.0348
 7534TIP3   OH222542   7.548   1.129   6.238 -0.3938 -0.3126 -0.5393
 7534TIP3    H122543   7.590   1.090   6.315 -0.4145 -0.2891 -0.5156
 7534TIP3    H222544   7.579   1.077   6.164 -0.4727 -0.4157 -0.5011
 7535TIP3   OH222545   1.963   5.408   4.360 -0.1224  0.2728 -0.8346
 7535TIP3    H122546   2.046   5.360   4.365  0.4796  0.7352 -4.0760
 7535TIP3    H222547   1.987   5.498   4.383 -0.3156 -0.0229  0.6770
 7536TIP3   OH222548   4.187   7.892   4.343  0.3863  0.1768 -0.6219
 7536TIP3    H122549   4.278   7.865   4.348  0.0839 -0.7882 -0.1053
 7536TIP3    H222550   4.159   7.869   4.254  0.5049  0.0229 -0.6184
 7537TIP3   OH222551   6.214   2.775   3.623  0.3209  0.4562 -0.0970
 7537TIP3    H122552   6.201   2.867   3.600 -2.9945  0.1380 -0.0984
 7537TIP3    H222553   6.262   2.737   3.549 -1.8862  1.3975 -2.1410
 7538TIP3   OH222554   1.331   5.833   0.475  0.2075  0.3368 -0.2955
 7538TIP3    H122555   1.315   5.744   0.506  0.5329  0.8172  1.3980
 7538TIP3    H222556   1.294   5.889   0.544  1.8202  1.4936 -0.3064
 7539TIP3   OH222557   8.343   1.924   3.214 -0.1345 -0.2125  0.0536
 7539TIP3    H122558   8.417   1.931   3.274  0.5201 -0.9729 -0.6373
 7539TIP3    H222559   8.377   1.953   3.129 -0.2009 -1.8466 -0.5801
 7540TIP3   OH222560   5.224   3.807   2.873 -0.2404  0.1448  0.2159
 7540TIP3    H122561   5.250   3.726   2.916  0.2329  0.3074  0.2403
 7540TIP3    H222562   5.130   3.815   2.892 -0.1961 -0.1713  0.5826
 7541TIP3   OH222563   2.531   1.973   1.825  0.1996  0.0154  0.0964
 7541TIP3    H122564   2.617   1.935   1.805 -0.5738 -1.6323 -0.2046
 7541TIP3    H222565   2.487   1.979   1.740  0.4253  1.9983  0.0714
 7542TIP3   OH222566   4.903   6.882   3.763 -0.3744  0.0842 -0.0792
 7542TIP3    H122567   4.868   6.964   3.726 -0.1582 -0.6714 -2.0784
 7542TIP3    H222568   4.988   6.907   3.799  0.7726  0.4020 -2.7454
 7543TIP3   OH222569   1.578   1.015   3.081  0.2182 -0.2391 -0.6268
 7543TIP3    H122570   1.581   1.111   3.080 -0.2665 -0.2034  0.5958
 7543TIP3    H222571   1.669   0.989   3.099  0.3715 -0.0221 -1.0608
 7544TIP3   OH222572   2.211   5.757   4.103  0.3971  0.3766  0.2616
 7544TIP3    H122573   2.150   5.701   4.055 -0.6858  1.9371 -0.2633
 7544TIP3    H222574   2.155   5.809   4.161  1.4887  0.0425  1.6810
 7545TIP3   OH222575   8.212   7.451   6.876  0.1368  0.3417 -0.6889
 7545TIP3    H122576   8.227   7.357   6.871 -1.4161 -0.3242  3.3400
 7545TIP3    H222577   8.155   7.470   6.802  1.6169 -1.5052 -2.4294
 7546TIP3   OH222578   4.528   6.964   0.952  0.8350  0.0208 -0.3863
 7546TIP3    H122579   4.529   6.878   0.994  0.0716 -0.1861 -0.7759
 7546TIP3    H222580   4.565   7.023   1.018  0.5104 -0.4551  0.2368
 7547TIP3   OH222581   5.187   4.729   2.410  0.0853 -0.3131 -0.2698
 7547TIP3    H122582   5.143   4.796   2.357  1.0792  1.7120  1.3517
 7547TIP3    H222583   5.154   4.742   2.499  1.5019 -0.9232  0.3797
 7548TIP3   OH222584   7.711   4.205   5.373  0.0491  0.0018 -0.0918
 7548TIP3    H122585   7.758   4.130   5.336 -0.7307  0.3187 -1.7829
 7548TIP3    H222586   7.621   4.175   5.382  0.0850  0.1574  1.0054
 7549TIP3   OH222587   2.230   1.506   4.830  0.3540  0.2728 -0.2408
 7549TIP3    H122588   2.203   1.491   4.739 -0.1915  2.0626 -0.4310
 7549TIP3    H222589   2.151   1.487   4.881 -0.1775  1.8087 -0.4317
 7550TIP3   OH222590   4.826   1.593   4.626  0.0880  0.3782 -0.5847
 7550TIP3    H122591   4.805   1.584   4.533 -3.5031  0.1290  0.1318
 7550TIP3    H222592   4.850   1.504   4.653  0.2733  0.2774 -1.0562
 7551TIP3   OH222593   1.278   0.182   6.480  0.5043 -0.1548  0.0510
 7551TIP3    H122594   1.261   0.275   6.494  2.0867  0.4891 -1.7806
 7551TIP3    H222595   1.244   0.139   6.558  0.2684  2.0236  1.2231
 7552TIP3   OH222596   3.253   6.271   3.911 -0.4567 -0.1323  0.1030
 7552TIP3    H122597   3.188   6.244   3.847  1.4232 -5.0402 -0.1294
 7552TIP3    H222598   3.245   6.207   3.982  1.2095  1.8206  2.1976
 7553TIP3   OH222599   2.746   4.125   3.041 -0.0245  0.9859  0.2951
 7553TIP3    H122600   2.753   4.219   3.029 -1.7667  0.9846 -1.1592
 7553TIP3    H222601   2.655   4.105   3.019  0.3823 -1.0740  0.2897
 7554TIP3   OH222602   0.941   2.245   1.734 -0.1931 -0.1639  0.0943
 7554TIP3    H122603   0.854   2.211   1.753  0.2298 -0.9616  0.6937
 7554TIP3    H222604   0.978   2.266   1.820  0.8522 -1.5261  0.0281
 7555TIP3   OH222605   0.626   2.854   0.811  0.4945  0.0379 -0.7272
 7555TIP3    H122606   0.570   2.869   0.735  0.6740 -0.0975 -0.8882
 7555TIP3    H222607   0.711   2.831   0.774  0.2104 -1.4731 -0.4987
 7556TIP3   OH222608   6.459   0.116   0.537  0.6385  0.3833  0.3811
 7556TIP3    H122609   6.364   0.114   0.543  0.3800  1.7298 -2.1266
 7556TIP3    H222610   6.482   0.034   0.494  0.5037  0.5480 -0.0070
 7557TIP3   OH222611   6.244   3.662   6.563  0.0254 -0.1296 -0.2036
 7557TIP3    H122612   6.161   3.619   6.583 -0.0230  0.5668  1.2315
 7557TIP3    H222613   6.221   3.731   6.501 -1.1499  2.2693  2.6764
 7558TIP3   OH222614   2.098   4.147   5.786  0.3262  0.3419 -0.0450
 7558TIP3    H122615   2.017   4.103   5.810 -0.2741  1.8562  0.8231
 7558TIP3    H222616   2.160   4.125   5.856  0.5980 -0.5609 -0.5497
 7559TIP3   OH222617   2.805   5.116   0.496  0.1083 -0.2462  0.0879
 7559TIP3    H122618   2.837   5.205   0.478 -0.4873 -0.4423 -2.2507
 7559TIP3    H222619   2.713   5.128   0.518  0.3214 -0.2106  1.0235
 7560TIP3   OH222620   1.254   6.105   4.751 -0.1845 -0.0131 -0.5551
 7560TIP3    H122621   1.228   6.088   4.661 -0.8810  1.6534 -0.7159
 7560TIP3    H222622   1.349   6.115   4.748 -0.2033 -0.0024 -1.1106
 7561TIP3   OH222623   3.808   3.195   5.335  0.5226 -0.7547 -0.2329
 7561TIP3    H122624   3.736   3.163   5.280 -1.2613  1.9386  0.3368
 7561TIP3    H222625   3.849   3.263   5.282 -0.4308  1.0116  1.1832
 7562TIP3   OH222626   3.290   7.526   6.367 -0.4147 -0.7151  0.4513
 7562TIP3    H122627   3.328   7.564   6.288 -0.1655 -0.1219  0.8510
 7562TIP3    H222628   3.227   7.461   6.334  0.1182 -0.9028 -0.2247
 7563TIP3   OH222629   2.925   1.917   0.553 -0.0072  0.2186  0.0980
 7563TIP3    H122630   2.961   1.958   0.631  1.0257 -0.7228  0.1499
 7563TIP3    H222631   2.975   1.836   0.544 -1.0382 -0.3450 -0.7732
 7564TIP3   OH222632   4.116   4.282   1.282 -0.4039  0.1676  0.1030
 7564TIP3    H122633   4.187   4.346   1.286 -0.4136  0.1897 -0.0510
 7564TIP3    H222634   4.047   4.326   1.233 -0.4017  0.0328 -0.0256
 7565TIP3   OH222635   1.219   5.503   2.870 -0.2135 -0.0503  0.3670
 7565TIP3    H122636   1.310   5.517   2.844 -0.3849 -0.8072 -0.6835
 7565TIP3    H222637   1.180   5.591   2.869  0.4397  0.2462  0.5874
 7566TIP3   OH222638   1.559  -0.016   4.210  0.5585  0.0728  0.5129
 7566TIP3    H122639   1.601   0.070   4.207  2.3103 -0.7168  0.5376
 7566TIP3    H222640   1.473  -0.000   4.247  0.7001  1.8633  0.1584
 7567TIP3   OH222641   7.694   4.756   1.857  0.1686  0.0602  0.3285
 7567TIP3    H122642   7.680   4.664   1.881  0.1027  0.1426  0.6117
 7567TIP3    H222643   7.735   4.752   1.770  0.7154 -0.2575  0.5922
 7568TIP3   OH222644   2.271   1.985   5.308 -0.3731  0.1107 -0.1070
 7568TIP3    H122645   2.338   1.916   5.306  2.1892  2.3039  1.9146
 7568TIP3    H222646   2.190   1.940   5.328  1.3164 -2.3006  1.9236
 7569TIP3   OH222647   3.925   5.937   3.822  0.6146 -0.1024  0.0250
 7569TIP3    H122648   3.882   6.015   3.858  0.8113 -0.5431  1.2456
 7569TIP3    H222649   3.916   5.871   3.890  0.3909 -1.1854 -1.0287
 7570TIP3   OH222650   3.941   6.627   0.502  0.4794  0.5903 -0.2077
 7570TIP3    H122651   3.968   6.535   0.510  1.4882  0.7856 -1.1819
 7570TIP3    H222652   3.899   6.646   0.586  1.8326 -0.2551  0.7117
 7571TIP3   OH222653   4.252   4.876   4.997  0.4278 -0.2656  0.3020
 7571TIP3    H122654   4.160   4.854   5.011 -0.0358  1.2733 -0.1303
 7571TIP3    H222655   4.285   4.809   4.938 -0.3877 -0.8943  0.5479
 7572TIP3   OH222656   8.003   0.987   5.851 -0.4035  0.0686  0.0272
 7572TIP3    H122657   7.913   0.961   5.867 -0.3686 -0.9140 -1.2615
 7572TIP3    H222658   8.024   1.046   5.923 -2.0318  0.2297  0.3939
 7573TIP3   OH222659   0.794   2.266   5.784  0.3235  0.4509  0.2708
 7573TIP3    H122660   0.788   2.171   5.791  0.6082  0.3246 -0.9805
 7573TIP3    H222661   0.846   2.292   5.860 -0.5613 -0.2795  1.1556
 7574TIP3   OH222662   8.189   5.769   0.641  0.1236  0.3151 -0.6478
 7574TIP3    H122663   8.270   5.788   0.689 -0.6429  1.2280  0.3392
 7574TIP3    H222664   8.120   5.776   0.708 -0.8239  0.0706 -1.5788
 7575TIP3   OH222665   6.181   5.151   4.819 -0.4287 -0.3127  0.3176
 7575TIP3    H122666   6.138   5.077   4.861 -1.5087 -0.2423 -0.6247
 7575TIP3    H222667   6.110   5.204   4.783  0.3365  1.0182  0.6819
 7576TIP3   OH222668   2.148   7.091   6.093  0.5479  0.3536 -0.4680
 7576TIP3    H122669   2.221   7.039   6.125  0.3497 -0.3306 -1.1112
 7576TIP3    H222670   2.074   7.066   6.149  0.6348  0.5243 -0.2754
 7577TIP3   OH222671   4.777   7.507   0.123 -0.1103  0.5133 -0.2371
 7577TIP3    H122672   4.708   7.459   0.169  0.6771 -0.0429  0.4013
 7577TIP3    H222673   4.735   7.540   0.044 -0.8071 -0.8204 -0.4501
 7578TIP3   OH222674   3.072   2.648   2.336 -0.1288  0.5758  0.0435
 7578TIP3    H122675   3.053   2.576   2.396 -1.2857  1.3288  0.6145
 7578TIP3    H222676   3.127   2.707   2.388  0.2100  0.4629 -0.1826
 7579TIP3   OH222677   7.070   1.436   4.956 -0.3358  0.3376  0.1169
 7579TIP3    H122678   7.024   1.458   4.876  1.2892 -0.0005 -0.9695
 7579TIP3    H222679   7.151   1.488   4.953  0.0488 -0.1489  1.2160
 7580TIP3   OH222680   0.547   3.279   6.604  0.2021 -0.2024  0.2821
 7580TIP3    H122681   0.521   3.229   6.681 -1.4691  0.7269  0.3746
 7580TIP3    H222682   0.567   3.367   6.638 -2.5311  0.8202 -0.4870
 7581TIP3   OH222683   6.701   7.131   2.221  0.2214  0.4830 -0.4735
 7581TIP3    H122684   6.612   7.110   2.194  0.2618  1.2697 -1.2483
 7581TIP3    H222685   6.757   7.102   2.149  0.4943  0.8936 -0.4361
 7582TIP3   OH222686   7.131   2.534   6.797 -0.0579 -0.2253  0.1025
 7582TIP3    H122687   7.084   2.602   6.748 -1.6492 -1.1678  0.2304
 7582TIP3    H222688   7.213   2.522   6.750 -1.1191 -0.4279 -1.8116
 7583TIP3   OH222689   5.496   1.937   0.879 -0.5329 -0.5254  0.5445
 7583TIP3    H122690   5.567   1.966   0.821 -2.1354 -0.9039 -1.7436
 7583TIP3    H222691   5.525   1.853   0.913 -0.1599 -1.0378 -0.9650
 7584TIP3   OH222692   1.287   3.758   1.034 -0.1511  0.0468  0.4964
 7584TIP3    H122693   1.341   3.764   1.114  1.9532 -1.3825 -0.7165
 7584TIP3    H222694   1.313   3.834   0.982 -1.4715  0.9377  1.0857
 7585TIP3   OH222695   8.121   4.952   1.743 -0.5072  0.4089  0.7306
 7585TIP3    H122696   8.124   5.041   1.708  0.1825  0.4243  0.8073
 7585TIP3    H222697   8.152   4.897   1.670  0.1949  0.3604  1.0593
 7586TIP3   OH222698   3.018   2.128   5.836 -0.4132 -0.1511 -0.0047
 7586TIP3    H122699   3.017   2.116   5.931  2.7986 -0.8685  0.0518
 7586TIP3    H222700   3.060   2.213   5.823 -1.4505  0.2629 -0.8142
 7587TIP3   OH222701   6.086   5.307   6.768  0.2530 -0.0601  0.3074
 7587TIP3    H122702   6.098   5.212   6.763  2.0294 -0.0227  2.3074
 7587TIP3    H222703   6.005   5.318   6.818 -1.6078 -0.4201 -2.4250
 7588TIP3   OH222704   0.663   1.488   6.290  0.5875 -0.4228  0.1335
 7588TIP3    H122705   0.645   1.395   6.280  0.5010 -0.2432 -1.7431
 7588TIP3    H222706   0.640   1.526   6.205  1.6670  1.1392  0.5004
 7589TIP3   OH222707   7.696   7.895   0.598 -0.5690 -0.0495 -0.1247
 7589TIP3    H122708   7.666   7.956   0.531  1.7920  1.1024 -0.2201
 7589TIP3    H222709   7.615   7.863   0.640 -1.9968  0.6922 -2.1703
 7590TIP3   OH222710   7.193   3.279   5.568 -0.2344  0.3285  0.0877
 7590TIP3    H122711   7.244   3.207   5.605 -0.1174 -0.8200 -2.1670
 7590TIP3    H222712   7.258   3.336   5.527 -0.5288  0.4413 -0.2239
 7591TIP3   OH222713   5.330   5.774   2.433 -0.4921  0.1897 -0.0745
 7591TIP3    H122714   5.267   5.814   2.374 -0.0921  0.9980  0.0294
 7591TIP3    H222715   5.378   5.711   2.379 -0.8835  0.1100 -0.3314
 7592TIP3   OH222716   2.400   6.344   2.131  0.3683 -0.3052 -0.1634
 7592TIP3    H122717   2.382   6.431   2.166  1.3286 -0.0678 -0.2360
 7592TIP3    H222718   2.314   6.310   2.105 -0.2674 -0.1304  1.5785
 7593TIP3   OH222719   7.973   7.605   0.194 -0.0416 -0.0136  0.1668
 7593TIP3    H122720   7.959   7.536   0.259  0.8500 -0.7424 -0.3914
 7593TIP3    H222721   8.009   7.560   0.118  1.9620  1.2215  0.2869
 7594TIP3   OH222722   2.213   1.497   4.523 -0.6954  0.4473  0.1810
 7594TIP3    H122723   2.264   1.454   4.453 -1.4756 -0.0125 -0.1153
 7594TIP3    H222724   2.248   1.586   4.526  0.8040 -0.1278  0.6538
 7595TIP3   OH222725   6.388   4.218   4.786 -0.3611 -0.5680 -0.5976
 7595TIP3    H122726   6.307   4.262   4.760  0.7931  2.2099  0.1401
 7595TIP3    H222727   6.423   4.184   4.704 -1.3343 -0.1125 -1.2255
 7596TIP3   OH222728   3.367   0.931   3.344 -0.1498  0.0231 -0.2584
 7596TIP3    H122729   3.439   0.984   3.380 -0.5569  0.8405 -0.6229
 7596TIP3    H222730   3.409   0.880   3.275 -0.3113  2.2911 -2.1749
 7597TIP3   OH222731   5.314   5.572   0.909 -0.4708 -0.6158  0.1430
 7597TIP3    H122732   5.350   5.588   0.822 -0.1573 -0.6630  0.2631
 7597TIP3    H222733   5.267   5.653   0.931 -1.8766 -1.1686 -0.7092
 7598TIP3   OH222734   5.991   2.812   5.619  0.4878  0.7053 -0.3853
 7598TIP3    H122735   6.032   2.790   5.702  0.9090 -0.8486 -0.9658
 7598TIP3    H222736   5.911   2.860   5.643  1.7185  2.2715  0.8125
 7599TIP3   OH222737   4.241   2.123   5.248  0.3561 -0.2721  0.4848
 7599TIP3    H122738   4.155   2.162   5.265  0.8381 -0.0324  2.5201
 7599TIP3    H222739   4.274   2.097   5.334  1.7754 -1.5647 -0.3977
 7600TIP3   OH222740   1.846   6.365   5.216 -0.3150 -0.2844  0.0189
 7600TIP3    H122741   1.931   6.407   5.219 -0.4443 -0.0753  2.1274
 7600TIP3    H222742   1.787   6.431   5.179 -0.0060  0.4276  0.7830
 7601TIP3   OH222743   4.217   4.362   6.528  0.0666 -0.0869  0.1922
 7601TIP3    H122744   4.248   4.278   6.495  0.0917 -0.2880  0.7158
 7601TIP3    H222745   4.121   4.353   6.530  0.0306  0.1199 -0.3252
 7602TIP3   OH222746   6.940   6.899   4.268 -0.2003  0.0231 -0.2712
 7602TIP3    H122747   6.994   6.936   4.338 -0.7344  0.5581 -0.1359
 7602TIP3    H222748   6.998   6.899   4.191  0.3100 -0.3433  0.1029
 7603TIP3   OH222749   3.359   4.105   6.742  0.5885 -0.5391 -0.1327
 7603TIP3    H122750   3.291   4.039   6.755 -1.1790  1.2209 -0.0386
 7603TIP3    H222751   3.441   4.059   6.762 -0.5586 -2.6611 -0.0217
 7604TIP3   OH222752   7.598   0.547   6.128 -0.3909 -0.0031 -0.0136
 7604TIP3    H122753   7.533   0.477   6.125  0.3466 -0.7776  1.1885
 7604TIP3    H222754   7.561   0.611   6.189 -0.7332  0.3347 -0.5606
 7605TIP3   OH222755   4.486   4.319   3.197 -0.6533  0.3447  0.2777
 7605TIP3    H122756   4.474   4.365   3.114 -0.9087 -0.3353 -0.0749
 7605TIP3    H222757   4.522   4.385   3.256  0.3838  0.6227 -0.6202
 7606TIP3   OH222758   3.180   6.813   4.009 -0.0435  0.0020  0.4394
 7606TIP3    H122759   3.112   6.802   4.076 -1.7310  2.9135 -0.6423
 7606TIP3    H222760   3.256   6.767   4.045 -2.0252 -1.9662  2.4679
 7607TIP3   OH222761   7.673   2.250   6.727  0.5727 -0.4520 -0.3623
 7607TIP3    H122762   7.613   2.229   6.655 -1.4570 -0.6448  1.2830
 7607TIP3    H222763   7.758   2.216   6.699 -0.5001 -1.9310 -2.0039
 7608TIP3   OH222764   5.837   4.146   2.213  0.0915 -0.1752 -0.3277
 7608TIP3    H122765   5.851   4.109   2.299  1.3987  0.0306 -0.4309
 7608TIP3    H222766   5.858   4.076   2.152 -1.6552 -0.5952 -0.5078
 7609TIP3   OH222767   6.750   6.840   0.220  0.5926  0.0211 -0.1907
 7609TIP3    H122768   6.706   6.903   0.163  0.2687 -1.4749 -1.7015
 7609TIP3    H222769   6.761   6.885   0.303 -0.0061  1.8894 -1.0824
 7610TIP3   OH222770   4.776   7.616   1.277 -0.4988 -0.6165 -0.4841
 7610TIP3    H122771   4.859   7.662   1.269 -2.1311  2.7837  0.2467
 7610TIP3    H222772   4.743   7.609   1.188  0.2853 -1.5369 -0.7222
 7611TIP3   OH222773   0.973   5.356   4.992  0.0164  0.3531 -0.1069
 7611TIP3    H122774   1.011   5.441   4.973 -0.4607  0.5919 -0.0043
 7611TIP3    H222775   1.046   5.304   5.025  0.7319  0.1386 -1.8839
 7612TIP3   OH222776   6.573   2.133   3.052 -0.3987  0.1652 -0.2476
 7612TIP3    H122777   6.538   2.221   3.069  1.1326  1.2130 -2.0089
 7612TIP3    H222778   6.668   2.145   3.052 -0.1662 -1.4260 -0.8741
 7613TIP3   OH222779   5.072   3.761   4.016  0.2433 -0.3258 -0.4489
 7613TIP3    H122780   5.117   3.716   4.088 -1.1032 -0.7107  0.1848
 7613TIP3    H222781   5.064   3.694   3.948 -2.4804 -1.4239  0.7967
 7614TIP3   OH222782   4.449   1.635   0.421  0.2348 -0.0511 -0.5191
 7614TIP3    H122783   4.387   1.641   0.494  2.2490 -3.1037  1.7044
 7614TIP3    H222784   4.426   1.553   0.377  0.8859  0.2749 -1.5085
 7615TIP3   OH222785   5.669   0.876   2.718 -0.0953 -0.0899  0.2317
 7615TIP3    H122786   5.653   0.926   2.799 -2.8009  2.5068 -1.7000
 7615TIP3    H222787   5.585   0.839   2.695  0.8234 -1.5040 -1.0323
 7616TIP3   OH222788   2.877   1.400   2.120 -0.2735 -0.1439 -0.0625
 7616TIP3    H122789   2.850   1.371   2.207 -0.6656 -1.2021 -0.5238
 7616TIP3    H222790   2.803   1.453   2.088  0.2167  0.9516  0.5618
 7617TIP3   OH222791   4.208   5.880   1.183 -0.1722 -0.2065 -0.1149
 7617TIP3    H122792   4.142   5.835   1.235 -0.7539 -0.0212 -0.6711
 7617TIP3    H222793   4.165   5.961   1.154  0.4735  0.1678 -0.0580
 7618TIP3   OH222794   4.596   7.200   1.097  0.0690 -0.3715 -0.4124
 7618TIP3    H122795   4.530   7.258   1.135 -0.0768 -0.0117 -1.1897
 7618TIP3    H222796   4.662   7.190   1.165  0.0122  0.5820 -0.2097
 7619TIP3   OH222797   1.043   0.818   1.292  0.1793  0.1829  0.3691
 7619TIP3    H122798   0.974   0.755   1.313 -0.2883  0.2088 -0.9667
 7619TIP3    H222799   1.123   0.780   1.329 -0.3446 -0.4662  0.8444
 7620TIP3   OH222800   8.329   2.356   6.186 -0.6249  0.1961  0.7892
 7620TIP3    H122801   8.297   2.301   6.114  0.2545  0.2541  0.3382
 7620TIP3    H222802   8.329   2.445   6.151 -2.7770  0.6388  1.7699
 7621TIP3   OH222803   2.139   1.144   0.447  0.1206 -0.2131 -0.1876
 7621TIP3    H122804   2.068   1.178   0.502  1.6913  0.0168  1.7893
 7621TIP3    H222805   2.132   1.194   0.366 -1.0141  0.8988  0.5608
 7622TIP3   OH222806   2.119   7.436   6.353  0.4570  0.4234  0.0295
 7622TIP3    H122807   2.130   7.374   6.425 -0.4347 -0.2328 -0.3748
 7622TIP3    H222808   2.082   7.514   6.393 -0.1518  0.0178  0.2645
 7623TIP3   OH222809   1.685   4.058   5.325  0.0108 -0.2080 -0.0722
 7623TIP3    H122810   1.654   4.006   5.251 -0.0431 -0.8093  0.3688
 7623TIP3    H222811   1.772   4.087   5.299  0.2177 -0.8785 -0.1546
 7624TIP3   OH222812   0.143   0.384   2.298  0.7919  0.3900 -0.8036
 7624TIP3    H122813   0.238   0.369   2.299  0.9827  0.5029  3.8076
 7624TIP3    H222814   0.105   0.297   2.284  1.6698 -0.2121  0.3677
 7625TIP3   OH222815   6.567   2.862   4.429 -0.2058  0.2694  0.6284
 7625TIP3    H122816   6.628   2.909   4.372  1.2875 -1.7829  0.4557
 7625TIP3    H222817   6.490   2.919   4.433  0.7408  1.7843 -1.1430
 7626TIP3   OH222818   3.148   7.695   4.988  0.4347  0.0199 -0.3288
 7626TIP3    H122819   3.101   7.772   4.955  0.2053 -0.3852 -0.9683
 7626TIP3    H222820   3.240   7.716   4.973  0.4481  0.6297  0.5189
 7627TIP3   OH222821   5.851   0.772   0.825  0.0864 -0.3248  0.4640
 7627TIP3    H122822   5.940   0.781   0.792  0.2977  0.2686  1.1633
 7627TIP3    H222823   5.797   0.824   0.766  0.5037  0.9967  1.2124
 7628TIP3   OH222824   4.972   2.352   0.121  0.0867  0.1138 -0.2833
 7628TIP3    H122825   5.058   2.333   0.082  0.8512 -0.4885  1.5702
 7628TIP3    H222826   4.922   2.272   0.108  0.3404 -0.0878 -0.0381
 7629TIP3   OH222827   7.878   7.889   5.732 -0.0717  0.6686  0.0381
 7629TIP3    H122828   7.875   7.832   5.809  0.4410 -0.9522 -1.0910
 7629TIP3    H222829   7.850   7.975   5.765  1.0547  0.2702  2.2210
 7630TIP3   OH222830   5.459   0.171   4.775  0.0471  0.4091  0.0637
 7630TIP3    H122831   5.449   0.227   4.698 -2.3970 -0.7705 -0.5544
 7630TIP3    H222832   5.466   0.083   4.739  0.7350 -0.0022  1.1586
 7631TIP3   OH222833   7.619   7.021   4.334 -0.3756 -0.0737  0.2625
 7631TIP3    H122834   7.678   6.966   4.384  0.0696 -0.0620 -0.2460
 7631TIP3    H222835   7.676   7.080   4.284 -0.7935 -0.2938 -0.4996
 7632TIP3   OH222836   8.000   4.049   6.297 -0.0342 -0.0046  0.2379
 7632TIP3    H122837   8.048   4.110   6.241  1.1963  0.5805  1.8489
 7632TIP3    H222838   8.046   3.966   6.287 -0.9293 -0.3951 -0.9612
 7633TIP3   OH222839   5.593   2.544   0.712  0.6046  0.7718 -0.1617
 7633TIP3    H122840   5.687   2.558   0.703  0.5132  1.4612 -0.1334
 7633TIP3    H222841   5.570   2.591   0.792  0.0645  1.5167 -0.7419
 7634TIP3   OH222842   6.905   1.460   1.670  0.0667 -0.0289  0.4573
 7634TIP3    H122843   6.815   1.490   1.676  0.2834  0.7711 -0.0767
 7634TIP3    H222844   6.957   1.540   1.678  0.7939 -0.6032  2.1356
 7635TIP3   OH222845   1.417   0.760   1.968 -0.3559 -0.5914  0.6124
 7635TIP3    H122846   1.483   0.695   1.943  0.4135 -0.0385  1.1411
 7635TIP3    H222847   1.425   0.829   1.902 -0.2880 -0.4451  0.7728
 7636TIP3   OH222848   2.949   7.686   1.657 -0.1174  0.2054 -0.0359
 7636TIP3    H122849   2.872   7.640   1.624 -0.1266  1.0256 -1.1924
 7636TIP3    H222850   3.021   7.651   1.605  0.1142  0.3242  0.2049
 7637TIP3   OH222851   5.344   2.467   5.564  0.0134  0.0813  0.0937
 7637TIP3    H122852   5.295   2.399   5.609  0.8722  0.2686  1.3627
 7637TIP3    H222853   5.435   2.455   5.592  0.5766  0.2872 -1.5074
 7638TIP3   OH222854   5.399   0.908   6.765 -0.1100  0.4761  0.2656
 7638TIP3    H122855   5.482   0.951   6.786  1.3998 -1.5221 -1.1689
 7638TIP3    H222856   5.402   0.895   6.670 -2.8173  1.6871 -0.1018
 7639TIP3   OH222857   4.987   5.679   0.036  0.4269 -0.4037  0.1679
 7639TIP3    H122858   4.926   5.731   0.088  2.6365  0.0972  2.4455
 7639TIP3    H222859   4.972   5.708  -0.054 -1.7727  0.5861  0.7670
 7640TIP3   OH222860   5.622   7.871   3.542  0.4633 -0.0473  0.0229
 7640TIP3    H122861   5.696   7.915   3.502  0.8992 -0.5504  0.2614
 7640TIP3    H222862   5.634   7.778   3.521 -0.2941 -0.0943 -0.2433
 7641TIP3   OH222863   2.262   3.398   0.296  0.1261 -0.2072 -0.3137
 7641TIP3    H122864   2.196   3.428   0.233  0.5988  0.6284 -0.4294
 7641TIP3    H222865   2.239   3.444   0.377 -0.1185 -0.8144 -0.0335
 7642TIP3   OH222866   4.672   3.655   3.626  0.2661 -0.6023 -0.5129
 7642TIP3    H122867   4.722   3.694   3.555  0.2630  0.2358 -0.0673
 7642TIP3    H222868   4.661   3.726   3.690 -0.3621 -1.1323 -0.0142
 7643TIP3   OH222869   2.915   7.780   1.021  0.1017  0.2997 -0.4337
 7643TIP3    H122870   2.858   7.837   0.969 -0.1250  1.7491  1.3128
 7643TIP3    H222871   2.894   7.691   0.990 -3.0525  0.7554  0.0484
 7644TIP3   OH222872   5.263   6.687   0.387  0.0690  0.5560 -0.3022
 7644TIP3    H122873   5.260   6.598   0.352 -0.1194  1.1232 -1.8003
 7644TIP3    H222874   5.202   6.686   0.460  0.7013 -0.7528  0.2597
 7645TIP3   OH222875   1.071   4.287   1.502  0.0024 -0.1555 -0.1613
 7645TIP3    H122876   1.102   4.199   1.523 -0.3226 -0.0620  0.7501
 7645TIP3    H222877   1.073   4.291   1.406 -0.7816 -1.4434 -0.2442
 7646TIP3   OH222878   7.319   1.718   6.628 -0.1902  0.2820  0.0747
 7646TIP3    H122879   7.299   1.728   6.721  2.1845  0.3764  0.6242
 7646TIP3    H222880   7.319   1.624   6.613  1.7770  0.1359  0.7784
 7647TIP3   OH222881   7.350   1.928   4.224  0.1230 -0.0411 -0.1878
 7647TIP3    H122882   7.285   1.886   4.168 -0.1435 -0.4096  0.3915
 7647TIP3    H222883   7.320   1.910   4.314  1.5482 -1.0914  0.1211
 7648TIP3   OH222884   0.046   0.263   1.279  0.1229 -0.3714 -0.1129
 7648TIP3    H122885   0.117   0.223   1.329  1.1621  1.3308 -0.1579
 7648TIP3    H222886   0.026   0.344   1.326 -0.2371  0.2909 -1.3621
 7649TIP3   OH222887   4.311   5.209   6.123 -0.0638  0.1127 -0.2672
 7649TIP3    H122888   4.332   5.129   6.172  1.3731  1.1349  0.8487
 7649TIP3    H222889   4.343   5.280   6.178  1.0233  1.3583 -2.4053
 7650TIP3   OH222890   4.808   1.444   5.673 -0.1107 -0.0533 -0.0931
 7650TIP3    H122891   4.733   1.470   5.726 -0.8828 -2.4387  0.0964
 7650TIP3    H222892   4.794   1.351   5.656  2.3641 -0.3619 -0.7890
 7651TIP3   OH222893   0.693   3.544   1.977 -0.5061 -0.0219 -0.2447
 7651TIP3    H122894   0.664   3.536   2.068  0.2830 -0.2196 -0.0006
 7651TIP3    H222895   0.649   3.623   1.945 -0.9529 -0.0672  0.2434
 7652TIP3   OH222896   5.113   6.701   5.428  0.3810 -0.2758  0.2677
 7652TIP3    H122897   5.126   6.613   5.464  0.1047 -0.2641  0.4048
 7652TIP3    H222898   5.193   6.748   5.449 -0.2473  0.1017  1.9878
 7653TIP3   OH222899   2.762   5.589   5.110 -0.4032 -0.1926  0.3331
 7653TIP3    H122900   2.850   5.626   5.121  0.3288 -2.1055  1.4685
 7653TIP3    H222901   2.753   5.574   5.016  0.4160  0.1785  0.1898
 7654TIP3   OH222902   0.062   7.150   3.876 -0.2065  0.1330 -0.3192
 7654TIP3    H122903   0.129   7.088   3.904 -2.6544 -2.0676  1.0775
 7654TIP3    H222904   0.055   7.212   3.948 -1.0727 -0.9133  0.5446
 7655TIP3   OH222905   0.525   5.038   3.087  0.8258  0.1794  0.1368
 7655TIP3    H122906   0.480   5.008   3.008 -0.7591 -1.4299  1.5525
 7655TIP3    H222907   0.456   5.042   3.154  2.3435  0.0898  1.7878
 7656TIP3   OH222908   5.775   0.927   0.608 -0.2676 -0.3191 -0.5071
 7656TIP3    H122909   5.810   1.006   0.649  2.4492 -0.7735 -1.7761
 7656TIP3    H222910   5.684   0.950   0.588  0.0830  2.0477  0.2313
 7657TIP3   OH222911   4.659   6.250   4.718 -0.0284  0.1043  0.1178
 7657TIP3    H122912   4.608   6.306   4.776 -0.8373 -0.4696 -0.0304
 7657TIP3    H222913   4.643   6.285   4.630 -1.4321 -1.0189 -0.0974
 7658TIP3   OH222914   7.678   7.288   3.382 -0.7302  0.0950 -0.4301
 7658TIP3    H122915   7.604   7.298   3.323 -0.2640  2.0715 -0.7347
 7658TIP3    H222916   7.728   7.215   3.346 -2.2953 -1.0302 -0.4275
 7659TIP3   OH222917   2.456   4.267   2.886  0.5620 -0.2452  0.0825
 7659TIP3    H122918   2.459   4.210   2.809 -0.4853  1.3061 -1.1621
 7659TIP3    H222919   2.368   4.303   2.886  0.9987  0.8994  1.1881
 7660TIP3   OH222920   2.896   7.477   0.185  0.1643 -0.0210  0.1705
 7660TIP3    H122921   2.810   7.518   0.198 -0.1402 -1.3096  2.9455
 7660TIP3    H222922   2.959   7.546   0.206 -0.0669  1.0855 -2.3643
 7661TIP3   OH222923   0.991   5.414   2.747  0.2322  0.3690  0.2364
 7661TIP3    H122924   0.989   5.509   2.731  0.4439  0.2747 -0.3770
 7661TIP3    H222925   1.070   5.401   2.799  2.1395  0.1455 -2.5080
 7662TIP3   OH222926   3.264   2.215   2.173  0.0881 -0.2367  0.1669
 7662TIP3    H122927   3.260   2.248   2.263 -1.1721 -0.1010  0.0885
 7662TIP3    H222928   3.338   2.154   2.173  1.8680  1.7883  0.5707
 7663TIP3   OH222929   1.291   3.828   3.455  0.2240 -1.2074 -0.2949
 7663TIP3    H122930   1.312   3.870   3.372  1.3222 -2.8009 -0.8759
 7663TIP3    H222931   1.253   3.743   3.430  1.6190 -2.1990  0.7757
 7664TIP3   OH222932   7.507   2.946   3.028 -0.3275 -0.1798  0.2793
 7664TIP3    H122933   7.544   2.916   3.110 -0.0462 -0.2171  0.1388
 7664TIP3    H222934   7.580   2.946   2.967 -0.4871  0.0711  0.0879
 7665TIP3   OH222935   6.004   3.964   0.514  0.2013  0.1284 -0.1018
 7665TIP3    H122936   5.928   4.006   0.552 -0.2298 -0.6890 -0.0290
 7665TIP3    H222937   6.027   4.018   0.439  0.6529  1.3780  0.9045
 7666TIP3   OH222938   2.111   0.349   5.134  0.1118 -0.0599  0.0237
 7666TIP3    H122939   2.022   0.342   5.169  0.1998 -0.2414  0.2097
 7666TIP3    H222940   2.130   0.443   5.136 -0.5477  0.1290 -1.1856
 7667TIP3   OH222941   5.132   3.759   6.485 -0.1055  0.4501 -0.5841
 7667TIP3    H122942   5.042   3.769   6.514 -0.6896 -2.2884 -1.1605
 7667TIP3    H222943   5.184   3.771   6.564 -1.1490 -0.1542  0.2225
 7668TIP3   OH222944   3.158   1.545   4.004 -0.4055 -0.2795 -0.1347
 7668TIP3    H122945   3.205   1.533   3.921 -0.6478 -2.0593 -0.0603
 7668TIP3    H222946   3.227   1.560   4.068 -0.0349 -1.0785 -0.3242
 7669TIP3   OH222947   2.978   2.255   1.686 -0.6051 -0.0502  0.4970
 7669TIP3    H122948   3.038   2.317   1.728 -2.1422 -0.1667  3.0775
 7669TIP3    H222949   2.906   2.309   1.654  0.4382  0.0069 -1.9858
 7670TIP3   OH222950   5.788   2.346   0.056  0.2275 -0.2392  0.0300
 7670TIP3    H122951   5.708   2.334   0.004 -0.9707  1.6651  1.2716
 7670TIP3    H222952   5.775   2.291   0.133 -0.6566  1.2090  0.9631
 7671TIP3   OH222953   3.849   1.515   2.830  0.1807  0.1389 -0.1736
 7671TIP3    H122954   3.858   1.568   2.910 -1.2466 -1.9534  1.5020
 7671TIP3    H222955   3.824   1.428   2.862  1.9415 -1.4848 -2.8029
 7672TIP3   OH222956   4.314   4.785   5.832  0.2492 -0.4098 -0.3508
 7672TIP3    H122957   4.328   4.727   5.907 -1.1377  0.6692  0.8026
 7672TIP3    H222958   4.389   4.845   5.834  0.3063 -0.4879  0.0816
 7673TIP3   OH222959   4.778   5.697   2.912 -0.1963  0.1390 -0.3235
 7673TIP3    H122960   4.686   5.699   2.885 -0.1780 -0.0950 -0.3993
 7673TIP3    H222961   4.821   5.763   2.856 -0.1905 -0.2253 -0.7505
 7674TIP3   OH222962   0.222   7.810   3.703  0.2680 -0.1360  0.1982
 7674TIP3    H122963   0.200   7.882   3.644 -0.8616 -0.1371  0.5861
 7674TIP3    H222964   0.155   7.814   3.771 -1.0938 -2.7530 -0.8377
 7675TIP3   OH222965   3.283   4.652   6.681  0.0149  0.3151  0.3161
 7675TIP3    H122966   3.302   4.634   6.774  0.4477 -0.9983 -0.0053
 7675TIP3    H222967   3.189   4.669   6.679 -0.2746 -1.0301  0.8353
 7676TIP3   OH222968   0.169   3.072   6.087 -0.3586  0.0563 -0.0555
 7676TIP3    H122969   0.151   3.060   6.180  2.7657  2.3161  0.9969
 7676TIP3    H222970   0.228   3.000   6.064  0.3564  0.5489  0.2235
 7677TIP3   OH222971   5.161   2.254   0.685  0.0750 -0.1084  0.0342
 7677TIP3    H122972   5.201   2.205   0.614  0.8264  1.1161 -0.4223
 7677TIP3    H222973   5.085   2.202   0.711  1.4668 -2.0835  0.3686
 7678TIP3   OH222974   5.596   1.157   0.002  0.3134  0.2301 -0.3302
 7678TIP3    H122975   5.654   1.172  -0.073 -0.6765 -0.5762 -1.2811
 7678TIP3    H222976   5.655   1.134   0.073  1.1733 -0.7947 -1.3247
 7679TIP3   OH222977   7.964   5.694   0.431 -0.5450  0.4555  0.2180
 7679TIP3    H122978   7.984   5.766   0.492  1.0461 -0.2622  0.5804
 7679TIP3    H222979   8.003   5.722   0.348 -0.2682  0.1815  0.2568
 7680TIP3   OH222980   7.988   3.041   4.464 -0.1314  0.1604 -0.5427
 7680TIP3    H122981   8.071   3.036   4.416  1.5815 -4.5061  2.1541
 7680TIP3    H222982   8.012   3.077   4.549 -0.9803 -0.6195  0.0401
 7681TIP3   OH222983   3.592   3.648   5.919 -0.1138  0.0090  0.5352
 7681TIP3    H122984   3.615   3.605   6.002 -1.1573 -0.4108  0.6243
 7681TIP3    H222985   3.642   3.601   5.853 -2.1750 -2.3145  0.4523
 7682TIP3   OH222986   1.700   4.643   2.449 -0.4222 -0.5491 -0.4582
 7682TIP3    H122987   1.711   4.632   2.543  1.0345 -1.0272 -0.6661
 7682TIP3    H222988   1.618   4.693   2.440 -0.1969  0.1497  1.0777
 7683TIP3   OH222989   8.177   4.457   0.377  0.9362  0.8810 -0.5008
 7683TIP3    H122990   8.255   4.512   0.386  1.0313  0.6320  0.2682
 7683TIP3    H222991   8.137   4.459   0.464  0.8524 -0.1339 -0.5112
 7684TIP3   OH222992   5.662   2.440   0.362  0.0252  0.3881 -0.1709
 7684TIP3    H122993   5.592   2.502   0.382  0.2277  0.1721  1.3555
 7684TIP3    H222994   5.658   2.375   0.433  1.8467  0.4537  0.0568
 7685TIP3   OH222995   8.074   3.403   1.872  0.1641 -0.3244  0.3243
 7685TIP3    H122996   8.087   3.496   1.890 -0.1639 -0.5614  1.9564
 7685TIP3    H222997   8.008   3.401   1.802 -0.8805  0.6753  1.2316
 7686TIP3   OH222998   6.364   7.798   5.331 -0.4586  0.2335  0.0516
 7686TIP3    H122999   6.351   7.768   5.421 -1.7290 -0.7149 -0.4137
 7686TIP3    H223000   6.312   7.737   5.278  0.1362  0.8741 -1.3089
 7687TIP3   OH223001   3.928   1.528   3.381  0.0945  0.1512 -0.2915
 7687TIP3    H123002   3.971   1.443   3.371 -1.2236 -0.6923  0.8573
 7687TIP3    H223003   3.835   1.509   3.373 -0.2250  1.4727  0.1072
 7688TIP3   OH223004   7.240   2.864   4.056 -0.6045 -0.0683  0.0897
 7688TIP3    H123005   7.171   2.911   4.009 -0.2454  1.0992  0.6805
 7688TIP3    H223006   7.295   2.827   3.988 -1.4527 -0.4721 -0.3871
 7689TIP3   OH223007   0.231   1.529   3.422 -0.3125  0.8201  0.1532
 7689TIP3    H123008   0.266   1.446   3.454  0.1759  1.4440  1.2785
 7689TIP3    H223009   0.227   1.518   3.326 -0.0961 -0.4187  0.2692
 7690TIP3   OH223010   8.070   5.361   2.396  0.5826  0.3626  0.2672
 7690TIP3    H123011   8.098   5.430   2.455  2.2349  0.1382 -0.2052
 7690TIP3    H223012   8.034   5.408   2.320  1.4751  0.7307  0.0519
 7691TIP3   OH223013   1.686   0.568   2.242  0.4743  0.0797  0.3559
 7691TIP3    H123014   1.638   0.576   2.159 -0.4112  0.5914  0.9045
 7691TIP3    H223015   1.676   0.476   2.266 -0.0064  0.1177  0.3221
 7692TIP3   OH223016   4.045   6.995   6.756 -0.0404 -0.0898  0.4103
 7692TIP3    H123017   3.973   6.937   6.735 -0.1104 -0.6013  1.9199
 7692TIP3    H223018   4.121   6.938   6.763  0.1133  0.1507  0.7822
 7693TIP3   OH223019   7.580   5.034   2.448 -0.0972  0.1697  0.3115
 7693TIP3    H123020   7.521   5.109   2.456  1.7199  1.7619 -0.4812
 7693TIP3    H223021   7.665   5.072   2.425  0.6264 -2.2266 -1.3921
 7694TIP3   OH223022   8.115   4.645   3.125 -0.8648 -0.2222  0.1391
 7694TIP3    H123023   8.167   4.653   3.045  1.2320 -1.3909  1.2889
 7694TIP3    H223024   8.081   4.734   3.140  0.8247  0.6170 -0.6776
 7695TIP3   OH223025   0.440   5.873   6.730  0.0328  0.2260  0.4132
 7695TIP3    H123026   0.458   5.956   6.774  1.6070  0.4443 -0.5678
 7695TIP3    H223027   0.435   5.896   6.637  0.8241 -0.7949  0.0949
 7696TIP3   OH223028   4.961   3.734   4.328  0.5976 -0.0869  0.5541
 7696TIP3    H123029   4.931   3.663   4.384  2.4882  0.3254  2.1948
 7696TIP3    H223030   4.886   3.793   4.322  0.1337 -0.4611  2.1535
 7697TIP3   OH223031   3.194   3.239   0.850 -0.3355  0.7731  0.3556
 7697TIP3    H123032   3.211   3.252   0.757  0.3091 -0.2575  0.3087
 7697TIP3    H223033   3.255   3.299   0.894 -1.2613  1.9208  0.1343
 7698TIP3   OH223034   7.127   5.858   5.968  0.7277  0.2664 -0.0429
 7698TIP3    H123035   7.135   5.891   6.058 -0.0427 -1.8950  0.8793
 7698TIP3    H223036   7.205   5.803   5.956  0.5768  0.1550 -0.5392
 7699TIP3   OH223037   4.303   2.393   5.452 -0.7838 -0.7333 -0.0274
 7699TIP3    H123038   4.243   2.425   5.385 -0.9091 -1.0063 -0.0499
 7699TIP3    H223039   4.386   2.382   5.407 -0.9150 -1.0969 -0.1897
 7700TIP3   OH223040   7.538   3.004   3.286  0.1251 -0.4806 -0.0556
 7700TIP3    H123041   7.541   3.050   3.370 -0.3933  0.3391 -0.4748
 7700TIP3    H223042   7.491   3.063   3.228 -0.4607 -1.5072 -0.6489
 7701TIP3   OH223043   5.041   5.085   5.948 -0.9101 -0.1548  0.2335
 7701TIP3    H123044   5.049   4.992   5.926 -0.0262 -0.1815  0.6168
 7701TIP3    H223045   5.125   5.123   5.924 -1.5730  0.7443 -0.7672
 7702TIP3   OH223046   3.488   4.831   3.144  0.0236 -0.1834  0.5585
 7702TIP3    H123047   3.554   4.765   3.164  0.0485 -0.5830 -0.7330
 7702TIP3    H223048   3.491   4.840   3.049 -1.4108  0.1776  0.5228
 7703TIP3   OH223049   6.517   2.556   2.800 -0.1153 -0.2359 -0.7669
 7703TIP3    H123050   6.562   2.472   2.807 -0.4637 -0.3235  1.1036
 7703TIP3    H223051   6.575   2.617   2.846 -1.5750 -0.2575  1.2452
 7704TIP3   OH223052   2.808   4.541   5.880  0.1939 -0.3477 -0.0331
 7704TIP3    H123053   2.785   4.630   5.906  0.9867  0.1432 -0.9414
 7704TIP3    H223054   2.750   4.485   5.931  1.2080  0.5808  2.2769
 7705TIP3   OH223055   7.526   5.616   4.284 -0.1399  0.3581  0.8341
 7705TIP3    H123056   7.617   5.637   4.304  0.6906 -0.6474 -1.5266
 7705TIP3    H223057   7.475   5.688   4.322  1.5388  0.5717  2.8267
 7706TIP3   OH223058   5.102   5.466   4.236  0.2614  0.2814 -0.1427
 7706TIP3    H123059   5.184   5.515   4.229  0.3115  0.3462  0.7510
 7706TIP3    H223060   5.128   5.383   4.277 -0.3169  0.9049  1.6051
 7707TIP3   OH223061   4.684   2.862   0.556 -0.7657 -0.6529 -0.2606
 7707TIP3    H123062   4.617   2.797   0.580  0.9292 -2.3767  0.0846
 7707TIP3    H223063   4.737   2.817   0.489  1.3136 -0.2008  1.0110
 7708TIP3   OH223064   6.839   2.187   3.021 -0.1982  0.0179 -0.0636
 7708TIP3    H123065   6.876   2.114   3.070  0.8027  0.1824 -0.5485
 7708TIP3    H223066   6.888   2.187   2.938  0.5011  1.8358  0.3116
 7709TIP3   OH223067   6.988   0.764   4.277  0.2483 -0.4347  0.1199
 7709TIP3    H123068   6.994   0.691   4.215 -1.3482 -0.7033  0.2391
 7709TIP3    H223069   6.974   0.723   4.362 -1.0405  0.0080  0.1345
 7710TIP3   OH223070   6.371   1.723   4.316 -0.0063  0.2329  0.5609
 7710TIP3    H123071   6.363   1.782   4.391  3.1514 -0.3390  1.4943
 7710TIP3    H223072   6.439   1.762   4.262  0.0890 -1.0467 -0.2953
 7711TIP3   OH223073   0.280   4.227   5.365  0.5516  0.2938 -0.3470
 7711TIP3    H123074   0.321   4.181   5.292  0.2780 -0.4757 -0.0353
 7711TIP3    H223075   0.337   4.209   5.440  0.3174  0.2616 -0.1720
 7712TIP3   OH223076   7.589   1.805   6.624 -0.1796  0.3272  0.6094
 7712TIP3    H123077   7.502   1.776   6.652  0.4863  1.0589  3.8058
 7712TIP3    H223078   7.630   1.726   6.589 -1.6279 -0.3402  0.3029
 7713TIP3   OH223079   4.303   6.052   1.981  0.5474 -0.0106 -0.2956
 7713TIP3    H123080   4.236   6.120   1.986 -0.4839 -1.0407  0.4046
 7713TIP3    H223081   4.363   6.072   2.054  1.0244  0.8982 -0.9109
 7714TIP3   OH223082   0.153   1.621   0.346  0.1027 -0.3275 -0.4805
 7714TIP3    H123083   0.211   1.679   0.395 -0.0813 -0.5727  0.0350
 7714TIP3    H223084   0.124   1.673   0.270  1.3854 -0.3743 -1.0158
 7715TIP3   OH223085   3.077   7.400   2.302  0.1989 -0.5731  0.3352
 7715TIP3    H123086   3.048   7.491   2.295 -0.1383 -0.7996 -1.7326
 7715TIP3    H223087   3.053   7.360   2.219 -0.8841 -2.9378  1.6727
 7716TIP3   OH223088   1.788   6.503   1.161  0.4903  0.5462  0.1071
 7716TIP3    H123089   1.721   6.552   1.208 -2.4320 -2.8035 -0.2209
 7716TIP3    H223090   1.825   6.444   1.226 -0.8709 -1.4358 -0.8342
 7717TIP3   OH223091   4.243   4.663   0.604  0.3313 -0.0295  0.5256
 7717TIP3    H123092   4.252   4.703   0.518  0.1566 -0.5034  0.2822
 7717TIP3    H223093   4.166   4.706   0.643  1.5986  1.6386  1.2765
 7718TIP3   OH223094   5.235   3.380   0.876  0.4878 -0.5070  0.0003
 7718TIP3    H123095   5.166   3.329   0.834  0.3539  0.3418 -0.8444
 7718TIP3    H223096   5.310   3.321   0.879  0.1945 -0.9172 -0.5240
 7719TIP3   OH223097   8.380   5.058   5.740  0.3955 -0.3805 -0.4779
 7719TIP3    H123098   8.469   5.091   5.754  0.7557 -2.2406  2.2679
 7719TIP3    H223099   8.323   5.123   5.781  0.7505 -0.8413  0.7585
 7720TIP3   OH223100   0.465   1.700   2.984  0.2213  0.3570  0.6519
 7720TIP3    H123101   0.480   1.776   3.041  2.6508 -0.3196  0.9990
 7720TIP3    H223102   0.382   1.663   3.015 -0.9902  2.7576  0.5291
 7721TIP3   OH223103   5.940   3.434   3.510  0.2791 -0.0195  0.3679
 7721TIP3    H123104   5.978   3.404   3.427  0.4038 -0.4968  0.5945
 7721TIP3    H223105   5.852   3.397   3.511  0.6352 -0.8862  0.9139
 7722TIP3   OH223106   0.519   6.777   4.592  0.4455 -0.6977 -0.1300
 7722TIP3    H123107   0.530   6.828   4.512 -0.3362 -1.2993 -0.6365
 7722TIP3    H223108   0.603   6.733   4.604  0.3207 -1.2216 -1.0715
 7723TIP3   OH223109   4.296   4.833   3.832  0.0087  0.0610 -0.2204
 7723TIP3    H123110   4.266   4.873   3.751  0.2749 -0.1596 -0.4288
 7723TIP3    H223111   4.249   4.749   3.837  2.4753 -1.5515 -1.8933
 7724TIP3   OH223112   5.907   4.359   3.728 -0.4823 -0.3655 -0.0277
 7724TIP3    H123113   5.978   4.352   3.664 -0.0076 -1.2131  0.5739
 7724TIP3    H223114   5.837   4.305   3.692 -0.2633 -0.7368  0.0938
 7725TIP3   OH223115   6.280   3.365   6.703  0.4483 -0.7994  0.0177
 7725TIP3    H123116   6.199   3.410   6.676  0.7720  0.0212  0.3604
 7725TIP3    H223117   6.293   3.394   6.794  1.0042 -1.1067  0.0330
 7726TIP3   OH223118   4.595   1.132   2.747 -0.0232  0.1762  0.1155
 7726TIP3    H123119   4.611   1.090   2.663  0.5428  0.1369  0.2389
 7726TIP3    H223120   4.663   1.199   2.754 -0.7291  0.9175  0.0585
 7727TIP3   OH223121   6.127   2.962   2.269  0.4578 -0.4872 -1.0232
 7727TIP3    H123122   6.135   3.039   2.213  0.2310  0.1842 -0.1528
 7727TIP3    H223123   6.048   2.977   2.321  0.8848 -0.8780 -0.2257
 7728TIP3   OH223124   4.495   3.651   6.646 -0.4266 -0.2940 -0.6596
 7728TIP3    H123125   4.434   3.591   6.689 -1.5117  0.9131 -0.4283
 7728TIP3    H223126   4.480   3.735   6.690  1.7436 -0.0442 -0.3047
 7729TIP3   OH223127   5.228   4.729   1.207 -0.0269  0.2899 -0.6186
 7729TIP3    H123128   5.139   4.706   1.235 -0.7896  1.5708 -1.8773
 7729TIP3    H223129   5.269   4.645   1.185 -0.4438 -0.4479  1.2480
 7730TIP3   OH223130   5.117   2.683   4.817 -0.0829 -0.0502  0.1203
 7730TIP3    H123131   5.041   2.698   4.873 -1.1051 -2.5873 -0.4371
 7730TIP3    H223132   5.193   2.689   4.876 -1.1324 -3.0184  2.0365
 7731TIP3   OH223133   3.753   1.098   1.088 -0.0759  0.0317  0.3565
 7731TIP3    H123134   3.718   1.082   1.001  0.5462  0.9957 -0.0854
 7731TIP3    H223135   3.693   1.162   1.127 -0.4013 -0.4608  0.6765
 7732TIP3   OH223136   2.753   6.684   0.512  0.1262  0.9444 -0.6795
 7732TIP3    H123137   2.679   6.623   0.510  0.2776  0.7550 -0.5918
 7732TIP3    H223138   2.724   6.759   0.461  0.0534  0.6658 -1.0484
 7733TIP3   OH223139   3.247   4.431   2.756 -0.2650 -0.4893  0.3075
 7733TIP3    H123140   3.339   4.428   2.781 -0.7249 -2.6727  2.0747
 7733TIP3    H223141   3.236   4.357   2.696 -0.7850  0.0829 -0.3242
 7734TIP3   OH223142   6.098   3.474   4.218  0.1788  0.3537  0.2112
 7734TIP3    H123143   6.106   3.472   4.314 -1.0409  0.7488  0.3370
 7734TIP3    H223144   6.132   3.560   4.193 -2.0674  1.4140  0.5906
 7735TIP3   OH223145   2.453   5.413   6.620  0.3878  0.1229 -0.1280
 7735TIP3    H123146   2.455   5.318   6.611 -0.0981 -0.0735  1.4750
 7735TIP3    H223147   2.534   5.435   6.666  0.3995  0.4682 -0.3053
 7736TIP3   OH223148   1.639   4.005   1.449  0.9577  0.0619 -0.4390
 7736TIP3    H123149   1.587   4.033   1.373 -1.6835 -0.8601  0.8743
 7736TIP3    H223150   1.709   3.951   1.412 -1.1697 -1.6995 -2.2059
 7737TIP3   OH223151   8.142   1.572   6.732 -0.0912 -0.2708 -0.5461
 7737TIP3    H123152   8.156   1.623   6.653 -0.4117  0.1579 -0.3309
 7737TIP3    H223153   8.087   1.499   6.705  0.2293 -0.4126 -0.8199
 7738TIP3   OH223154   7.479   0.976   0.181 -0.4107  0.6879 -0.0601
 7738TIP3    H123155   7.544   1.030   0.135 -1.9889  1.5127 -1.4366
 7738TIP3    H223156   7.457   1.027   0.259 -0.1716  0.9090 -0.1362
 7739TIP3   OH223157   3.642   4.993   4.288 -0.0143 -0.3822 -0.1132
 7739TIP3    H123158   3.596   5.067   4.249 -0.0032 -0.1831  0.2513
 7739TIP3    H223159   3.620   4.997   4.381  0.1100 -0.7455 -0.0659
 7740TIP3   OH223160   0.622   7.505   6.875  0.0556  0.1150 -0.3624
 7740TIP3    H123161   0.610   7.552   6.793 -0.1598 -0.6599 -0.7879
 7740TIP3    H223162   0.709   7.467   6.869 -0.1834 -0.4201 -0.4853
 7741TIP3   OH223163   5.920   5.558   3.159  0.3969 -0.1027  0.5119
 7741TIP3    H123164   5.844   5.616   3.160  0.3611 -0.0666 -1.1262
 7741TIP3    H223165   5.993   5.615   3.184  0.1852  0.3603  0.0993
 7742TIP3   OH223166   2.464   4.848   0.069 -0.0581  0.3425  0.0229
 7742TIP3    H123167   2.399   4.896   0.017  0.8443  1.6079  0.0127
 7742TIP3    H223168   2.547   4.891   0.049  1.0061 -2.0328 -0.9128
 7743TIP3   OH223169   2.871   4.593   4.168  0.0505 -0.8295  0.3036
 7743TIP3    H123170   2.777   4.589   4.184  0.0610  0.3199  0.7863
 7743TIP3    H223171   2.879   4.610   4.074 -0.1779 -1.8903  0.0755
 7744TIP3   OH223172   3.235   5.517   4.241 -0.2841 -0.4522  0.0043
 7744TIP3    H123173   3.271   5.541   4.155  0.2088 -1.7604 -0.1690
 7744TIP3    H223174   3.198   5.430   4.228 -3.6968  0.8386  0.1370
 7745TIP3   OH223175   1.354   1.044   2.760 -0.2569  0.3520 -0.2969
 7745TIP3    H123176   1.302   0.973   2.798 -0.6929  0.8797  0.1158
 7745TIP3    H223177   1.439   1.004   2.740 -0.8932 -0.5806 -1.2065
 7746TIP3   OH223178   3.399   0.695   5.529  0.2077 -0.2315 -0.0546
 7746TIP3    H123179   3.312   0.733   5.541 -0.9313 -2.3377 -0.9299
 7746TIP3    H223180   3.441   0.752   5.465 -1.9236 -1.0515 -2.3559
 7747TIP3   OH223181   5.271   5.996   3.284 -0.5549 -0.1644  0.2332
 7747TIP3    H123182   5.183   5.982   3.319  0.6725 -1.6393  3.1295
 7747TIP3    H223183   5.284   5.924   3.222 -1.4119  0.1543 -0.3297
 7748TIP3   OH223184   4.933   0.564   6.256 -0.1060 -0.1603  0.1839
 7748TIP3    H123185   4.932   0.563   6.351  0.2821  0.3594  0.1985
 7748TIP3    H223186   5.025   0.556   6.232 -0.1723 -0.0015 -0.1394
 7749TIP3   OH223187   2.343   5.273   4.204  0.5046 -0.0096 -0.1247
 7749TIP3    H123188   2.315   5.324   4.128  1.6096  0.1602 -0.4457
 7749TIP3    H223189   2.405   5.209   4.168 -1.4992 -2.2155  0.1244
 7750TIP3   OH223190   0.678   1.246   2.360 -0.2671  0.4302 -0.4565
 7750TIP3    H123191   0.622   1.313   2.399 -0.0099  1.1161 -1.2302
 7750TIP3    H223192   0.767   1.280   2.369 -0.0456 -0.2301 -0.0573
 7751TIP3   OH223193   5.279   7.300   6.131 -0.2416 -0.2917  0.7051
 7751TIP3    H123194   5.246   7.387   6.155 -2.9442 -1.3142  1.0368
 7751TIP3    H223195   5.345   7.280   6.198  0.7517  1.6472  0.3603
 7752TIP3   OH223196   8.356   5.473   1.979  0.2812 -0.0213  0.2811
 7752TIP3    H123197   8.337   5.549   1.923 -0.7193 -0.8475 -0.5315
 7752TIP3    H223198   8.360   5.399   1.919 -0.6371 -0.8985  1.2741
 7753TIP3   OH223199   1.840   7.030   1.272  0.3898 -0.6151 -0.6211
 7753TIP3    H123200   1.886   6.973   1.211  1.6212 -0.1837 -0.1392
 7753TIP3    H223201   1.906   7.053   1.338  0.1509  1.8390 -1.1205
 7754TIP3   OH223202   0.040   4.938   5.217  0.2371 -0.2364 -0.3753
 7754TIP3    H123203   0.060   4.963   5.308  2.2259  0.7502 -1.0217
 7754TIP3    H223204   0.035   4.843   5.219  1.1756 -0.2817  0.6142
 7755TIP3   OH223205   4.227   0.217   3.394 -0.1268 -0.3262  0.3214
 7755TIP3    H123206   4.322   0.219   3.385 -0.2288 -1.5821 -1.4089
 7755TIP3    H223207   4.212   0.170   3.477  0.7413  0.5807  1.0125
 7756TIP3   OH223208   7.812   4.735   3.036 -0.0355  0.1587  0.4232
 7756TIP3    H123209   7.875   4.768   3.100  1.1017  1.0028 -1.0541
 7756TIP3    H223210   7.849   4.759   2.951 -1.6774 -0.5652 -0.5598
 7757TIP3   OH223211   0.658   7.565   1.371 -0.1008  0.6115  0.0562
 7757TIP3    H123212   0.685   7.582   1.461 -1.0319 -0.7972  0.6201
 7757TIP3    H223213   0.581   7.510   1.378 -1.1965  1.8194 -1.5780
 7758TIP3   OH223214   6.583   6.274   4.465  0.0650  0.5335 -0.1129
 7758TIP3    H123215   6.591   6.187   4.427 -1.5870  0.0146  0.6286
 7758TIP3    H223216   6.663   6.319   4.439  1.4547 -1.5170  0.3262
 7759TIP3   OH223217   5.718   3.777   6.581  0.2643 -0.3162 -0.2727
 7759TIP3    H123218   5.790   3.727   6.543 -0.3012  0.2353 -2.2086
 7759TIP3    H223219   5.639   3.731   6.553 -0.2391  1.2271 -1.5137
 7760TIP3   OH223220   0.192   3.646   5.575  1.0275 -0.0845 -0.1371
 7760TIP3    H123221   0.180   3.700   5.497  0.4726 -0.9682 -0.6832
 7760TIP3    H223222   0.103   3.628   5.606  1.1408 -1.5772 -0.6068
 7761TIP3   OH223223   6.726   2.737   3.787  0.3510  0.0141 -0.2338
 7761TIP3    H123224   6.689   2.669   3.843  1.1189  0.1575  0.4697
 7761TIP3    H223225   6.759   2.803   3.848 -0.3918  1.0401 -0.8978
 7762TIP3   OH223226   6.454   5.424   0.077  0.4059  0.0460  0.5169
 7762TIP3    H123227   6.435   5.350   0.020 -0.8259 -0.9952  2.2050
 7762TIP3    H223228   6.522   5.392   0.137  0.1293  0.3945  1.0271
 7763TIP3   OH223229   7.469   5.939   0.683  0.6226  0.4535  0.1906
 7763TIP3    H123230   7.540   5.970   0.627  0.4239 -0.9733 -0.9070
 7763TIP3    H223231   7.455   5.848   0.657 -0.6516  0.2714  1.3732
 7764TIP3   OH223232   2.809   7.765   3.347 -0.5054 -0.0040 -0.2723
 7764TIP3    H123233   2.835   7.756   3.439 -0.8261  0.2211 -0.1601
 7764TIP3    H223234   2.803   7.676   3.315 -2.2111 -0.1783  0.4303
 7765TIP3   OH223235   3.542   4.864   0.596 -0.1757 -0.4339  0.3337
 7765TIP3    H123236   3.471   4.805   0.621  0.5170 -1.3842  0.1147
 7765TIP3    H223237   3.603   4.861   0.670 -1.3680  2.1410  1.5703
 7766TIP3   OH223238   1.221   5.311   0.617 -0.1345 -0.2107  0.4765
 7766TIP3    H123239   1.307   5.270   0.625 -0.6844 -1.2467  1.4601
 7766TIP3    H223240   1.186   5.310   0.706 -0.4303  1.9155  0.4336
 7767TIP3   OH223241   4.801   1.365   3.522  0.0162 -0.2608 -0.2732
 7767TIP3    H123242   4.811   1.418   3.443  1.4956  0.1630  0.1685
 7767TIP3    H223243   4.799   1.275   3.490 -2.5635  0.0078 -1.0348
 7768TIP3   OH223244   5.555   2.649   1.286 -0.1033 -0.5599  0.1047
 7768TIP3    H123245   5.475   2.679   1.241 -0.5660 -0.8393  0.7202
 7768TIP3    H223246   5.538   2.556   1.304  0.6044 -0.7623 -0.2678
 7769TIP3   OH223247   1.297   4.692   1.334 -0.2247  0.4589  0.1100
 7769TIP3    H123248   1.232   4.745   1.381  0.3607  1.3249 -0.0286
 7769TIP3    H223249   1.330   4.631   1.399 -1.5040 -0.3223  0.0666
 7770TIP3   OH223250   6.636   7.194   1.399  0.8453  0.0836  0.3320
 7770TIP3    H123251   6.572   7.208   1.330  0.0624 -1.0871  0.7876
 7770TIP3    H223252   6.657   7.281   1.432 -0.2467  0.5019 -0.0638
 7771TIP3   OH223253   1.733   3.710   4.239 -0.1062  0.4541 -0.1992
 7771TIP3    H123254   1.671   3.756   4.295  1.1127  1.6814  0.1931
 7771TIP3    H223255   1.704   3.619   4.240 -1.1998  0.7996  0.9049
 7772TIP3   OH223256   1.387   3.492   1.090  0.0915  0.1013  0.2982
 7772TIP3    H123257   1.367   3.509   1.182 -0.7867 -0.2574  0.1888
 7772TIP3    H223258   1.378   3.577   1.047  0.1808  0.2074  0.4864
 7773TIP3   OH223259   3.999   5.250   1.219  0.8116  0.9248 -0.1569
 7773TIP3    H123260   3.929   5.221   1.278  0.6015 -0.4754 -1.0306
 7773TIP3    H223261   4.014   5.342   1.241 -2.9932  2.0659 -1.5081
 7774TIP3   OH223262   3.408   6.597   3.480 -0.6557  0.2597 -0.1785
 7774TIP3    H123263   3.494   6.601   3.522 -0.2776  1.1487 -1.0000
 7774TIP3    H223264   3.368   6.517   3.513  1.2716 -1.2257 -1.3161
 7775TIP3   OH223265   4.192   3.978   1.408  0.1603  0.3006 -0.1163
 7775TIP3    H123266   4.173   4.047   1.344 -0.1695 -0.3296 -0.7019
 7775TIP3    H223267   4.277   3.944   1.382  0.0864  0.1327 -0.1363
 7776TIP3   OH223268   6.952   2.829   3.507 -0.1399  0.2938 -0.3855
 7776TIP3    H123269   7.027   2.808   3.451 -0.3748  2.2140 -1.5039
 7776TIP3    H223270   6.980   2.804   3.595  1.3175 -0.1914 -0.9497
 7777TIP3   OH223271   6.071   6.350   1.531 -0.0298  0.1871 -0.4478
 7777TIP3    H123272   6.138   6.283   1.526  0.7297  0.9292 -0.4723
 7777TIP3    H223273   6.037   6.358   1.442 -1.7147 -1.7167 -0.0320
 7778TIP3   OH223274   3.450   5.107   1.891  0.5307 -0.3883  0.4227
 7778TIP3    H123275   3.417   5.151   1.813  0.0714 -2.5098 -0.6575
 7778TIP3    H223276   3.492   5.028   1.858 -1.3309 -2.3355  2.3783
 7779TIP3   OH223277   1.943   1.694   3.635 -0.3266  0.1639  0.4397
 7779TIP3    H123278   1.996   1.676   3.713 -0.5215  0.2792  0.5986
 7779TIP3    H223279   1.866   1.739   3.668  0.1994  1.3947  0.0464
 7780TIP3   OH223280   5.635   6.150   1.921  0.1239  0.0090 -0.3139
 7780TIP3    H123281   5.694   6.104   1.980  0.8416 -0.2698 -1.2320
 7780TIP3    H223282   5.605   6.226   1.971  0.1966 -0.5759  0.6360
 7781TIP3   OH223283   1.402   1.589   1.336 -0.5113  0.1209  0.0850
 7781TIP3    H123284   1.452   1.550   1.408  0.3460  0.1369 -0.4775
 7781TIP3    H223285   1.391   1.680   1.362  0.1717  0.2322  0.0220
 7782TIP3   OH223286   3.082   5.024   4.842  0.0203 -0.1743 -0.5774
 7782TIP3    H123287   3.034   4.954   4.797 -1.0123  0.6390 -0.8018
 7782TIP3    H223288   3.101   5.087   4.773 -0.9623  0.7609 -0.0258
 7783TIP3   OH223289   8.222   1.723   6.510 -0.0817 -0.3640  0.1427
 7783TIP3    H123290   8.314   1.708   6.533  0.3029 -0.6078 -1.4232
 7783TIP3    H223291   8.223   1.804   6.459 -0.4635 -1.2485 -1.3217
 7784TIP3   OH223292   5.793   0.644   1.165 -0.2449  0.1842 -0.0649
 7784TIP3    H123293   5.803   0.581   1.237 -1.7917  0.2458  0.2399
 7784TIP3    H223294   5.826   0.597   1.088 -1.8514 -1.2537  0.0521
 7785TIP3   OH223295   8.148   3.411   0.410 -0.5828 -0.1197 -0.2437
 7785TIP3    H123296   8.125   3.457   0.491  0.9264  0.9510 -0.3802
 7785TIP3    H223297   8.224   3.458   0.376  0.6232 -2.2886 -0.7689
 7786TIP3   OH223298   3.269   2.505   0.981 -0.2057 -0.2945  0.0861
 7786TIP3    H123299   3.313   2.420   0.989 -0.3464 -0.3507  0.2642
 7786TIP3    H223300   3.176   2.485   0.991 -0.4483 -0.4148 -1.9123
 7787TIP3   OH223301   2.601   4.896   2.424  0.0694 -0.7699 -0.2903
 7787TIP3    H123302   2.675   4.954   2.441 -0.0237 -0.6817 -0.1739
 7787TIP3    H223303   2.534   4.954   2.387 -0.6506 -0.4375  1.4382
 7788TIP3   OH223304   5.290   6.779   6.685  0.0620  0.8269  0.1951
 7788TIP3    H123305   5.348   6.837   6.636 -1.5743  1.6901 -0.8475
 7788TIP3    H223306   5.239   6.734   6.617 -0.9563  0.6231  1.0711
 7789TIP3   OH223307   1.760   2.006   4.882 -0.3614  0.2544 -0.2379
 7789TIP3    H123308   1.799   1.936   4.829  1.2579  0.2488  0.8957
 7789TIP3    H223309   1.811   2.084   4.860 -0.1927  0.4226  0.6954
 7790TIP3   OH223310   3.777   0.849   4.818  0.4409 -0.1166 -0.4516
 7790TIP3    H123311   3.701   0.903   4.795 -1.7776 -1.9255  1.9608
 7790TIP3    H223312   3.783   0.785   4.747 -1.1334 -0.6644 -0.1530
 7791TIP3   OH223313   6.770   6.349   3.113 -0.2162  0.1578  0.0166
 7791TIP3    H123314   6.857   6.315   3.093  0.6235  2.7430 -1.1618
 7791TIP3    H223315   6.787   6.434   3.154 -2.1923 -0.0018  1.2669
 7792TIP3   OH223316   1.816   6.941   6.154 -0.5426  0.2720  0.5776
 7792TIP3    H123317   1.773   6.905   6.076  0.4056 -0.9513  0.5898
 7792TIP3    H223318   1.829   7.034   6.134  0.5939 -0.2121 -1.1587
 7793TIP3   OH223319   1.567   6.165   0.274 -0.6754 -0.6082  0.5542
 7793TIP3    H123320   1.557   6.070   0.279  0.4252 -0.8228 -0.7290
 7793TIP3    H223321   1.541   6.188   0.185  0.2320  0.1094  0.4545
 7794TIP3   OH223322   1.912   2.517   5.104 -0.2075  0.3722 -0.1310
 7794TIP3    H123323   1.978   2.465   5.059  0.8685  0.4955  1.2308
 7794TIP3    H223324   1.918   2.604   5.065  0.2966  0.3223 -0.1685
 7795TIP3   OH223325   3.343   4.624   0.963 -0.2912  0.0266 -0.0619
 7795TIP3    H123326   3.402   4.556   0.995 -0.8008  0.3822  1.7574
 7795TIP3    H223327   3.395   4.705   0.967 -0.6731  0.2311  0.8701
 7796TIP3   OH223328   6.299   2.437   4.037 -0.2948 -0.2202  0.0036
 7796TIP3    H123329   6.255   2.471   4.115 -1.2733  0.3358 -0.7725
 7796TIP3    H223330   6.304   2.342   4.053 -1.0680 -0.1961  0.4635
 7797TIP3   OH223331   6.095   1.764   6.799  0.2641 -0.5836 -0.1501
 7797TIP3    H123332   6.052   1.788   6.881  0.7804  1.0313 -0.3237
 7797TIP3    H223333   6.023   1.746   6.739 -0.1999  1.3494 -0.2212
 7798TIP3   OH223334   0.519   3.608   5.247  1.0334  0.3170 -0.1755
 7798TIP3    H123335   0.480   3.551   5.180  0.6092 -1.3074  1.3778
 7798TIP3    H223336   0.480   3.578   5.329  2.9700  0.9820  1.0419
 7799TIP3   OH223337   4.826   6.508   1.118  0.0314  0.2612 -0.4001
 7799TIP3    H123338   4.862   6.428   1.157 -1.4716 -0.6297 -0.7513
 7799TIP3    H223339   4.745   6.524   1.166 -1.5611 -0.5207 -2.6473
 7800TIP3   OH223340   2.507   1.806   0.431  0.0526  0.7747  0.1412
 7800TIP3    H123341   2.438   1.866   0.460  1.0025  1.4669  1.0385
 7800TIP3    H223342   2.578   1.863   0.402  0.5497  0.0808 -0.0342
 7801TIP3   OH223343   5.277   4.878   4.892 -0.0690  0.7015 -0.1363
 7801TIP3    H123344   5.216   4.925   4.948 -0.3982 -0.1910  0.2770
 7801TIP3    H223345   5.359   4.874   4.943 -0.2206  0.3210  0.0854
 7802TIP3   OH223346   6.746   1.035   0.181  0.0283  0.5382  0.8464
 7802TIP3    H123347   6.830   1.074   0.205  0.4757  0.0407  0.1392
 7802TIP3    H223348   6.684   1.109   0.181  0.2986  0.7886  2.0710
 7803TIP3   OH223349   6.714   1.636   0.274  0.1144  0.0211  0.2918
 7803TIP3    H123350   6.641   1.601   0.222  0.2176  0.5972 -0.2564
 7803TIP3    H223351   6.741   1.714   0.226  0.7675  0.0881  0.7674
 7804TIP3   OH223352   1.596   5.785   5.637  0.0996  0.0278  0.1257
 7804TIP3    H123353   1.588   5.879   5.653 -1.4660  0.1564 -1.1896
 7804TIP3    H223354   1.690   5.768   5.643  0.3009  1.3830  1.7775
 7805TIP3   OH223355   3.484   3.874   1.604 -0.1175 -0.0461  0.4720
 7805TIP3    H123356   3.414   3.855   1.666 -0.0465 -0.0440  0.5536
 7805TIP3    H223357   3.564   3.853   1.652 -0.0788 -0.4144  0.2493
 7806TIP3   OH223358   4.896   4.370   0.994  0.2578  0.1687  0.0685
 7806TIP3    H123359   4.991   4.379   0.982  0.4576 -0.7139  0.8481
 7806TIP3    H223360   4.886   4.290   1.047 -0.8991  0.4731  0.3362
 7807TIP3   OH223361   1.670   6.422   4.367 -0.3284 -0.2130 -0.1934
 7807TIP3    H123362   1.654   6.487   4.298  0.7522 -0.6339 -0.8710
 7807TIP3    H223363   1.585   6.408   4.407 -1.1807 -0.6726 -2.0706
 7808TIP3   OH223364   1.899   6.559   0.015  0.0297 -0.1410 -0.2454
 7808TIP3    H123365   1.854   6.581  -0.066  0.0288  1.2246  0.1121
 7808TIP3    H223366   1.920   6.643   0.055  0.0095 -0.7866  1.1856
 7809TIP3   OH223367   6.895   4.439   3.558  0.3181  0.1416 -0.3771
 7809TIP3    H123368   6.888   4.473   3.469 -0.9632  1.6825  0.2608
 7809TIP3    H223369   6.956   4.499   3.601 -0.1797  0.2610  0.1633
 7810TIP3   OH223370   0.742   1.149   3.071  0.1148  0.4255  0.2675
 7810TIP3    H123371   0.692   1.083   3.022  1.0397  1.5186 -2.3412
 7810TIP3    H223372   0.770   1.104   3.150 -0.5144 -1.8441 -0.7128
 7811TIP3   OH223373   7.100   5.812   2.879  0.4745 -0.0146 -0.0032
 7811TIP3    H123374   7.090   5.720   2.854 -2.7181  0.9168 -2.9302
 7811TIP3    H223375   7.030   5.827   2.943 -1.0396  0.8999 -1.7476
 7812TIP3   OH223376   2.079   4.237   4.583  0.8783  0.6201 -0.0659
 7812TIP3    H123377   2.059   4.167   4.521  1.3876  0.1075  0.3390
 7812TIP3    H223378   2.165   4.269   4.557  0.4053  1.5034 -0.6047
 7813TIP3   OH223379   4.983   5.811   5.150 -0.1265  0.2837 -0.1819
 7813TIP3    H123380   4.905   5.809   5.096  0.2097 -1.0779 -0.6550
 7813TIP3    H223381   5.022   5.897   5.133 -0.7819  0.4249 -1.0090
 7814TIP3   OH223382   5.302   2.649   5.299  0.2035 -0.4096 -0.0467
 7814TIP3    H123383   5.232   2.714   5.289  1.4724  1.2193  1.1611
 7814TIP3    H223384   5.289   2.613   5.387  0.6229 -0.4084  0.0167
 7815TIP3   OH223385   4.466   0.293   5.093 -0.1289  0.6048  0.3744
 7815TIP3    H123386   4.478   0.367   5.034 -1.7594  0.7171  0.1192
 7815TIP3    H223387   4.383   0.311   5.137  0.3854 -0.1476  1.7232
 7816TIP3   OH223388   6.520   4.285   2.124 -0.1276 -0.1704 -0.3153
 7816TIP3    H123389   6.465   4.220   2.079  0.8058  0.1414 -1.9926
 7816TIP3    H223390   6.606   4.274   2.085  0.4517  0.9414  0.6023
 7817TIP3   OH223391   6.604   5.013   1.594  0.2182  0.8293  0.4123
 7817TIP3    H123392   6.644   5.032   1.509 -1.4243  0.9551 -0.3941
 7817TIP3    H223393   6.609   5.095   1.643 -0.0951  1.1850 -0.1368
 7818TIP3   OH223394   3.208   7.784   3.639  0.2971  0.1050 -0.0662
 7818TIP3    H123395   3.133   7.724   3.638 -0.7647  1.3684 -1.7030
 7818TIP3    H223396   3.178   7.859   3.690  0.0094  1.0807 -1.6103
 7819TIP3   OH223397   4.911   5.005   0.318  0.7149 -0.2318 -0.0032
 7819TIP3    H123398   4.861   5.001   0.400  1.7073 -1.7888  0.5627
 7819TIP3    H223399   5.002   4.992   0.345  1.4522  2.1024 -1.0567
 7820TIP3   OH223400   8.173   5.557   4.039  0.3069  0.2298  0.5085
 7820TIP3    H123401   8.182   5.562   3.944 -0.6888  0.9521  0.4341
 7820TIP3    H223402   8.256   5.590   4.073  0.0348  1.6680 -0.1202
 7821TIP3   OH223403   4.753   2.320   2.039 -0.4712 -0.1794  0.3060
 7821TIP3    H123404   4.706   2.338   2.121 -0.5964  0.0124  0.1920
 7821TIP3    H223405   4.843   2.304   2.066 -0.3504  0.6281  0.4074
 7822TIP3   OH223406   6.398   3.443   0.769  0.2631  0.0892 -0.9129
 7822TIP3    H123407   6.368   3.407   0.686  0.0103 -0.0771 -0.7511
 7822TIP3    H223408   6.484   3.405   0.782  0.9578  1.2864 -1.8304
 7823TIP3   OH223409   2.289   1.753   5.623  0.1159  0.2526 -0.0277
 7823TIP3    H123410   2.305   1.780   5.713 -2.4358  0.7584  0.3417
 7823TIP3    H223411   2.350   1.680   5.609  1.2841  0.8325  1.7275
 7824TIP3   OH223412   3.879   7.901   3.625 -0.2261 -0.1579  1.0576
 7824TIP3    H123413   3.854   7.941   3.708 -1.4744 -0.0311  0.6507
 7824TIP3    H223414   3.959   7.852   3.644  2.0373  3.3165  1.3616
 7825TIP3   OH223415   6.962   4.610   5.962  0.0886  0.8181 -0.0589
 7825TIP3    H123416   6.926   4.633   6.048 -1.0544  0.4911 -0.4274
 7825TIP3    H223417   6.992   4.692   5.925 -1.5561  1.3408 -0.2950
 7826TIP3   OH223418   5.951   1.433   1.908  0.3428  0.2950  0.3711
 7826TIP3    H123419   5.876   1.484   1.938 -0.6469 -0.0452 -1.3666
 7826TIP3    H223420   5.953   1.357   1.965 -0.5528  0.3896  0.5503
 7827TIP3   OH223421   3.776   6.259   0.048  0.3993 -0.6713  0.4786
 7827TIP3    H123422   3.697   6.242   0.099 -0.4690 -0.0258 -0.6005
 7827TIP3    H223423   3.812   6.172   0.031  0.4764 -0.9230  1.8011
 7828TIP3   OH223424   3.659   5.215   0.868 -0.1114  0.0329  0.1345
 7828TIP3    H123425   3.746   5.243   0.898  0.2001 -0.3397 -0.4164
 7828TIP3    H223426   3.673   5.183   0.779 -1.0834  1.4983 -0.5908
 7829TIP3   OH223427   6.709   0.992   2.267 -0.6711  0.2951 -0.0015
 7829TIP3    H123428   6.755   1.075   2.253  0.0108 -0.0295  0.2871
 7829TIP3    H223429   6.636   1.015   2.324 -1.5835  1.0359 -1.3992
 7830TIP3   OH223430   4.214   6.095   2.472 -0.2691 -0.0572 -0.3050
 7830TIP3    H123431   4.265   6.111   2.551 -1.6955  1.4585  0.3590
 7830TIP3    H223432   4.137   6.151   2.481  0.0450  1.0182 -3.2642
 7831TIP3   OH223433   4.818   7.597   2.251  0.3200 -0.0210  0.4444
 7831TIP3    H123434   4.813   7.653   2.173  0.6882 -1.4318 -0.6318
 7831TIP3    H223435   4.902   7.618   2.291  1.4649 -1.2697 -1.1623
 7832TIP3   OH223436   5.930   0.228   3.007  0.7841 -0.5016  1.3023
 7832TIP3    H123437   5.876   0.152   2.985 -0.3701  1.1882 -2.7978
 7832TIP3    H223438   5.874   0.281   3.064 -0.8935 -0.1244 -0.5642
 7833TIP3   OH223439   4.735   0.655   4.185  0.1447  0.5578  0.6440
 7833TIP3    H123440   4.771   0.727   4.134  0.4183  0.0931  0.1677
 7833TIP3    H223441   4.795   0.645   4.259  0.0056  0.9335  0.8072
 7834TIP3   OH223442   6.313   7.595   5.892  0.1621 -0.0340 -0.4171
 7834TIP3    H123443   6.405   7.572   5.906 -0.1202 -1.2780 -0.4492
 7834TIP3    H223444   6.316   7.678   5.844  1.2124  1.4658  2.0330
 7835TIP3   OH223445   0.676   0.884   0.218 -0.1064 -0.5200  0.0520
 7835TIP3    H123446   0.718   0.946   0.158 -1.6103  0.4695 -0.0192
 7835TIP3    H223447   0.649   0.937   0.293 -2.6343 -0.7530 -0.6060
 7836TIP3   OH223448   2.557   7.306   0.673 -0.4318  0.1265  0.0598
 7836TIP3    H123449   2.532   7.371   0.607 -1.0265  0.6213  0.7517
 7836TIP3    H223450   2.610   7.242   0.626  0.1375  1.1046 -0.6469
 7837TIP3   OH223451   2.521   7.451   3.773  0.2023  0.1384  0.8486
 7837TIP3    H123452   2.499   7.414   3.687 -0.4285 -0.6528  1.3416
 7837TIP3    H223453   2.552   7.540   3.753  2.8847 -0.9700 -0.4851
 7838TIP3   OH223454   4.132   6.086   3.348  0.9236 -0.3696  0.6128
 7838TIP3    H123455   4.084   6.117   3.272  0.3722 -3.0179 -0.2157
 7838TIP3    H223456   4.126   6.157   3.412  1.5234  1.9941 -1.8160
 7839TIP3   OH223457   5.360   0.883   1.245 -0.3759  0.1007  0.2456
 7839TIP3    H123458   5.280   0.896   1.194  0.2251 -0.0913 -0.7837
 7839TIP3    H223459   5.361   0.955   1.308 -0.2994  1.3431 -1.1412
 7840TIP3   OH223460   4.320   1.703   4.781  0.2756 -0.0956  0.2012
 7840TIP3    H123461   4.340   1.792   4.751  0.6933 -0.7384 -1.4933
 7840TIP3    H223462   4.315   1.712   4.876  0.4184  1.7200  0.0870
 7841TIP3   OH223463   6.257   0.130   0.210 -0.4591  0.6033  0.0191
 7841TIP3    H123464   6.197   0.123   0.135  0.6627  1.6714 -1.0426
 7841TIP3    H223465   6.313   0.053   0.203 -1.3372 -0.1230  0.7093
 7842TIP3   OH223466   4.185   5.779   3.932  0.1086 -0.9249 -0.0295
 7842TIP3    H123467   4.177   5.738   3.845  1.9643 -1.9868  0.2524
 7842TIP3    H223468   4.105   5.753   3.977 -1.7613  1.1005 -1.9344
 7843TIP3   OH223469   4.965   1.659   4.878  0.2401 -0.6502  0.1998
 7843TIP3    H123470   4.945   1.572   4.844  0.0244 -0.1630 -0.9861
 7843TIP3    H223471   4.995   1.708   4.801 -2.1043  1.0546  0.2668
 7844TIP3   OH223472   3.146   5.952   5.410  0.4890 -0.0727  0.4142
 7844TIP3    H123473   3.087   5.990   5.475 -1.0592 -1.1642 -0.3091
 7844TIP3    H223474   3.097   5.880   5.372  1.5889  0.1511 -1.5533
 7845TIP3   OH223475   6.095   7.577   2.854  0.0217  0.4775  0.6649
 7845TIP3    H123476   6.037   7.570   2.778  0.2289 -0.6232  0.5878
 7845TIP3    H223477   6.130   7.488   2.866  0.6256  0.8162  1.5473
 7846TIP3   OH223478   4.336   4.662   2.845  0.0788  0.4370 -0.1379
 7846TIP3    H123479   4.382   4.746   2.852  0.5528  0.2192 -0.5849
 7846TIP3    H223480   4.244   4.686   2.843  0.2047  0.9428 -0.1234
 7847TIP3   OH223481   1.715   4.338   3.515  0.2025 -0.0680 -0.0290
 7847TIP3    H123482   1.786   4.320   3.577  0.1446  0.3812  0.1736
 7847TIP3    H223483   1.649   4.383   3.568  0.6556  1.3961 -0.6790
 7848TIP3   OH223484   5.886   2.330   3.074 -0.0419 -0.0139 -0.7146
 7848TIP3    H123485   5.977   2.353   3.094 -0.2854  0.2843  0.0841
 7848TIP3    H223486   5.883   2.235   3.080  0.4990 -0.1290 -1.9832
 7849TIP3   OH223487   0.386   1.401   1.346 -0.0116  0.0969 -0.2991
 7849TIP3    H123488   0.342   1.360   1.271  0.5727 -0.3484 -0.4030
 7849TIP3    H223489   0.479   1.398   1.324  0.1766 -0.1224  0.4828
 7850TIP3   OH223490   1.208   2.395   6.167 -0.0148 -0.1272  0.7488
 7850TIP3    H123491   1.167   2.388   6.253 -0.7955 -0.2368  0.3730
 7850TIP3    H223492   1.292   2.350   6.176 -0.1958 -0.3378  1.3857
 7851TIP3   OH223493   6.160   0.109   6.506  0.5973  0.1885 -0.0268
 7851TIP3    H123494   6.205   0.138   6.426 -1.1891  1.1001 -0.7860
 7851TIP3    H223495   6.196   0.023   6.525  1.9577  0.4893 -1.0984
 7852TIP3   OH223496   7.531   7.713   6.245 -0.9623  0.2773  0.1437
 7852TIP3    H123497   7.542   7.806   6.265  0.2293  0.4316 -1.0925
 7852TIP3    H223498   7.437   7.696   6.259 -1.1734  1.6273  0.4834
 7853TIP3   OH223499   4.684   0.524   1.985  0.2576 -0.2558  0.0046
 7853TIP3    H123500   4.590   0.513   1.973  0.3026 -0.3082 -0.3299
 7853TIP3    H223501   4.701   0.614   1.955  0.2878 -0.1907  0.2191
 7854TIP3   OH223502   4.464   0.441   2.680  0.9110  0.0773  0.1114
 7854TIP3    H123503   4.490   0.528   2.653 -2.5911  1.0798 -0.5079
 7854TIP3    H223504   4.417   0.454   2.763 -0.2149 -1.0741 -0.2928
 7855TIP3   OH223505   4.970   5.397   4.872  0.0371 -0.2289  0.5621
 7855TIP3    H123506   4.988   5.440   4.956  0.5604  0.2244  0.2260
 7855TIP3    H223507   5.039   5.429   4.814  0.7844 -1.9270  0.4317
 7856TIP3   OH223508   7.279   2.823   0.265  0.1977 -0.1197 -0.4092
 7856TIP3    H123509   7.209   2.803   0.327  0.9630 -0.3896  0.3749
 7856TIP3    H223510   7.233   2.835   0.182 -0.8133 -0.0235  0.1390
 7857TIP3   OH223511   1.274   6.302   2.217  0.0523 -0.4114  0.1558
 7857TIP3    H123512   1.329   6.373   2.251 -0.4698 -0.0562  0.2643
 7857TIP3    H223513   1.232   6.338   2.139 -0.9050 -0.2891  0.7085
 7858TIP3   OH223514   2.307   4.371   5.339  0.4297 -0.4883  0.0944
 7858TIP3    H123515   2.235   4.358   5.400  0.6858 -1.1636  0.2624
 7858TIP3    H223516   2.377   4.314   5.371  1.4866  1.0324  0.6234
 7859TIP3   OH223517   5.605   0.775   3.862  0.3272 -0.3600  0.5834
 7859TIP3    H123518   5.695   0.780   3.895  0.5651  0.5777 -0.1743
 7859TIP3    H223519   5.566   0.703   3.912  1.2142 -0.1775  1.5991
 7860TIP3   OH223520   6.312   4.849   2.663  0.1166  0.3306 -0.2333
 7860TIP3    H123521   6.390   4.901   2.682 -0.2491  0.7333  0.1829
 7860TIP3    H223522   6.343   4.782   2.602  1.2664 -0.7941  1.4705
 7861TIP3   OH223523   0.779   6.872   0.765 -0.8735  0.3047  0.6025
 7861TIP3    H123524   0.787   6.815   0.841 -0.8369  0.5345  0.7731
 7861TIP3    H223525   0.864   6.917   0.760 -0.8259  0.1850  0.3421
 7862TIP3   OH223526   4.622   2.388   4.359 -0.0153  0.2658 -0.3247
 7862TIP3    H123527   4.578   2.337   4.427  0.8093  0.2384  0.1986
 7862TIP3    H223528   4.604   2.341   4.278 -2.6465  1.3207 -0.4638
 7863TIP3   OH223529   3.162   3.619   4.513  0.1127 -0.1027  0.3263
 7863TIP3    H123530   3.149   3.579   4.426 -0.9935 -1.7621  1.1955
 7863TIP3    H223531   3.194   3.547   4.567 -0.9139  0.4602  1.7194
 7864TIP3   OH223532   5.031   0.289   5.572  0.1895 -0.3126 -0.1032
 7864TIP3    H123533   5.082   0.358   5.614  0.9841 -0.6863 -0.4163
 7864TIP3    H223534   5.096   0.222   5.550 -0.7607 -1.9040  1.6239
 7865TIP3   OH223535   2.789   7.063   4.086 -0.2383  0.2747 -0.5036
 7865TIP3    H123536   2.776   7.031   3.997  0.5351 -2.2197  0.2118
 7865TIP3    H223537   2.704   7.100   4.110 -0.5375  0.7537 -2.1542
 7866TIP3   OH223538   2.888   0.047   2.978 -0.2753 -0.1678 -0.0203
 7866TIP3    H123539   2.833  -0.019   2.936 -1.2038  1.0867 -0.8329
 7866TIP3    H223540   2.889   0.121   2.917  1.6975  0.1575  0.3341
 7867TIP3   OH223541   5.770   3.301   5.873 -0.1233 -0.0454 -0.0166
 7867TIP3    H123542   5.845   3.323   5.927  1.9318 -2.1358 -1.7857
 7867TIP3    H223543   5.763   3.372   5.809  0.5023  0.0430  0.0148
 7868TIP3   OH223544   4.673   5.787   0.790 -0.3207 -0.3125  0.6747
 7868TIP3    H123545   4.640   5.877   0.792 -1.2586 -0.6497  2.4796
 7868TIP3    H223546   4.684   5.767   0.697  0.7011  1.9245  0.2407
 7869TIP3   OH223547   0.824   5.784   4.525  0.0316 -0.0160  0.1338
 7869TIP3    H123548   0.873   5.742   4.454  0.9345  0.1488  0.6411
 7869TIP3    H223549   0.738   5.803   4.487  0.6834  0.5840 -1.0940
 7870TIP3   OH223550   3.747   7.854   1.079  0.2587  0.0315  0.2532
 7870TIP3    H123551   3.822   7.797   1.096 -0.9729 -3.2032 -3.5034
 7870TIP3    H223552   3.671   7.802   1.105 -0.8541  0.6225 -1.6081
 7871TIP3   OH223553   5.745   5.560   6.502 -0.3339 -0.3837  0.4227
 7871TIP3    H123554   5.713   5.483   6.549 -0.8051 -0.5798 -0.2053
 7871TIP3    H223555   5.840   5.548   6.499 -0.4900 -1.6043 -0.7581
 7872TIP3   OH223556   4.439   5.747   1.390 -0.5670 -0.6245 -0.1187
 7872TIP3    H123557   4.403   5.778   1.307  0.1247  1.1276  0.1874
 7872TIP3    H223558   4.534   5.760   1.381 -0.4372 -0.8703  0.7624
 7873TIP3   OH223559   3.833   6.882   1.162  0.1384 -0.3090 -0.0080
 7873TIP3    H123560   3.801   6.800   1.124  0.9356 -0.4929 -0.3143
 7873TIP3    H223561   3.754   6.928   1.190 -0.2974 -1.3767  0.5823
 7874TIP3   OH223562   1.164   7.520   3.991  0.1178  0.4821  0.5572
 7874TIP3    H123563   1.257   7.516   3.971  0.0885 -1.5425  0.6271
 7874TIP3    H223564   1.160   7.552   4.081  0.5226  3.6396 -0.4026
 7875TIP3   OH223565   1.773   1.077   6.616  0.5377 -0.1455  0.5152
 7875TIP3    H123566   1.797   1.112   6.530 -1.7988 -2.3697 -1.1645
 7875TIP3    H223567   1.693   1.125   6.640  0.0398 -0.9449  0.4722
 7876TIP3   OH223568   7.571   6.223   1.619 -0.2320  0.0974  0.3640
 7876TIP3    H123569   7.554   6.251   1.709 -0.0069  0.7486  0.2052
 7876TIP3    H223570   7.535   6.292   1.564 -0.8236 -0.5393 -0.0691
 7877TIP3   OH223571   5.694   5.347   5.170 -0.8982 -0.3987  0.3204
 7877TIP3    H123572   5.690   5.421   5.231 -1.4039 -0.2869  0.1534
 7877TIP3    H223573   5.677   5.386   5.085  1.6471 -0.2363 -0.1759
 7878TIP3   OH223574   7.992   6.329   2.820 -0.6534 -0.2424 -0.1307
 7878TIP3    H123575   8.019   6.256   2.765  1.6544  0.2994  0.1761
 7878TIP3    H223576   7.918   6.368   2.774  0.6566 -0.3238 -2.4328
 7879TIP3   OH223577   0.333   2.063   6.860  0.1611 -0.0855 -0.4792
 7879TIP3    H123578   0.270   2.134   6.873 -0.7466 -0.7733 -1.0013
 7879TIP3    H223579   0.331   2.045   6.765  1.6487  0.3183 -0.6254
 7880TIP3   OH223580   5.152   7.368   2.796  0.1575  0.2818  0.1275
 7880TIP3    H123581   5.127   7.296   2.740  1.3893  0.1645 -0.3011
 7880TIP3    H223582   5.079   7.377   2.858 -0.6031 -0.4488 -0.6404
 7881TIP3   OH223583   1.462   6.888   0.612 -0.4917 -0.1003 -0.1770
 7881TIP3    H123584   1.523   6.957   0.587 -0.3815  0.9618  2.6114
 7881TIP3    H223585   1.508   6.806   0.591  0.0515  0.6401 -2.0307
 7882TIP3   OH223586   7.515   4.696   0.349  0.3360 -0.7871  0.1537
 7882TIP3    H123587   7.592   4.665   0.302  0.6312 -0.0056  0.0998
 7882TIP3    H223588   7.444   4.689   0.286  0.8906  1.1181 -0.7685
 7883TIP3   OH223589   2.170   7.673   0.914  0.2841  0.0012 -0.3594
 7883TIP3    H123590   2.077   7.690   0.929 -0.3558 -3.1038 -0.0423
 7883TIP3    H223591   2.182   7.686   0.820 -0.1536  1.4844 -0.2428
 7884TIP3   OH223592   5.219   5.115   2.892 -0.0143  0.1664 -0.1262
 7884TIP3    H123593   5.313   5.124   2.879 -0.0371  1.1012  0.2813
 7884TIP3    H223594   5.204   5.142   2.983 -0.7201  0.4105 -0.3035
 7885TIP3   OH223595   5.300   3.994   3.495 -0.0947 -0.1060  0.0541
 7885TIP3    H123596   5.218   4.008   3.447  0.8446 -0.7246 -1.8335
 7885TIP3    H223597   5.280   3.924   3.557 -0.7875 -0.8443 -0.9710
 7886TIP3   OH223598   0.855   6.089   6.544  0.6499  0.2146  0.0020
 7886TIP3    H123599   0.910   6.101   6.467 -2.3230 -0.3280 -2.3693
 7886TIP3    H223600   0.856   6.175   6.587  0.8930  1.1048 -1.6860
 7887TIP3   OH223601   1.792   4.103   2.325 -0.7089  0.3885  0.1382
 7887TIP3    H123602   1.806   4.081   2.417 -1.3430 -0.2531  0.0883
 7887TIP3    H223603   1.791   4.198   2.322  0.2324  0.4240  0.6557
 7888TIP3   OH223604   5.713   4.821   3.454  0.2477  0.2648  0.4618
 7888TIP3    H123605   5.712   4.810   3.549 -0.0182  0.0692  0.4366
 7888TIP3    H223606   5.759   4.904   3.440  0.0515  0.4267  0.7743
 7889TIP3   OH223607   5.774   5.620   2.346 -0.2841  0.0464  0.0312
 7889TIP3    H123608   5.762   5.627   2.440 -0.0502  0.3754  0.0375
 7889TIP3    H223609   5.861   5.580   2.337 -0.2586  0.1194 -0.0459
 7890TIP3   OH223610   0.737   5.407   6.690 -0.1505 -0.1478 -0.4008
 7890TIP3    H123611   0.814   5.441   6.735  0.6777 -1.9633 -0.3674
 7890TIP3    H223612   0.686   5.485   6.669  0.4762  0.9308  1.7420
 7891TIP3   OH223613   5.137   6.708   3.338  0.3239  0.1091 -0.6047
 7891TIP3    H123614   5.218   6.755   3.357  1.1707 -2.1078  1.8787
 7891TIP3    H223615   5.089   6.709   3.421 -0.9885 -0.8566 -1.3220
 7892TIP3   OH223616   1.339   0.894   0.127  0.2833  0.0406  0.0556
 7892TIP3    H123617   1.248   0.872   0.146  0.6310 -0.3661  1.3606
 7892TIP3    H223618   1.351   0.871   0.035 -1.1130  0.7671 -0.3321
 7893TIP3   OH223619   6.541   1.408   5.531 -0.2120  0.4202  0.2416
 7893TIP3    H123620   6.592   1.398   5.450  1.4542  0.7966  1.1882
 7893TIP3    H223621   6.482   1.333   5.532 -0.2987  0.4299 -1.3281
 7894TIP3   OH223622   5.701   0.399   1.730  0.0327 -0.8135 -0.0039
 7894TIP3    H123623   5.736   0.483   1.758 -0.2225 -0.9159  0.6474
 7894TIP3    H223624   5.772   0.358   1.681  0.7799 -0.9400  1.1327
 7895TIP3   OH223625   8.180   4.614   5.758  0.4093 -0.9002 -0.1139
 7895TIP3    H123626   8.187   4.625   5.853  0.0152 -1.9485  0.0588
 7895TIP3    H223627   8.270   4.626   5.726  0.7511 -1.6220  0.5341
 7896TIP3   OH223628   7.256   2.294   5.131  0.3185 -0.4968  0.5368
 7896TIP3    H123629   7.251   2.201   5.112 -4.9291 -1.1181  3.2625
 7896TIP3    H223630   7.296   2.299   5.218  1.2660 -0.0152  0.1015
 7897TIP3   OH223631   1.721   6.999   1.512  0.4667 -0.0944  0.9110
 7897TIP3    H123632   1.689   6.909   1.502 -0.3915  0.3140 -0.3563
 7897TIP3    H223633   1.749   7.024   1.424  2.2178  0.3553  1.5554
 7898TIP3   OH223634   2.366   5.629   1.415 -0.1459 -0.1679  0.2139
 7898TIP3    H123635   2.400   5.661   1.499 -0.4571  1.1390 -0.1500
 7898TIP3    H223636   2.293   5.572   1.440  1.0809 -1.5215  0.9102
 7899TIP3   OH223637   5.140   3.881   3.730  0.3071  0.0638 -0.1146
 7899TIP3    H123638   5.170   3.941   3.798  0.1237 -0.2003  0.1983
 7899TIP3    H223639   5.054   3.913   3.705 -0.3962 -0.8581  1.0225
 7900TIP3   OH223640   1.782   6.910   5.060  0.1341  0.2210  0.2980
 7900TIP3    H123641   1.770   6.973   4.988  0.1653  1.2777  1.1903
 7900TIP3    H223642   1.846   6.952   5.118 -0.0469 -0.5224  1.0477
 7901TIP3   OH223643   1.281   7.824   0.925 -0.0388  0.3969 -0.2358
 7901TIP3    H123644   1.375   7.807   0.936 -0.0391 -0.3391 -1.2469
 7901TIP3    H223645   1.255   7.768   0.852 -1.1037  1.1931 -0.4894
 7902TIP3   OH223646   6.353   5.842   3.349 -0.1937 -0.2249 -0.0382
 7902TIP3    H123647   6.372   5.920   3.401 -0.3233 -0.9247  1.0930
 7902TIP3    H223648   6.438   5.812   3.318  0.0218 -0.4337  0.7272
 7903TIP3   OH223649   7.300   6.032   6.387 -0.0076 -0.7812  0.0462
 7903TIP3    H123650   7.253   6.082   6.453  0.8288 -0.7617  0.6429
 7903TIP3    H223651   7.321   5.949   6.429  2.7096  0.1474  0.7496
 7904TIP3   OH223652   4.544   3.816   4.314  0.0168 -0.0515 -0.6057
 7904TIP3    H123653   4.493   3.897   4.313  0.3108  0.2496  2.1545
 7904TIP3    H223654   4.635   3.846   4.324  0.6042 -0.6617 -3.2972
 7905TIP3   OH223655   5.564   1.406   3.298 -0.0164 -0.0381 -0.1918
 7905TIP3    H123656   5.520   1.443   3.375 -0.5085  0.4706 -0.7202
 7905TIP3    H223657   5.658   1.410   3.321 -0.0999  0.9174  0.0293
 7906TIP3   OH223658   6.861   3.390   2.070 -0.4044  0.8245 -0.4899
 7906TIP3    H123659   6.802   3.336   2.123  1.2209 -1.1510 -0.5706
 7906TIP3    H223660   6.858   3.349   1.983  0.3546  1.2944 -0.7402
 7907TIP3   OH223661   4.311   6.111   2.724 -0.0410  0.3948  0.1449
 7907TIP3    H123662   4.228   6.066   2.741  0.0746  0.2446  0.3173
 7907TIP3    H223663   4.347   6.129   2.811 -0.4536  1.5215  0.0990
 7908TIP3   OH223664   5.681   6.373   2.810 -0.0237 -0.0601  0.4044
 7908TIP3    H123665   5.677   6.460   2.771  1.2534 -0.6186 -1.0937
 7908TIP3    H223666   5.608   6.371   2.872 -0.2331  1.9656  0.2820
 7909TIP3   OH223667   4.825   2.134   1.016 -1.2024  0.1272  0.3853
 7909TIP3    H123668   4.858   2.115   1.103 -1.4839  0.6249  0.6059
 7909TIP3    H223669   4.857   2.222   0.996 -0.6995 -0.1878 -0.2315
 7910TIP3   OH223670   7.643   1.750   4.144  0.4827  0.2297  0.2381
 7910TIP3    H123671   7.679   1.776   4.228  0.0357 -0.5851  0.7008
 7910TIP3    H223672   7.621   1.832   4.100  0.4067  0.6514  1.0588
 7911TIP3   OH223673   4.948   5.113   0.622  0.7230 -0.0042 -0.1521
 7911TIP3    H123674   4.853   5.120   0.622  0.5772 -1.6762 -1.2532
 7911TIP3    H223675   4.978   5.196   0.584 -0.0793  1.8808  2.8917
 7912TIP3   OH223676   3.687   5.529   5.946 -0.0971 -0.0205 -0.2238
 7912TIP3    H123677   3.715   5.570   6.028  1.5773  0.0851 -0.8157
 7912TIP3    H223678   3.736   5.447   5.943 -2.2520 -1.3898  0.1949
 7913TIP3   OH223679   4.387   4.105   2.551 -0.0550  0.5005 -0.0270
 7913TIP3    H123680   4.439   4.064   2.482  0.3240  0.3166  0.3669
 7913TIP3    H223681   4.447   4.114   2.625 -1.0417 -1.4096  1.0829
 7914TIP3   OH223682   7.536   7.174   2.050 -0.1009  0.1291 -0.4206
 7914TIP3    H123683   7.568   7.084   2.058 -0.2037  0.1018 -0.3014
 7914TIP3    H223684   7.473   7.183   2.122 -0.3938  0.1653 -0.6798
 7915TIP3   OH223685   2.754   2.732   3.935 -0.0356 -0.4614 -0.1365
 7915TIP3    H123686   2.838   2.713   3.978 -0.7152  0.9035  1.9167
 7915TIP3    H223687   2.727   2.647   3.898  2.1544 -0.9523 -0.7746
 7916TIP3   OH223688   3.001   1.441   3.229  1.0039 -0.2189 -0.2396
 7916TIP3    H123689   2.947   1.467   3.155  1.4267  1.2605 -0.0444
 7916TIP3    H223690   2.977   1.349   3.245  1.6793 -0.9108 -2.8473
 7917TIP3   OH223691   0.743   1.077   0.037  0.3223  0.0204  0.2996
 7917TIP3    H123692   0.704   1.161   0.060 -1.6007 -0.6133 -0.4088
 7917TIP3    H223693   0.785   1.092  -0.048  1.1855  0.5857  0.8159
 7918TIP3   OH223694   0.380   1.317   4.009 -0.2011  0.9441  0.4934
 7918TIP3    H123695   0.395   1.283   3.921 -1.1976  1.8344 -0.0351
 7918TIP3    H223696   0.365   1.239   4.062 -4.0562  0.4877 -0.9775
 7919TIP3   OH223697   8.206   4.164   3.289 -0.1937 -0.2825  0.0842
 7919TIP3    H123698   8.287   4.113   3.295 -0.7790 -1.1262  1.0969
 7919TIP3    H223699   8.235   4.254   3.278  0.8842 -0.5813  0.3933
 7920TIP3   OH223700   2.732   0.247   3.583 -0.1471  0.0731 -0.4827
 7920TIP3    H123701   2.752   0.333   3.621  0.1582  0.4318 -1.4387
 7920TIP3    H223702   2.662   0.213   3.639  0.5995  0.3798  0.6904
 7921TIP3   OH223703   2.417   3.564   0.011 -0.1097  0.1381  0.6718
 7921TIP3    H123704   2.488   3.623  -0.013  0.9266 -1.2718  0.1767
 7921TIP3    H223705   2.366   3.613   0.076 -1.3713  2.9958 -2.2152
 7922TIP3   OH223706   1.828   7.292   4.758 -0.0979  0.9831 -0.0137
 7922TIP3    H123707   1.873   7.208   4.744  0.5436  1.2981  0.1276
 7922TIP3    H223708   1.868   7.351   4.694 -1.2160  0.9525 -0.7732
 7923TIP3   OH223709   0.103   1.279   2.402 -0.4871 -0.2957  0.4424
 7923TIP3    H123710   0.168   1.213   2.426 -0.5130 -0.6281 -0.3878
 7923TIP3    H223711   0.064   1.247   2.321  0.0346  1.0912 -0.3913
 7924TIP3   OH223712   0.951   1.408   5.299 -0.0672 -0.2460  0.2001
 7924TIP3    H123713   0.891   1.381   5.369  1.5911 -0.6158  1.5665
 7924TIP3    H223714   0.895   1.452   5.235 -2.0845 -2.2180  0.4459
 7925TIP3   OH223715   0.782   5.711   1.625  0.2425  0.6426  0.5959
 7925TIP3    H123716   0.766   5.765   1.548 -1.5759 -0.0856  0.4155
 7925TIP3    H223717   0.744   5.760   1.698 -1.2068 -0.2107  0.4661
 7926TIP3   OH223718   7.289   7.012   5.133  0.0094 -0.7257  0.3057
 7926TIP3    H123719   7.195   7.031   5.136 -0.5320 -3.1099  0.8189
 7926TIP3    H223720   7.312   7.020   5.041 -0.8231 -0.6536  0.0919
 7927TIP3   OH223721   3.443   5.072   4.854 -0.1223  0.2311 -0.2467
 7927TIP3    H123722   3.458   5.106   4.943  0.9167  1.0195 -0.7135
 7927TIP3    H223723   3.378   5.131   4.817 -0.8997 -0.3657  0.1253
 7928TIP3   OH223724   2.337   5.653   3.245  0.1316  0.0898 -0.0547
 7928TIP3    H123725   2.330   5.745   3.269  3.5804  0.6909 -0.8473
 7928TIP3    H223726   2.292   5.647   3.161  0.1450  1.1285 -0.1500
 7929TIP3   OH223727   0.714   3.371   4.946 -0.0990 -0.1727 -0.3089
 7929TIP3    H123728   0.689   3.453   4.904 -1.2924 -1.1058 -1.4804
 7929TIP3    H223729   0.807   3.360   4.923 -0.2094  0.3264 -1.0243
 7930TIP3   OH223730   0.112   0.944   0.487 -0.0968 -0.3595  0.3859
 7930TIP3    H123731   0.100   1.015   0.550  0.5102 -0.6299  0.8110
 7930TIP3    H223732   0.142   0.988   0.407 -0.2649 -0.0787  0.4784
 7931TIP3   OH223733   4.204   1.145   2.272 -0.1890  0.4761  0.1736
 7931TIP3    H123734   4.125   1.198   2.284  0.3746  1.0063  1.8129
 7931TIP3    H223735   4.233   1.125   2.361  1.3094 -0.0393 -0.3987
 7932TIP3   OH223736   5.032   6.203   5.312  0.0198 -0.1474  0.2682
 7932TIP3    H123737   5.003   6.294   5.309 -0.0368 -0.1819 -0.6401
 7932TIP3    H223738   4.953   6.152   5.296  0.1920 -0.3189 -0.0595
 7933TIP3   OH223739   4.600   6.807   2.272 -0.0084 -0.6983  0.3677
 7933TIP3    H123740   4.626   6.844   2.188  2.8801  0.9216  1.8057
 7933TIP3    H223741   4.681   6.807   2.324 -1.8373 -0.7235  3.4683
 7934TIP3   OH223742   8.157   1.102   2.540 -0.6601 -0.2199  0.3722
 7934TIP3    H123743   8.129   1.024   2.588  1.4953 -0.7220  0.8896
 7934TIP3    H223744   8.231   1.073   2.487 -0.8107  1.1352 -0.6485
 7935TIP3   OH223745   7.708   4.147   2.272 -0.0162 -0.2299 -0.0800
 7935TIP3    H123746   7.781   4.097   2.236 -0.1832 -1.9109  1.7626
 7935TIP3    H223747   7.736   4.238   2.265  1.3941 -0.7124 -1.2050
 7936TIP3   OH223748   5.586   1.471   4.775 -0.5055  0.1450 -0.0041
 7936TIP3    H123749   5.518   1.405   4.772 -1.1024  0.6302  1.8037
 7936TIP3    H223750   5.554   1.541   4.718 -1.2634  0.1236  0.3870
 7937TIP3   OH223751   0.597   0.270   1.405  0.5473 -0.3813  0.4706
 7937TIP3    H123752   0.595   0.281   1.310  0.9912 -1.7531  0.2823
 7937TIP3    H223753   0.665   0.331   1.434 -1.1350  1.7601  0.2119
 7938TIP3   OH223754   3.967   2.102   3.883 -0.5892  0.0009 -0.3104
 7938TIP3    H123755   3.939   2.149   3.961 -0.7606 -0.8983  0.1781
 7938TIP3    H223756   3.889   2.055   3.854 -0.6778  0.7372 -1.3463
 7939TIP3   OH223757   3.915   1.848   2.504 -0.1801  0.3715  0.0201
 7939TIP3    H123758   3.977   1.842   2.431  2.1144  3.0483  1.5234
 7939TIP3    H223759   3.937   1.773   2.560  0.9850  0.6496 -0.0312
 7940TIP3   OH223760   0.973   1.979   2.269 -0.3019  0.0983 -0.0266
 7940TIP3    H123761   0.882   2.007   2.270 -0.3720 -0.0455 -1.2218
 7940TIP3    H223762   1.005   2.003   2.182  0.8852  0.3948  0.4666
 7941TIP3   OH223763   7.119   2.596   6.473 -0.2371  0.1710  0.1736
 7941TIP3    H123764   7.026   2.574   6.474 -0.1841 -0.2995  3.2067
 7941TIP3    H223765   7.149   2.567   6.387 -2.9779  0.9869 -1.1842
 7942TIP3   OH223766   4.088   7.377   5.895 -0.1736  0.7882  0.5751
 7942TIP3    H123767   4.084   7.472   5.907 -0.6122  0.7592  0.6770
 7942TIP3    H223768   4.004   7.354   5.856 -0.0842  0.4343  0.5884
 7943TIP3   OH223769   5.090   0.943   2.960  0.1205  0.2337 -0.1287
 7943TIP3    H123770   5.113   0.891   3.037  1.2373  0.4127 -0.3390
 7943TIP3    H223771   5.156   0.923   2.895  0.5268  1.8182 -0.2541
 7944TIP3   OH223772   7.125   4.373   4.593 -0.3323  0.2123 -0.5195
 7944TIP3    H123773   7.106   4.382   4.500 -1.7139  0.8189 -0.2064
 7944TIP3    H223774   7.120   4.278   4.609 -2.7636  0.2608 -0.5875
 7945TIP3   OH223775   5.400   6.682   1.153  0.3056 -0.2392  0.1044
 7945TIP3    H123776   5.327   6.712   1.207 -0.7166  0.4669 -1.6175
 7945TIP3    H223777   5.478   6.713   1.200 -0.5426  0.4578  1.1094
 7946TIP3   OH223778   1.071   5.752   2.115  0.0488 -0.3127 -0.4149
 7946TIP3    H123779   1.017   5.805   2.174 -1.3451 -3.1310  1.0114
 7946TIP3    H223780   1.157   5.751   2.156 -0.3159 -0.4138  0.3501
 7947TIP3   OH223781   0.489   2.874   2.825 -0.1987 -0.2665  0.2693
 7947TIP3    H123782   0.575   2.835   2.843 -0.0518 -1.1215 -1.8805
 7947TIP3    H223783   0.508   2.942   2.760 -1.1755 -0.8216 -0.6262
 7948TIP3   OH223784   7.625   3.059   6.504  0.0838  0.1410  0.3266
 7948TIP3    H123785   7.707   3.010   6.507 -0.1277 -0.2201  0.2737
 7948TIP3    H223786   7.618   3.088   6.413  0.8995  1.4723  0.6565
 7949TIP3   OH223787   2.066   4.664   2.057 -0.0901 -0.0455 -0.2750
 7949TIP3    H123788   2.009   4.654   2.134 -0.4909  1.3379 -0.3568
 7949TIP3    H223789   2.012   4.710   1.993  0.4411 -0.6428 -1.1625
 7950TIP3   OH223790   5.511   6.341   2.074  0.6146 -0.0817 -0.0896
 7950TIP3    H123791   5.510   6.437   2.065  1.5071 -0.0466  0.0959
 7950TIP3    H223792   5.499   6.326   2.167 -2.3834 -0.2598 -0.4298
 7951TIP3   OH223793   2.955   7.281   5.666  0.3837 -0.3267  0.1102
 7951TIP3    H123794   3.020   7.247   5.727  0.6833 -0.7737 -0.4402
 7951TIP3    H223795   2.915   7.355   5.711  0.7249 -0.5385  0.7681
 7952TIP3   OH223796   2.925   3.683   3.014 -0.2202 -0.2089 -0.6344
 7952TIP3    H123797   2.858   3.712   2.952  0.6512  0.5471 -1.2545
 7952TIP3    H223798   2.995   3.749   3.007 -0.6387  0.6528  2.1257
 7953TIP3   OH223799   2.672   0.109   3.343  0.5113 -0.5354 -0.4226
 7953TIP3    H123800   2.707   0.139   3.427  2.0664 -0.3487 -1.0891
 7953TIP3    H223801   2.700   0.177   3.280 -1.3443 -0.2318 -0.9788
 7954TIP3   OH223802   6.898   5.546   6.253  0.3661  0.1069 -0.0494
 7954TIP3    H123803   6.969   5.481   6.247 -1.5016 -2.1993  0.9055
 7954TIP3    H223804   6.823   5.502   6.212 -0.4781  2.6270 -1.4100
 7955TIP3   OH223805   0.290   6.698   2.711 -0.5627  0.4201 -0.1158
 7955TIP3    H123806   0.208   6.683   2.758 -0.2448 -0.1201  0.2867
 7955TIP3    H223807   0.350   6.633   2.747  0.5674  1.9508  0.8635
 7956TIP3   OH223808   1.867   5.231   0.317 -0.2694 -0.0857 -0.3238
 7956TIP3    H123809   1.873   5.186   0.401  0.3290  1.7116  0.6432
 7956TIP3    H223810   1.949   5.278   0.309  0.0828 -0.9492 -2.3873
 7957TIP3   OH223811   2.377   3.915   5.819  0.3832  0.3134 -0.6157
 7957TIP3    H123812   2.456   3.904   5.873  0.5134  0.9012 -0.6774
 7957TIP3    H223813   2.310   3.946   5.880  0.2048 -0.1684 -0.5667
 7958TIP3   OH223814   8.077   1.630   2.851 -0.0847  0.5641  0.6337
 7958TIP3    H123815   8.090   1.694   2.920 -0.8446  1.4762 -0.0425
 7958TIP3    H223816   8.001   1.579   2.879  0.4402  0.0317  1.1086
 7959TIP3   OH223817   6.143   1.087   0.092  0.0939 -0.5157 -0.5202
 7959TIP3    H123818   6.224   1.061   0.047 -0.1332 -1.2938 -0.4881
 7959TIP3    H223819   6.118   1.169   0.050  0.6737 -0.4823 -0.8172
 7960TIP3   OH223820   2.170   5.355   5.158  0.8304  0.2053 -0.9018
 7960TIP3    H123821   2.219   5.275   5.173 -0.6851 -0.4624  0.8569
 7960TIP3    H223822   2.101   5.330   5.096 -2.3165 -1.2126  2.7023
 7961TIP3   OH223823   3.851   7.747   6.526 -0.0971  0.3193 -0.3594
 7961TIP3    H123824   3.872   7.696   6.604 -1.4821  2.7719  1.7797
 7961TIP3    H223825   3.936   7.776   6.493  0.4931 -0.3137  0.5517
 7962TIP3   OH223826   5.282   0.657   3.540 -0.4223 -0.2693 -0.3489
 7962TIP3    H123827   5.299   0.578   3.591 -1.2959  0.4342  1.0806
 7962TIP3    H223828   5.364   0.707   3.544 -0.3605 -0.4015  0.0382
 7963TIP3   OH223829   5.023   4.070   2.667  0.2008  0.2119 -0.3730
 7963TIP3    H123830   5.038   4.110   2.753 -1.1193  0.5042 -0.2653
 7963TIP3    H223831   5.094   4.006   2.658  0.1720 -0.0649  1.0812
 7964TIP3   OH223832   1.597   3.851   5.747 -0.1863 -0.5494  0.4863
 7964TIP3    H123833   1.619   3.915   5.814 -0.6546  0.7235 -0.5255
 7964TIP3    H223834   1.670   3.789   5.749  1.3953  1.1720  0.1182
 7965TIP3   OH223835   6.484   4.272   5.037  0.3845  0.0763  0.1075
 7965TIP3    H123836   6.570   4.313   5.047 -0.3089  1.3796  1.0794
 7965TIP3    H223837   6.464   4.281   4.944  1.3144 -0.3066 -0.1430
 7966TIP3   OH223838   6.913   0.628   4.036  0.1197 -0.1760  0.1232
 7966TIP3    H123839   6.866   0.630   3.953 -0.1320 -1.1799  0.2292
 7966TIP3    H223840   6.850   0.594   4.099  0.2414  0.7655  0.7905
 7967TIP3   OH223841   0.502   6.956   5.743  0.1724 -0.0126  0.4317
 7967TIP3    H123842   0.462   7.025   5.797 -1.9612 -1.3550  0.6769
 7967TIP3    H223843   0.494   6.877   5.796 -2.1183 -1.4105 -1.8202
 7968TIP3   OH223844   2.923   6.024   5.584  0.2958  0.1536 -0.2148
 7968TIP3    H123845   2.880   6.042   5.668 -0.5752 -0.9988 -0.3847
 7968TIP3    H223846   2.872   6.072   5.519 -0.7433 -1.1426 -0.4049
 7969TIP3   OH223847   1.097   2.652   3.270  0.7770 -0.2411 -0.1291
 7969TIP3    H123848   1.025   2.607   3.313 -0.0712  0.1829 -1.0664
 7969TIP3    H223849   1.168   2.650   3.334 -0.1368 -0.4532  0.9086
 7970TIP3   OH223850   6.334   0.389   0.263 -0.2153  0.3541 -0.1034
 7970TIP3    H123851   6.423   0.370   0.234  0.3246 -0.4760  1.9439
 7970TIP3    H223852   6.281   0.316   0.228  0.3327 -0.3723  0.5470
 7971TIP3   OH223853   7.570   7.677   5.959  0.7703  0.2395 -0.3081
 7971TIP3    H123854   7.567   7.688   6.054 -0.0795 -0.8043 -0.1956
 7971TIP3    H223855   7.540   7.587   5.944  0.5355  0.5091 -1.5913
 7972TIP3   OH223856   7.705   4.496   1.935  0.1279 -0.2649  0.3560
 7972TIP3    H123857   7.726   4.404   1.954  0.0449 -0.2691  0.4281
 7972TIP3    H223858   7.609   4.500   1.941  0.1543 -0.1074  0.6491
 7973TIP3   OH223859   7.854   1.205   6.311 -0.1910  0.0955  0.3980
 7973TIP3    H123860   7.772   1.157   6.319  1.0060 -1.9545  1.3470
 7973TIP3    H223861   7.830   1.297   6.324 -2.4282 -0.3469 -0.2632
 7974TIP3   OH223862   3.827   1.026   0.221  0.3808 -0.1424 -0.8154
 7974TIP3    H123863   3.843   0.932   0.216  0.1792 -0.2843  0.7554
 7974TIP3    H223864   3.894   1.059   0.282  0.0835  0.6376 -0.8955
 7975TIP3   OH223865   3.287   1.322   0.600  0.4492 -0.1056 -0.0110
 7975TIP3    H123866   3.198   1.357   0.610  0.0577 -1.0280 -0.1380
 7975TIP3    H223867   3.329   1.337   0.684  0.4565  1.0822 -0.2065
 7976TIP3   OH223868   3.024   7.532   4.133 -0.2868  0.2211  0.0254
 7976TIP3    H123869   3.013   7.437   4.142  1.5156  0.0193  0.4892
 7976TIP3    H223870   3.118   7.546   4.144  0.0659  1.6711 -3.4147
 7977TIP3   OH223871   5.545   6.898   5.211 -0.1349 -0.1068 -0.0387
 7977TIP3    H123872   5.470   6.868   5.262 -1.0234  0.1648 -1.1451
 7977TIP3    H223873   5.521   6.880   5.120  2.3513 -2.8113 -0.3449
 7978TIP3   OH223874   3.652   1.146   3.493 -0.4455  0.0745  0.2393
 7978TIP3    H123875   3.689   1.189   3.416  0.1046  0.2337  0.5840
 7978TIP3    H223876   3.710   1.071   3.509  0.5106  1.0429  1.5278
 7979TIP3   OH223877   4.478   4.554   5.903 -0.1743  0.1102  0.5106
 7979TIP3    H123878   4.447   4.465   5.916  1.9805 -0.6951  0.5734
 7979TIP3    H223879   4.514   4.555   5.814 -0.0355  0.8626  0.5662
 7980TIP3   OH223880   6.124   7.884   4.952  0.1306  0.3662  0.4092
 7980TIP3    H123881   6.115   7.978   4.935 -0.0189  0.3496  0.3937
 7980TIP3    H223882   6.211   7.875   4.990  1.4028  0.1564 -2.2833
 7981TIP3   OH223883   0.579   3.620   2.211 -0.1617 -0.2431 -0.2307
 7981TIP3    H123884   0.488   3.645   2.192 -0.0471  1.1692  0.9430
 7981TIP3    H223885   0.614   3.693   2.261  1.8021 -0.5303 -1.1060
 7982TIP3   OH223886   6.587   1.224   3.548 -0.1537 -0.4944  0.0041
 7982TIP3    H123887   6.653   1.155   3.556 -0.4414 -0.7184  0.4626
 7982TIP3    H223888   6.527   1.192   3.480  1.1314  0.4701 -1.6516
 7983TIP3   OH223889   4.145   6.073   1.589 -0.1386  0.3809 -0.3625
 7983TIP3    H123890   4.224   6.020   1.601 -0.2624  0.0010 -1.1675
 7983TIP3    H223891   4.138   6.123   1.670  1.1035  0.6590 -0.3992
 7984TIP3   OH223892   3.097   0.471   1.305  0.0427 -0.0164  1.0009
 7984TIP3    H123893   3.186   0.506   1.314 -0.0324 -0.1577  2.6667
 7984TIP3    H223894   3.053   0.533   1.248  1.9154 -1.3771 -2.1913
 7985TIP3   OH223895   6.231   2.911   4.728 -0.2352  0.0657 -0.2012
 7985TIP3    H123896   6.194   2.824   4.711 -0.6863 -0.0543  1.2815
 7985TIP3    H223897   6.157   2.963   4.759  0.1968  0.7736 -0.3271
 7986TIP3   OH223898   6.272   2.272   1.420 -0.2931 -0.2708  0.4516
 7986TIP3    H123899   6.230   2.348   1.380 -0.5239 -0.5081  0.2428
 7986TIP3    H223900   6.222   2.254   1.499  0.2391  0.2752  0.9233
 7987TIP3   OH223901   5.050   3.289   1.174  0.2887  0.6452  0.3455
 7987TIP3    H123902   4.966   3.314   1.211  0.0017 -0.4527  0.4878
 7987TIP3    H223903   5.111   3.295   1.247  0.3576  1.5018  0.2272
 7988TIP3   OH223904   3.452   3.081   2.437 -0.0793 -0.5645  0.4982
 7988TIP3    H123905   3.539   3.117   2.455  0.1981 -1.1668  0.3785
 7988TIP3    H223906   3.397   3.117   2.506  0.0958  0.4219  0.1427
 7989TIP3   OH223907   2.409   7.047   2.598  0.0012  0.2632 -0.4728
 7989TIP3    H123908   2.498   7.082   2.602  0.1463 -0.1771  0.9821
 7989TIP3    H223909   2.354   7.115   2.638 -0.0641 -0.1207  0.1153
 7990TIP3   OH223910   8.365   0.182   3.221 -0.1942 -0.6372  0.3247
 7990TIP3    H123911   8.436   0.135   3.265  0.5313 -1.2622 -1.4553
 7990TIP3    H223912   8.300   0.114   3.202 -0.4690 -0.3860  0.3667
 7991TIP3   OH223913   5.071   2.104   4.986 -0.1010 -0.2109  0.2088
 7991TIP3    H123914   5.123   2.183   4.971  0.4245 -0.6591 -0.4142
 7991TIP3    H223915   4.990   2.119   4.939  0.6268 -0.6717 -1.2458
 7992TIP3   OH223916   1.848   5.781   0.309  0.3368 -0.0672 -0.2970
 7992TIP3    H123917   1.790   5.813   0.240  0.8409 -0.5448 -0.9625
 7992TIP3    H223918   1.839   5.844   0.380 -0.7639  0.0189 -0.5041
 7993TIP3   OH223919   6.190   6.289   3.798  0.2072  0.2892  0.7584
 7993TIP3    H123920   6.095   6.300   3.804  0.3113  2.2747 -0.3855
 7993TIP3    H223921   6.203   6.194   3.787 -1.8998  0.2319 -2.3329
 7994TIP3   OH223922   5.182   2.491   1.101 -0.1639 -0.0439 -0.1360
 7994TIP3    H123923   5.173   2.430   1.174  0.6104 -0.1418 -0.1158
 7994TIP3    H223924   5.175   2.578   1.141  1.5854 -0.0567  0.2829
 7995TIP3   OH223925   6.068   4.009   4.890  0.4708  0.5045  0.1759
 7995TIP3    H123926   6.065   3.992   4.795 -1.4981 -1.3867  0.4792
 7995TIP3    H223927   5.999   4.073   4.905 -2.3657 -2.3848  0.7100
 7996TIP3   OH223928   6.311   1.842   1.327  0.6563 -0.9587  0.0715
 7996TIP3    H123929   6.320   1.918   1.270  0.6647  0.1074  1.4455
 7996TIP3    H223930   6.227   1.803   1.301  2.0257 -2.3896 -2.7666
 7997TIP3   OH223931   3.631   0.615   4.656  0.3635 -0.2568 -0.2107
 7997TIP3    H123932   3.675   0.656   4.581 -0.9074 -0.1366 -0.9226
 7997TIP3    H223933   3.657   0.523   4.652  0.6940 -0.1507 -0.5098
 7998TIP3   OH223934   7.385   1.762   4.744  0.4439  0.6788 -0.0762
 7998TIP3    H123935   7.357   1.676   4.776  0.5082  0.1366 -1.4314
 7998TIP3    H223936   7.468   1.745   4.699  0.0112  1.2974 -1.1244
 7999TIP3   OH223937   1.328   6.933   5.536 -0.3071 -0.1551  0.0138
 7999TIP3    H123938   1.279   7.012   5.515 -0.1114 -0.2738 -0.9216
 7999TIP3    H223939   1.417   6.964   5.555 -0.4733 -0.0530  0.6450
 8000TIP3   OH223940   4.685   1.038   6.110  0.1732  0.2940 -0.2254
 8000TIP3    H123941   4.668   1.127   6.080 -0.7639  0.1839 -0.0719
 8000TIP3    H223942   4.608   0.988   6.082  0.1185 -0.1971  0.7518
 8001TIP3   OH223943   1.009   2.344   5.570  0.0635  0.2104  0.5266
 8001TIP3    H123944   1.084   2.294   5.537 -0.7491  1.1009 -3.1350
 8001TIP3    H223945   0.936   2.282   5.566  0.0200  0.2005  1.2458
 8002TIP3   OH223946   0.526   3.679   6.247 -0.1688  0.2271  0.2943
 8002TIP3    H123947   0.461   3.609   6.245  0.9373 -0.8370 -2.1518
 8002TIP3    H223948   0.492   3.746   6.187 -0.4977  1.1588  1.4704
 8003TIP3   OH223949   5.828   7.593   3.412  0.4875  0.7838 -0.1136
 8003TIP3    H123950   5.906   7.585   3.356  0.5720 -0.1260  0.1290
 8003TIP3    H223951   5.859   7.641   3.489  0.9563 -0.0932  0.2532
 8004TIP3   OH223952   2.905   7.030   3.404 -0.2941 -0.2307  0.2391
 8004TIP3    H123953   2.985   6.991   3.439 -0.6924 -1.5853 -0.2851
 8004TIP3    H223954   2.910   7.122   3.429  1.7979 -0.1034 -0.4463
 8005TIP3   OH223955   6.469   7.600   4.390 -0.4320  0.0937 -0.5545
 8005TIP3    H123956   6.536   7.570   4.329  1.3842 -0.9622  1.7860
 8005TIP3    H223957   6.437   7.519   4.431 -0.6249  0.8406  0.8134
 8006TIP3   OH223958   3.381   3.415   2.476  0.5564  0.0760  0.7019
 8006TIP3    H123959   3.292   3.401   2.506  0.0864 -0.2520 -0.7692
 8006TIP3    H223960   3.434   3.352   2.527 -0.1464 -0.2204  1.0760
 8007TIP3   OH223961   6.357   1.421   4.496 -0.2671  0.1911  0.1404
 8007TIP3    H123962   6.270   1.424   4.536 -0.5125 -1.3182 -0.2255
 8007TIP3    H223963   6.407   1.489   4.542 -1.5418  0.8646  0.5633
 8008TIP3   OH223964   0.717   2.815   0.331 -0.1053 -0.0371 -0.3504
 8008TIP3    H123965   0.797   2.776   0.295 -0.4671 -0.6676 -0.4888
 8008TIP3    H223966   0.747   2.894   0.376  0.3644  0.7138 -1.9298
 8009TIP3   OH223967   3.814   3.312   1.767 -0.3520 -0.3850 -0.2967
 8009TIP3    H123968   3.733   3.286   1.722 -0.3128 -0.8480 -0.1091
 8009TIP3    H223969   3.819   3.252   1.842 -1.2139  1.3121  1.2132
 8010TIP3   OH223970   7.267   7.371   5.854  0.4681  0.1913  0.1403
 8010TIP3    H123971   7.356   7.381   5.888  0.9424 -0.4928 -0.8482
 8010TIP3    H223972   7.215   7.432   5.905  1.1412 -0.7588  2.0626
 8011TIP3   OH223973   4.707   3.575   6.494  0.4579  0.0485 -0.1229
 8011TIP3    H123974   4.715   3.480   6.489  1.5091  0.1395 -0.3260
 8011TIP3    H223975   4.632   3.590   6.552 -0.4074 -0.8990 -0.9617
 8012TIP3   OH223976   2.027   3.509   3.260 -0.1653  1.0800 -0.0310
 8012TIP3    H123977   1.934   3.529   3.272 -0.5427 -0.2231 -0.6085
 8012TIP3    H223978   2.048   3.449   3.330  0.3096  1.5229  0.2148
 8013TIP3   OH223979   2.664   4.413   6.196 -0.1522 -0.2316  0.6341
 8013TIP3    H123980   2.648   4.383   6.106  1.1272  2.1576 -0.4854
 8013TIP3    H223981   2.578   4.441   6.227 -0.3277  0.7250 -0.6073
 8014TIP3   OH223982   3.069   4.790   1.970 -0.6206  0.8589 -0.1542
 8014TIP3    H123983   3.055   4.708   1.922 -0.9942  0.9391 -0.1844
 8014TIP3    H223984   3.164   4.802   1.970 -0.5072  0.0558  0.4688
 8015TIP3   OH223985   6.286   5.274   2.303 -0.3001  0.0317  0.6197
 8015TIP3    H123986   6.308   5.344   2.365 -0.3927  0.4967  0.1322
 8015TIP3    H223987   6.242   5.318   2.231 -1.6575 -0.7206  0.9612
 8016TIP3   OH223988   0.866   6.508   0.614 -0.2443 -0.4094  0.0117
 8016TIP3    H123989   0.867   6.573   0.544 -0.5474  1.6028  1.7996
 8016TIP3    H223990   0.782   6.462   0.603 -0.9448  0.8646 -0.0770
 8017TIP3   OH223991   8.188   4.940   1.276 -0.6339  0.0561  0.1616
 8017TIP3    H123992   8.150   4.886   1.207  0.3048  0.6188 -0.8209
 8017TIP3    H223993   8.125   5.011   1.288 -1.4652 -0.7780  0.8696
 8018TIP3   OH223994   7.895   4.999   3.954  0.6866 -0.6132 -0.1267
 8018TIP3    H123995   7.918   4.961   3.869  0.3268  0.4323 -0.7141
 8018TIP3    H223996   7.882   5.092   3.936 -0.8556 -0.6176  0.7816
 8019TIP3   OH223997   1.001   3.064   4.026  0.4796 -0.5377 -0.0206
 8019TIP3    H123998   1.053   2.993   4.064 -1.2662 -2.0161 -0.2374
 8019TIP3    H223999   0.916   3.058   4.069 -0.7283 -0.6335 -2.2265
 8020TIP3   OH224000   3.363   0.050   4.379 -0.2978 -0.0462  0.3378
 8020TIP3    H124001   3.452   0.020   4.360 -0.5629  0.2307 -1.5153
 8020TIP3    H224002   3.375   0.130   4.431  0.6177  1.0038 -1.4013
 8021TIP3   OH224003   6.194   7.810   3.241 -0.0338 -0.1875 -0.6650
 8021TIP3    H124004   6.174   7.857   3.321 -0.8501 -0.1607 -0.8774
 8021TIP3    H224005   6.124   7.744   3.234 -0.0217 -0.1287 -1.3955
 8022TIP3   OH224006   1.196   0.473   5.381 -0.0983  0.6502  0.2165
 8022TIP3    H124007   1.169   0.561   5.408 -0.4751  0.7987 -0.6241
 8022TIP3    H224008   1.172   0.467   5.289 -1.3367 -0.8180  0.5864
 8023TIP3   OH224009   7.100   6.644   1.279  0.0524 -0.0082 -0.8916
 8023TIP3    H124010   7.051   6.626   1.359  0.1071 -1.1282 -1.0914
 8023TIP3    H224011   7.051   6.599   1.210 -0.6498  1.8938 -1.7051
 8024TIP3   OH224012   5.174   6.603   1.503 -0.1767  0.3994  0.4037
 8024TIP3    H124013   5.228   6.555   1.441 -1.7724 -0.5037 -0.3515
 8024TIP3    H224014   5.145   6.681   1.455 -0.8780  0.0365  0.2341
 8025TIP3   OH224015   2.462   7.402   0.364 -0.2947  0.0417  0.0975
 8025TIP3    H124016   2.393   7.447   0.412 -0.4334 -0.3091  0.2266
 8025TIP3    H224017   2.457   7.438   0.275 -1.6146 -1.0438 -0.2949
 8026TIP3   OH224018   5.092   2.796   4.210  0.1110  0.0925 -0.3643
 8026TIP3    H124019   5.057   2.798   4.121 -1.6234  1.2741  0.2891
 8026TIP3    H224020   5.053   2.873   4.253  3.2519  1.3107  0.5790
 8027TIP3   OH224021   4.194   2.425   1.519 -0.1467 -0.2426 -0.1977
 8027TIP3    H124022   4.244   2.381   1.450 -0.6804  1.3332 -1.6799
 8027TIP3    H224023   4.140   2.356   1.558  0.1762 -1.1797 -1.3542
 8028TIP3   OH224024   0.646   5.444   1.357  0.2674  0.8913  0.9280
 8028TIP3    H124025   0.701   5.452   1.278 -2.0906 -1.2652 -1.1271
 8028TIP3    H224026   0.584   5.516   1.351  0.3484  0.9707  1.0432
 8029TIP3   OH224027   0.042   4.958  -0.005  0.8118  0.1896  0.6960
 8029TIP3    H124028   0.102   4.957   0.070  0.7082 -0.9270  0.7842
 8029TIP3    H224029   0.067   4.882  -0.057  0.9454  1.0059 -0.4749
 8030TIP3   OH224030   0.715   2.165   6.120  0.0744 -0.1130 -0.2719
 8030TIP3    H124031   0.788   2.208   6.076  0.2031 -0.9797 -0.9449
 8030TIP3    H224032   0.717   2.075   6.087 -1.0299 -0.2665  0.0351
 8031TIP3   OH224033   3.469   3.702   5.567  0.4438 -0.4988 -0.3456
 8031TIP3    H124034   3.510   3.632   5.517 -0.4208 -0.3180 -1.3178
 8031TIP3    H224035   3.387   3.665   5.599  0.4098 -0.2161 -0.0963
 8032TIP3   OH224036   4.549   7.480   6.049 -0.8341  0.0830  0.3755
 8032TIP3    H124037   4.480   7.499   6.112  0.4684  1.6603  1.3906
 8032TIP3    H224038   4.587   7.397   6.078 -2.8615 -1.3244 -0.7644
 8033TIP3   OH224039   1.585   0.518   2.557  0.2140 -0.0675 -0.4580
 8033TIP3    H124040   1.549   0.607   2.555  0.4889  0.1141  0.9919
 8033TIP3    H224041   1.538   0.471   2.488 -1.7627  0.5500  0.3836
 8034TIP3   OH224042   8.072   7.492   4.060 -0.3310  0.4307 -0.4060
 8034TIP3    H124043   8.151   7.489   4.008 -0.5905  1.3445 -0.8910
 8034TIP3    H224044   8.009   7.437   4.014  0.2304 -0.9118  0.3864
 8035TIP3   OH224045   5.163   5.840   0.640  0.3995 -0.4163  0.0382
 8035TIP3    H124046   5.119   5.768   0.684  1.0294  0.2602  1.8880
 8035TIP3    H224047   5.105   5.863   0.567 -1.5032 -0.6079  1.4121
 8036TIP3   OH224048   5.939   1.164   0.858 -0.0849  0.6704 -0.2151
 8036TIP3    H124049   5.931   1.207   0.773  1.2780 -0.7229 -1.0898
 8036TIP3    H224050   5.869   1.099   0.859  1.0854 -0.6646 -1.1543
 8037TIP3   OH224051   1.853   6.578   6.423 -0.3555 -0.1098  0.2858
 8037TIP3    H124052   1.794   6.583   6.348  2.0060 -1.3499 -1.8311
 8037TIP3    H224053   1.797   6.558   6.497 -2.8006  0.9879 -1.1622
 8038TIP3   OH224054   4.266   4.659   4.469 -0.3860  0.6960 -0.2937
 8038TIP3    H124055   4.240   4.654   4.377 -0.5153  0.3272 -0.2410
 8038TIP3    H224056   4.303   4.746   4.479  2.5212 -0.2474 -1.5011
 8039TIP3   OH224057   5.966   6.793   6.727  0.4014 -0.2959 -0.1130
 8039TIP3    H124058   5.999   6.823   6.642 -0.8725  0.0961 -0.4893
 8039TIP3    H224059   5.949   6.874   6.776 -2.6272 -0.3148 -0.9667
 8040TIP3   OH224060   5.946   6.790   4.811 -0.0091 -0.1402 -0.5528
 8040TIP3    H124061   6.005   6.717   4.791  0.5676  0.3779 -0.7925
 8040TIP3    H224062   6.000   6.868   4.798  0.3937  0.3057  2.8059
 8041TIP3   OH224063   5.107   6.918   6.859 -0.0764  0.8477  0.0983
 8041TIP3    H124064   5.165   6.866   6.804 -0.1415  2.1351 -1.2421
 8041TIP3    H224065   5.064   6.978   6.799 -0.8314  1.7069  1.4422
 8042TIP3   OH224066   3.188   4.097   4.909 -0.0925  0.2147 -0.2915
 8042TIP3    H124067   3.096   4.121   4.900 -0.5262 -1.4386 -0.5078
 8042TIP3    H224068   3.226   4.114   4.822 -0.1754  0.9548 -0.1845
 8043TIP3   OH224069   0.741   0.631   6.823 -0.1031  0.0810 -0.4372
 8043TIP3    H124070   0.801   0.689   6.776 -0.2105  0.7591  0.2317
 8043TIP3    H224071   0.663   0.627   6.767 -0.4709  1.3750 -0.0495
 8044TIP3   OH224072   2.396   6.035   0.465  0.1968  0.2165 -0.0500
 8044TIP3    H124073   2.488   6.047   0.440  0.1982 -0.5097 -0.4043
 8044TIP3    H224074   2.347   6.046   0.384  0.1152 -1.0621 -0.1907
 8045TIP3   OH224075   6.639   0.670   2.638 -0.1245 -0.0939 -0.6745
 8045TIP3    H124076   6.703   0.712   2.580  1.5416  0.8512  1.6999
 8045TIP3    H224077   6.691   0.611   2.692 -1.3718  0.0895  0.7874
 8046TIP3   OH224078   5.796   1.051   0.144 -0.3881 -0.5357 -0.7643
 8046TIP3    H124079   5.817   0.984   0.209  2.5898 -0.3429 -1.3510
 8046TIP3    H224080   5.850   1.126   0.170 -2.6638  1.2405 -0.8598
 8047TIP3   OH224081   1.622   6.718   3.671  0.1866 -0.3142 -0.5911
 8047TIP3    H124082   1.601   6.749   3.583 -0.0393  0.6349 -0.2165
 8047TIP3    H224083   1.620   6.622   3.665  1.2904 -0.2756 -1.8785
 8048TIP3   OH224084   6.561   2.121   6.427 -0.5827 -0.3207  0.4871
 8048TIP3    H124085   6.527   2.181   6.361  0.9243 -2.5544 -2.5620
 8048TIP3    H224086   6.601   2.179   6.493 -2.7430  2.0352 -0.1092
 8049TIP3   OH224087   1.409   5.201   3.378 -0.6052 -0.1456 -0.2967
 8049TIP3    H124088   1.420   5.147   3.299  1.2153 -0.0787 -0.1307
 8049TIP3    H224089   1.466   5.276   3.363  0.8451 -0.7930  1.6363
 8050TIP3   OH224090   4.630   7.465   3.918 -0.2633  0.0733  0.0692
 8050TIP3    H124091   4.622   7.453   4.012  1.3092 -0.9140  0.1176
 8050TIP3    H224092   4.718   7.503   3.906 -0.2926 -0.1613 -1.0102
 8051TIP3   OH224093   0.880   5.463   2.400 -0.0096 -0.2242 -0.0044
 8051TIP3    H124094   0.854   5.474   2.492 -1.0189 -0.4320 -0.2534
 8051TIP3    H224095   0.801   5.481   2.350  0.5974  0.1513 -0.8629
 8052TIP3   OH224096   6.167   0.882   2.110  0.1903  0.0475  0.6395
 8052TIP3    H124097   6.217   0.825   2.170  0.0976  2.3764  3.1334
 8052TIP3    H224098   6.087   0.834   2.092  1.3582 -1.8430  0.1934
 8053TIP3   OH224099   2.491   6.835   0.843  0.1136  0.7952 -0.4157
 8053TIP3    H124100   2.416   6.821   0.900 -1.1129  5.0877 -0.6163
 8053TIP3    H224101   2.458   6.821   0.754 -0.3274  2.0571 -0.4659
 8054TIP3   OH224102   0.888   0.546   6.386  0.2446  0.1139 -0.0014
 8054TIP3    H124103   0.906   0.454   6.367 -1.5269 -0.3649  0.4536
 8054TIP3    H224104   0.813   0.544   6.446  0.0436  1.8610 -0.1336
 8055TIP3   OH224105   5.515   5.012   1.076 -0.1004 -0.1408  0.0808
 8055TIP3    H124106   5.448   5.018   1.007  0.6331 -1.0101 -0.7420
 8055TIP3    H224107   5.579   5.078   1.053  0.1406 -0.4261 -0.0761
 8056TIP3   OH224108   4.012   4.301   1.959 -0.0430  0.2085  0.3725
 8056TIP3    H124109   3.989   4.316   2.051  1.1652 -0.9860  0.9089
 8056TIP3    H224110   4.108   4.300   1.959 -0.0381 -0.1988 -0.8274
 8057TIP3   OH224111   8.298   6.793   6.704 -0.2297  0.1335 -0.1609
 8057TIP3    H124112   8.393   6.803   6.715 -0.6511  2.9336  2.2032
 8057TIP3    H224113   8.283   6.699   6.712  2.4360 -0.5799 -2.1432
 8058TIP3   OH224114   0.269   6.107   4.235  0.2070  0.7351 -0.3727
 8058TIP3    H124115   0.245   6.019   4.207 -0.2726  0.2266  1.4806
 8058TIP3    H224116   0.364   6.104   4.242  0.1209 -0.0118  0.7522
 8059TIP3   OH224117   2.760   1.209   5.985  0.0479 -0.0939  0.8962
 8059TIP3    H124118   2.684   1.248   6.030  0.5878 -0.1557  1.8986
 8059TIP3    H224119   2.731   1.199   5.895 -1.4919 -0.9881  1.4435
 8060TIP3   OH224120   2.344   4.101   1.295  0.0216 -0.7825 -0.2387
 8060TIP3    H124121   2.403   4.037   1.333  2.1238  1.1414 -0.0625
 8060TIP3    H224122   2.280   4.119   1.364  2.6954  1.3208  1.8779
 8061TIP3   OH224123   0.418   1.413   2.527 -0.7965  0.4574  0.0413
 8061TIP3    H124124   0.378   1.330   2.553 -1.1942  0.5395 -0.2919
 8061TIP3    H224125   0.460   1.445   2.606 -0.2029 -0.3080  0.0456
 8062TIP3   OH224126   6.210   6.786   2.094  0.2928 -0.5554  0.3552
 8062TIP3    H124127   6.228   6.811   2.184  2.4395  0.9479 -0.4016
 8062TIP3    H224128   6.283   6.729   2.070  0.6651  0.4021 -0.8980
 8063TIP3   OH224129   1.024   3.374   0.438 -0.5027  0.0569 -0.1917
 8063TIP3    H124130   0.993   3.360   0.348  0.3112  1.6169 -0.7701
 8063TIP3    H224131   1.005   3.467   0.455 -0.1505 -0.0816  1.0562
 8064TIP3   OH224132   7.321   4.904   6.705  0.2269 -0.0512  0.1423
 8064TIP3    H124133   7.295   4.833   6.764 -0.0331 -0.5213 -0.5222
 8064TIP3    H224134   7.302   4.984   6.754 -1.1859 -0.4052  0.2126
 8065TIP3   OH224135   0.026   4.966   0.982  0.6598 -0.1124 -0.3868
 8065TIP3    H124136  -0.058   4.961   0.937 -0.0492 -1.2979  0.9705
 8065TIP3    H224137   0.039   4.878   1.018  1.1851  0.7153  1.6152
 8066TIP3   OH224138   3.375   1.143   3.543 -0.0693 -0.4314  0.6809
 8066TIP3    H124139   3.321   1.203   3.493 -0.3804 -1.9442 -0.9076
 8066TIP3    H224140   3.455   1.134   3.493  1.0732  0.6027  2.2341
 8067TIP3   OH224141   1.818   6.264   3.735 -0.3405 -0.3137 -0.0547
 8067TIP3    H124142   1.796   6.172   3.720  1.7967 -0.7352 -1.0576
 8067TIP3    H224143   1.906   6.261   3.772 -1.1982  1.2636  2.3171
 8068TIP3   OH224144   0.753   0.626   6.140 -0.1362  0.1637 -0.1810
 8068TIP3    H124145   0.692   0.562   6.177 -0.8415  1.5333  1.1259
 8068TIP3    H224146   0.819   0.640   6.208  0.1943  0.5766 -0.5781
 8069TIP3   OH224147   0.847   0.055   3.956 -0.1198  0.2216  0.2615
 8069TIP3    H124148   0.861  -0.000   3.879  0.8587 -0.2628  0.7745
 8069TIP3    H224149   0.759   0.092   3.943 -0.1188 -0.1469 -0.8947
 8070TIP3   OH224150   0.335   6.908   0.281 -0.0560 -0.3584 -0.5651
 8070TIP3    H124151   0.302   6.839   0.223  2.2370 -0.8916 -1.3570
 8070TIP3    H224152   0.334   6.987   0.227  0.2743 -0.4486 -0.7055
 8071TIP3   OH224153   7.588   6.477   4.502 -0.0441  0.2920 -0.4071
 8071TIP3    H124154   7.616   6.386   4.487  0.7376  0.2746  0.9502
 8071TIP3    H224155   7.653   6.530   4.458  1.4673  0.2208  1.5884
 8072TIP3   OH224156   8.401   1.226   2.161  0.1332  0.1821 -0.3904
 8072TIP3    H124157   8.451   1.165   2.107  1.5128  1.0539 -0.1620
 8072TIP3    H224158   8.346   1.274   2.098 -0.6800 -0.9941 -0.6117
 8073TIP3   OH224159   7.488   5.785   1.105 -0.1368  0.3657  0.2263
 8073TIP3    H124160   7.567   5.750   1.064  1.8943  1.5932  2.8409
 8073TIP3    H224161   7.471   5.866   1.057  0.3294  0.2257 -0.1925
 8074TIP3   OH224162   0.854   7.785   0.103 -0.1825 -0.2970 -0.3533
 8074TIP3    H124163   0.871   7.705   0.152 -2.3838  0.7529  2.3233
 8074TIP3    H224164   0.769   7.770   0.061 -1.1630  0.9465  1.0781
 8075TIP3   OH224165   7.264   1.723   3.157  0.1783  0.2835 -0.3613
 8075TIP3    H124166   7.309   1.647   3.194  1.1930  1.1540  0.2436
 8075TIP3    H224167   7.173   1.712   3.184  0.1757 -1.0352 -0.8228
 8076TIP3   OH224168   1.174   1.559   0.030 -0.1097  0.6790  0.7287
 8076TIP3    H124169   1.193   1.601  -0.053  1.5215  1.6917  1.5591
 8076TIP3    H224170   1.259   1.555   0.075 -1.0435  0.7224  2.5874
 8077TIP3   OH224171   7.744   4.738   3.873 -0.0251 -0.1335  0.8403
 8077TIP3    H124172   7.732   4.768   3.782 -0.0741  0.0723  0.9126
 8077TIP3    H224173   7.764   4.645   3.865  0.8303  0.0703  0.5713
 8078TIP3   OH224174   0.735   2.810   5.542  0.0706  0.5682  0.1991
 8078TIP3    H124175   0.820   2.801   5.585 -0.4350  0.0267  1.1280
 8078TIP3    H224176   0.708   2.900   5.560  1.0762  1.2149 -1.3429
 8079TIP3   OH224177   7.106   7.625   4.123 -0.3771  0.0475  0.0111
 8079TIP3    H124178   7.113   7.719   4.139 -1.8235  0.6354 -2.2282
 8079TIP3    H224179   7.111   7.585   4.210  1.4538  2.0581  0.9325
 8080TIP3   OH224180   0.580   3.360   2.582 -0.6370 -0.2990 -0.8212
 8080TIP3    H124181   0.590   3.404   2.666  1.0390 -1.3062 -0.4371
 8080TIP3    H224182   0.508   3.298   2.595  1.0844 -2.1269  0.7076
 8081TIP3   OH224183   2.086   0.875   4.869  0.4308  0.2831  0.6362
 8081TIP3    H124184   2.177   0.905   4.872  1.3202 -1.9457 -1.1758
 8081TIP3    H224185   2.055   0.903   4.782 -0.2074 -0.0751  0.7445
 8082TIP3   OH224186   0.478   6.532   2.868 -0.8518 -0.1621 -0.6978
 8082TIP3    H124187   0.468   6.543   2.963 -2.1035  1.0947 -0.9423
 8082TIP3    H224188   0.572   6.544   2.853 -0.9850  2.5128  0.0881
 8083TIP3   OH224189   6.940   3.239   5.480  0.0411  0.0454  0.5450
 8083TIP3    H124190   6.953   3.210   5.390  1.3060 -1.4539  1.1653
 8083TIP3    H224191   7.027   3.264   5.511 -0.8061  3.6774  0.4195
 8084TIP3   OH224192   5.520   2.443   2.799 -0.1200 -0.2348  0.4126
 8084TIP3    H124193   5.470   2.521   2.824  0.3505 -0.4225  2.0643
 8084TIP3    H224194   5.585   2.433   2.869  1.9340 -0.2808 -1.3965
 8085TIP3   OH224195   8.235   6.917   3.016 -0.3409  0.4557 -0.1635
 8085TIP3    H124196   8.142   6.941   3.013 -0.3149  0.8179  1.2449
 8085TIP3    H224197   8.236   6.825   3.041 -0.3150  0.5178  0.0647
 8086TIP3   OH224198   0.894   2.757   1.313 -0.4231  0.4408 -0.1713
 8086TIP3    H124199   0.861   2.810   1.386 -0.9679  1.8296 -1.3659
 8086TIP3    H224200   0.843   2.786   1.238 -0.2689 -1.3645 -1.0116
 8087TIP3   OH224201   1.115   0.886   2.802 -0.3304 -0.4865  0.0832
 8087TIP3    H124202   1.180   0.815   2.804  0.3743  0.1138 -0.9554
 8087TIP3    H224203   1.047   0.857   2.863 -0.8519 -2.8072 -1.4544
 8088TIP3   OH224204   7.116   3.137   3.775  0.1932 -0.5594 -0.5363
 8088TIP3    H124205   7.211   3.147   3.775  0.0815  0.8753  0.6188
 8088TIP3    H224206   7.101   3.044   3.790  1.4315 -0.4548  1.6560
 8089TIP3   OH224207   0.985   0.271   6.310  0.0765  0.1085 -0.1374
 8089TIP3    H124208   1.047   0.303   6.375  2.3113 -0.9807 -1.6169
 8089TIP3    H224209   1.033   0.273   6.227 -1.1296 -2.7390 -1.0458
 8090TIP3   OH224210   2.615   1.633   2.767 -0.3166 -0.2300  0.3243
 8090TIP3    H124211   2.570   1.683   2.835 -1.9638  0.7745 -1.4172
 8090TIP3    H224212   2.597   1.541   2.789  0.6596 -0.0336  2.1652
 8091TIP3   OH224213   7.715   6.864   1.656  0.2137 -0.6273  0.0013
 8091TIP3    H124214   7.799   6.838   1.617  0.0885 -1.0961  0.0433
 8091TIP3    H224215   7.726   6.957   1.675  0.2572 -0.3514 -1.2390
 8092TIP3   OH224216   6.423   2.944   0.822  0.0504  0.3955 -0.2193
 8092TIP3    H124217   6.369   2.865   0.821  0.5108  0.0470  1.1437
 8092TIP3    H224218   6.452   2.952   0.912  1.7431  0.9388 -0.7816
 8093TIP3   OH224219   0.533   1.046   6.695 -0.7619 -0.1341 -0.2211
 8093TIP3    H124220   0.485   1.039   6.613 -0.7277 -1.9109 -0.1192
 8093TIP3    H224221   0.516   1.136   6.725 -0.4756  0.6752 -2.3224
 8094TIP3   OH224222   7.885   7.159   3.233 -0.7603 -0.3362 -0.2289
 8094TIP3    H124223   7.836   7.080   3.210  1.4011 -1.3495 -1.6834
 8094TIP3    H224224   7.898   7.204   3.150 -0.2737  0.5463  0.3099
 8095TIP3   OH224225   1.227   3.816   0.473  0.6087  0.6133 -0.1136
 8095TIP3    H124226   1.285   3.857   0.538 -0.5164  0.7354  0.8436
 8095TIP3    H224227   1.146   3.867   0.478  0.6765  0.9818 -2.0282
 8096TIP3   OH224228   3.980   6.148   4.230 -0.5629  0.3764  0.2394
 8096TIP3    H124229   3.898   6.149   4.280  0.1116  1.5785  1.4169
 8096TIP3    H224230   4.016   6.060   4.244 -0.4117  0.6653  1.9045
 8097TIP3   OH224231   3.977   6.633   3.774 -0.4095  0.5641  0.1710
 8097TIP3    H124232   4.019   6.656   3.857 -1.9255  0.8267  0.8983
 8097TIP3    H224233   3.916   6.705   3.757 -1.1107 -0.1596 -0.4568
 8098TIP3   OH224234   4.263   5.040   0.016  0.1320  0.2768 -0.1574
 8098TIP3    H124235   4.346   5.012   0.055  0.0997  0.7192  0.2447
 8098TIP3    H224236   4.247   4.977  -0.054  1.0584  0.4695 -0.5693
 8099TIP3   OH224237   7.431   7.255   0.502  0.3235  0.0531  0.2663
 8099TIP3    H124238   7.422   7.305   0.583 -1.6314  1.3593 -0.6635
 8099TIP3    H224239   7.345   7.216   0.488  1.0961 -1.4984 -0.3537
 8100TIP3   OH224240   5.647   5.841   4.256  0.0366  0.1656  0.1615
 8100TIP3    H124241   5.708   5.910   4.231 -0.5112  0.9194  0.8734
 8100TIP3    H224242   5.577   5.846   4.191  0.1873  0.0132 -0.0151
 8101TIP3   OH224243   6.339   3.468   6.365  0.8117  0.3809  0.3338
 8101TIP3    H124244   6.341   3.506   6.453 -0.9028  0.3301  0.4186
 8101TIP3    H224245   6.295   3.532   6.311  1.5302  0.2486 -0.4326
 8102TIP3   OH224246   0.176   1.539   2.484  0.2413  0.1445 -0.2813
 8102TIP3    H124247   0.269   1.522   2.467  0.5258  0.2030  1.1062
 8102TIP3    H224248   0.134   1.454   2.470  0.7045 -0.1954  0.3100
 8103TIP3   OH224249   8.159   3.632   4.886  0.0729 -0.5005  0.5022
 8103TIP3    H124250   8.239   3.651   4.934  0.1238  0.7798 -0.0536
 8103TIP3    H224251   8.157   3.697   4.816  0.1495 -2.4801 -1.4369
 8104TIP3   OH224252   3.680   3.541   0.401  0.1770  0.2981  0.2649
 8104TIP3    H124253   3.732   3.469   0.435 -1.0789 -1.8709 -2.0096
 8104TIP3    H224254   3.728   3.572   0.324  0.1037  1.0972  0.5257
 8105TIP3   OH224255   0.632   1.803   6.657  0.8535 -1.3844 -0.0388
 8105TIP3    H124256   0.637   1.775   6.748  0.0697 -0.9261  0.1543
 8105TIP3    H224257   0.583   1.733   6.613 -0.3801 -0.7324  0.2745
 8106TIP3   OH224258   2.943   7.528   4.884 -0.7300  0.5194  0.0443
 8106TIP3    H124259   2.970   7.494   4.799 -1.5481  4.0341 -1.7944
 8106TIP3    H224260   2.998   7.605   4.898 -1.1030  0.4475  2.4109
 8107TIP3   OH224261   5.554   1.054   5.061 -0.3460  0.7900  0.2007
 8107TIP3    H124262   5.479   1.000   5.034 -0.2368  0.5126  0.4473
 8107TIP3    H224263   5.547   1.133   5.007 -0.6696  0.6536  0.0383
 8108TIP3   OH224264   2.805   6.255   1.479  0.5506 -0.0213  0.1407
 8108TIP3    H124265   2.848   6.202   1.412 -1.7751 -1.7972 -0.0799
 8108TIP3    H224266   2.832   6.216   1.562 -0.4836 -1.0906  0.0051
 8109TIP3   OH224267   6.454   6.797   6.581  0.9927  0.8557  0.3121
 8109TIP3    H124268   6.531   6.745   6.560 -0.8609 -1.8817 -0.2231
 8109TIP3    H224269   6.411   6.811   6.496 -0.0986  0.5984  0.8091
 8110TIP3   OH224270   5.515   6.757   6.857  0.1215  0.4108  0.1455
 8110TIP3    H124271   5.437   6.715   6.820  0.8282 -0.3450 -0.5328
 8110TIP3    H224272   5.587   6.725   6.802  0.9982  0.5325  1.1998
 8111TIP3   OH224273   5.663   7.539   5.615 -0.6347  0.0117  0.4508
 8111TIP3    H124274   5.667   7.601   5.687  2.1265 -0.0918  0.4803
 8111TIP3    H224275   5.581   7.491   5.629 -0.6572  0.6593  2.9126
 8112TIP3   OH224276   6.701   3.915   4.283  0.3414 -0.9100 -0.8118
 8112TIP3    H124277   6.609   3.890   4.272  0.1871 -0.1766 -1.2717
 8112TIP3    H224278   6.748   3.832   4.289 -0.5545 -1.3313  1.4135
 8113TIP3   OH224279   7.736   1.071   5.062 -0.3422  0.0269 -0.5407
 8113TIP3    H124280   7.711   1.064   4.970 -0.4118  0.9715 -0.6029
 8113TIP3    H224281   7.691   0.998   5.104  0.0980 -0.7175 -1.3362
 8114TIP3   OH224282   2.171   1.624   3.770  0.0870  0.1667  0.6015
 8114TIP3    H124283   2.210   1.685   3.832 -1.9313  2.4922 -0.2625
 8114TIP3    H224284   2.223   1.544   3.779  2.6240  1.8481  2.0614
 8115TIP3   OH224285   7.912   3.777   2.566  0.1561  0.3309 -0.6257
 8115TIP3    H124286   7.845   3.783   2.634 -1.1481  0.3714 -1.8477
 8115TIP3    H224287   7.936   3.868   2.548 -0.7947  0.4425 -1.4131
 8116TIP3   OH224288   3.516   5.571   1.834 -1.0850 -0.0865  0.5332
 8116TIP3    H124289   3.464   5.537   1.762 -1.8390  1.5737  0.2345
 8116TIP3    H224290   3.473   5.539   1.913 -0.8353 -1.0948  0.2737
 8117TIP3   OH224291   6.828   7.486   3.838  0.2115 -0.3970 -0.3965
 8117TIP3    H124292   6.908   7.524   3.802  0.2762 -0.4706 -0.3314
 8117TIP3    H224293   6.835   7.392   3.817  0.6754 -0.6016  0.5856
 8118TIP3   OH224294   6.528   5.839   1.393  0.3073 -0.1235 -0.5039
 8118TIP3    H124295   6.613   5.839   1.347  1.4376  1.7720  1.3940
 8118TIP3    H224296   6.550   5.820   1.484 -1.2206  0.9908  0.1306
 8119TIP3   OH224297   5.254   1.327   0.460  0.0274  0.2513 -0.4777
 8119TIP3    H124298   5.221   1.280   0.536  1.2124  0.5888  0.2656
 8119TIP3    H224299   5.331   1.277   0.432  1.0957  1.5164  0.1073
 8120TIP3   OH224300   0.736   0.970   5.450  0.6982 -0.0626  0.2326
 8120TIP3    H124301   0.684   0.982   5.530 -0.7317  0.1902 -0.6983
 8120TIP3    H224302   0.726   1.053   5.403  0.7265 -0.5519 -0.6538
 8121TIP3   OH224303   5.649   7.205   1.907 -0.1184 -0.0683 -0.2835
 8121TIP3    H124304   5.648   7.143   1.833  0.0800 -0.1028 -0.2566
 8121TIP3    H224305   5.570   7.183   1.957 -0.1126 -0.2206 -0.3398
 8122TIP3   OH224306   5.554   4.921   4.868 -0.4392  0.3588  0.0284
 8122TIP3    H124307   5.579   4.982   4.937  2.2817 -0.8625  0.2435
 8122TIP3    H224308   5.600   4.951   4.790 -0.0642 -0.6831 -0.1735
 8123TIP3   OH224309   3.259   2.424   4.114 -0.2522 -0.2711 -0.5243
 8123TIP3    H124310   3.318   2.472   4.172 -1.8963  0.4921  0.5972
 8123TIP3    H224311   3.236   2.488   4.046  0.2415 -0.5838 -0.9897
 8124TIP3   OH224312   7.410   2.066   4.742 -0.1163  0.1311  0.3043
 8124TIP3    H124313   7.391   1.973   4.756 -0.3352  0.1831  0.3637
 8124TIP3    H224314   7.482   2.067   4.679 -0.5644 -0.0679 -0.2193
 8125TIP3   OH224315   3.618   5.485   4.095  0.1987 -0.0864 -0.1293
 8125TIP3    H124316   3.525   5.507   4.084  0.6079  1.2533 -1.1944
 8125TIP3    H224317   3.662   5.531   4.024  1.7614 -0.2502  0.6915
 8126TIP3   OH224318   4.943   5.219   6.482 -0.1662 -1.3457 -0.4456
 8126TIP3    H124319   4.985   5.299   6.513 -2.8951  0.3179 -0.7173
 8126TIP3    H224320   5.001   5.185   6.414 -0.5603  2.4477 -2.9559
 8127TIP3   OH224321   8.025   0.099   0.057 -0.1989  0.0438  0.2816
 8127TIP3    H124322   8.072   0.176   0.090 -0.1723  1.1111 -2.0540
 8127TIP3    H224323   7.954   0.086   0.120  1.6760 -0.0613  2.5004
 8128TIP3   OH224324   5.847   5.036   4.019  0.2394  0.4276  0.8486
 8128TIP3    H124325   5.923   5.025   3.963 -1.3040 -1.3692 -1.0590
 8128TIP3    H224326   5.846   4.958   4.074 -1.8551 -1.2854 -1.3864
 8129TIP3   OH224327   1.634   1.616   1.837 -0.8568  0.2717 -0.4565
 8129TIP3    H124328   1.587   1.692   1.804 -0.7113  0.4808 -0.1823
 8129TIP3    H224329   1.572   1.573   1.896 -0.2781  1.2467  0.8953
 8130TIP3   OH224330   1.886   4.547   5.540 -0.0220 -0.5690 -0.0492
 8130TIP3    H124331   1.867   4.474   5.481 -1.3142 -1.6912  1.6861
 8130TIP3    H224332   1.936   4.509   5.611 -0.9856  0.1535  1.0485
 8131TIP3   OH224333   5.797   5.084   3.524  0.1745  0.1843 -0.4699
 8131TIP3    H124334   5.861   5.017   3.551 -0.7679 -0.7578 -0.5246
 8131TIP3    H224335   5.768   5.123   3.606 -0.1397 -0.2964 -0.3471
 8132TIP3   OH224336   2.775   6.678   4.827 -0.0254 -0.3272 -0.3694
 8132TIP3    H124337   2.751   6.709   4.915  2.3146  3.0741 -0.7350
 8132TIP3    H224338   2.700   6.701   4.773 -0.4422 -0.0851  0.2915
 8133TIP3   OH224339   5.456   1.575   5.832 -0.3118  0.3118  0.0147
 8133TIP3    H124340   5.379   1.620   5.796  1.4582  1.3685 -2.7819
 8133TIP3    H224341   5.429   1.484   5.841 -1.9422  0.6748 -0.8081
 8134TIP3   OH224342   6.223   5.673   1.167 -0.0941  0.2933  0.0835
 8134TIP3    H124343   6.257   5.657   1.255 -0.1222  0.3072  0.0970
 8134TIP3    H224344   6.298   5.661   1.110 -0.6209 -2.5481 -0.1822
 8135TIP3   OH224345   1.392   7.409   5.269 -0.0856  0.1010  0.5554
 8135TIP3    H124346   1.486   7.413   5.282 -0.0831  0.3213  0.4719
 8135TIP3    H224347   1.356   7.388   5.356  0.1463 -1.6286  0.2793
 8136TIP3   OH224348   0.787   2.217   6.559  0.3526 -0.2110 -0.3890
 8136TIP3    H124349   0.809   2.274   6.486  1.9602  2.8840  2.2383
 8136TIP3    H224350   0.731   2.270   6.615  1.0024 -1.5916  1.6948
 8137TIP3   OH224351   0.444   3.797   5.657 -0.2381 -0.0834  0.0147
 8137TIP3    H124352   0.479   3.819   5.744  1.0040  1.4330 -0.8195
 8137TIP3    H224353   0.350   3.788   5.672 -0.0219 -0.1440  1.5684
 8138TIP3   OH224354   3.936   6.838   0.224  0.0922  0.1641  0.1136
 8138TIP3    H124355   4.003   6.814   0.160  0.7210 -2.1651  1.5318
 8138TIP3    H224356   3.982   6.836   0.308 -1.7281 -1.5816  1.1349
 8139TIP3   OH224357   2.271   1.381   2.735 -0.1705 -0.4091  0.3646
 8139TIP3    H124358   2.294   1.322   2.806  2.3403  1.4816  1.2725
 8139TIP3    H224359   2.317   1.346   2.658  2.2469  0.8067  1.1451
 8140TIP3   OH224360   2.571   5.171   5.591  0.3528 -0.3534  0.3604
 8140TIP3    H124361   2.546   5.106   5.656 -0.6545  1.3154  1.7314
 8140TIP3    H224362   2.488   5.202   5.555  0.8581 -0.4907 -0.9822
 8141TIP3   OH224363   6.117   7.121   2.229  0.0446  0.0663 -0.1592
 8141TIP3    H124364   6.034   7.130   2.183 -0.0096  0.7654  0.0735
 8141TIP3    H224365   6.183   7.129   2.160 -0.0610  0.2111 -0.2450
 8142TIP3   OH224366   2.717   1.392   1.168 -0.1798 -0.3150  0.1821
 8142TIP3    H124367   2.622   1.392   1.175 -0.1854  1.6204  0.6843
 8142TIP3    H224368   2.748   1.353   1.250 -0.5365  0.5573  0.7408
 8143TIP3   OH224369   6.531   0.303   3.508 -0.5060 -0.0720  0.1630
 8143TIP3    H124370   6.448   0.336   3.543 -0.4675  0.4985 -0.2828
 8143TIP3    H224371   6.525   0.316   3.414  1.0597  2.2746  0.2971
 8144TIP3   OH224372   1.580   5.326   0.417  0.2878 -0.1643  0.6460
 8144TIP3    H124373   1.591   5.405   0.471  0.3977 -0.3975  0.9686
 8144TIP3    H224374   1.670   5.298   0.398  0.2593 -0.7292  1.3009
 8145TIP3   OH224375   7.191   7.531   5.060 -0.1934 -0.5897 -0.5335
 8145TIP3    H124376   7.187   7.625   5.043  2.1013 -0.4624 -0.7496
 8145TIP3    H224377   7.121   7.493   5.008 -0.6505  0.9258 -1.0598
 8146TIP3   OH224378   8.272   3.281   1.708 -0.5028  0.6921 -0.5209
 8146TIP3    H124379   8.204   3.317   1.765  0.1439 -1.5383  1.8451
 8146TIP3    H224380   8.277   3.189   1.732  3.2949  0.7343 -0.6019
 8147TIP3   OH224381   0.956   3.332   0.194 -0.3900 -0.1665 -0.9631
 8147TIP3    H124382   0.881   3.381   0.161 -0.0574 -0.4206 -2.1122
 8147TIP3    H224383   1.004   3.304   0.116 -1.2506 -3.4554 -0.4797
 8148TIP3   OH224384   4.020   7.130   0.430 -0.3903  0.2106  0.4791
 8148TIP3    H124385   4.106   7.161   0.458  0.2291  0.1263 -1.1990
 8148TIP3    H224386   4.029   7.035   0.425 -1.2289  0.0070  2.2653
 8149TIP3   OH224387   7.314   6.780   3.151  0.6116 -0.1808 -0.0748
 8149TIP3    H124388   7.239   6.735   3.190 -0.3411  0.0271 -1.5845
 8149TIP3    H224389   7.279   6.821   3.072  1.9823  1.2332  0.0072
 8150TIP3   OH224390   6.541   1.987   2.383 -0.6040 -0.7725 -0.3223
 8150TIP3    H124391   6.539   1.994   2.287 -1.9508 -1.0128 -0.3336
 8150TIP3    H224392   6.576   2.071   2.413 -0.4774 -0.5735 -1.0070
 8151TIP3   OH224393   3.893   2.780   1.299  0.6729  0.0092 -0.4752
 8151TIP3    H124394   3.986   2.799   1.287  1.0242 -0.3477  1.3673
 8151TIP3    H224395   3.847   2.847   1.248  1.9257  0.1691 -1.4262
 8152TIP3   OH224396   3.381   4.143   5.429  0.3575  0.2662  0.2814
 8152TIP3    H124397   3.373   4.072   5.366 -1.3615  0.1457  0.5658
 8152TIP3    H224398   3.420   4.216   5.381 -1.1044  0.2450 -0.9960
 8153TIP3   OH224399   1.207   4.871   6.765  0.6111 -0.0681 -0.0404
 8153TIP3    H124400   1.220   4.960   6.732  0.1338  0.1733  0.3973
 8153TIP3    H224401   1.245   4.872   6.853 -0.1681 -0.0430  0.3026
 8154TIP3   OH224402   1.772   3.942   1.871  0.1617  0.0865  0.0750
 8154TIP3    H124403   1.864   3.966   1.860  0.0343 -0.5128 -3.8765
 8154TIP3    H224404   1.728   4.025   1.887  1.1826  0.6663 -0.0062
 8155TIP3   OH224405   6.891   7.487   5.481  0.4356 -0.2861 -0.2125
 8155TIP3    H124406   6.971   7.515   5.526 -0.9213  1.5047  1.2713
 8155TIP3    H224407   6.918   7.470   5.391  2.6437 -0.7228  0.4757
 8156TIP3   OH224408   4.261   2.837   5.969  0.2284 -0.2686 -0.2530
 8156TIP3    H124409   4.278   2.836   5.875 -0.0922 -0.6183 -0.3096
 8156TIP3    H224410   4.337   2.881   6.007  0.7744 -0.9117 -0.5889
 8157TIP3   OH224411   1.256   5.369   5.754 -0.3381 -0.1345 -0.0405
 8157TIP3    H124412   1.319   5.299   5.743 -0.2573  0.0806 -1.0916
 8157TIP3    H224413   1.264   5.395   5.846 -0.0962 -1.2214  0.2581
 8158TIP3   OH224414   8.036   1.292   2.200  0.5483  0.3554  0.1999
 8158TIP3    H124415   7.946   1.269   2.179  0.8679 -1.5939  0.7469
 8158TIP3    H224416   8.088   1.257   2.127  0.9931  0.0140  0.6693
 8159TIP3   OH224417   6.204   4.397   4.103 -1.0394  0.0490 -0.2044
 8159TIP3    H124418   6.120   4.352   4.108 -1.8119  1.4272 -0.0626
 8159TIP3    H224419   6.200   4.462   4.174  0.1351  0.1415 -0.2065
 8160TIP3   OH224420   0.163   0.830   1.235 -0.0692  0.7155 -0.4481
 8160TIP3    H124421   0.235   0.854   1.177  1.0550 -0.9415  0.1842
 8160TIP3    H224422   0.104   0.906   1.233  1.6863  2.1268 -0.9573
 8161TIP3   OH224423   6.971   3.654   6.693 -0.2517  0.4172 -0.3779
 8161TIP3    H124424   7.012   3.723   6.744  1.1747 -1.8743  1.8206
 8161TIP3    H224425   6.887   3.638   6.736  0.7604 -1.2123  1.1484
 8162TIP3   OH224426   7.498   0.971   4.353  0.2558 -0.2897  0.6715
 8162TIP3    H124427   7.455   0.907   4.295  1.6466  0.1793 -0.9428
 8162TIP3    H224428   7.434   1.042   4.361  0.0416 -0.3472 -0.3319
 8163TIP3   OH224429   0.143   5.198   0.173 -0.3152  0.3397 -0.0544
 8163TIP3    H124430   0.119   5.113   0.211  0.0241  0.3573  0.1997
 8163TIP3    H224431   0.226   5.220   0.214 -0.2948  0.6944 -0.2846
 8164TIP3   OH224432   3.299   5.824   6.525  0.0195  0.8971  0.5346
 8164TIP3    H124433   3.315   5.905   6.575 -0.1525  0.7094  0.8944
 8164TIP3    H224434   3.386   5.788   6.511  0.0807  1.0282  0.5696
 8165TIP3   OH224435   5.667   5.843   0.664 -0.3934  0.3786 -0.2783
 8165TIP3    H124436   5.639   5.753   0.681 -0.3738  0.2031 -1.1130
 8165TIP3    H224437   5.759   5.836   0.640  0.4458  0.9550  2.4431
 8166TIP3   OH224438   1.377   5.767   3.970  0.2440 -0.5635  0.0302
 8166TIP3    H124439   1.314   5.705   4.006  1.1213 -0.6115  1.5304
 8166TIP3    H224440   1.402   5.730   3.885 -2.2029 -0.2107 -0.9509
 8167TIP3   OH224441   6.944   6.621   3.057  0.6674 -0.0352  0.3951
 8167TIP3    H124442   6.919   6.602   3.147  2.1393  0.0806  0.8598
 8167TIP3    H224443   6.888   6.694   3.031  1.5362  1.2197  1.8995
 8168TIP3   OH224444   0.042   6.682   2.827  0.2989  0.1218 -0.1941
 8168TIP3    H124445  -0.050   6.708   2.825 -0.3623 -1.9135  0.5962
 8168TIP3    H224446   0.046   6.605   2.770  1.1854 -0.6863  0.9095
 8169TIP3   OH224447   7.485   7.740   4.604  0.7032 -0.0613 -0.6130
 8169TIP3    H124448   7.547   7.810   4.582 -0.0460  0.5700 -0.7647
 8169TIP3    H224449   7.430   7.732   4.526 -1.3029  1.4653  0.5314
 8170TIP3   OH224450   6.825   7.105   6.122  0.5252  0.1062  0.4141
 8170TIP3    H124451   6.740   7.125   6.083  0.4980  0.7968  0.8137
 8170TIP3    H224452   6.814   7.018   6.159 -0.0272  0.2191  0.5231
 8171TIP3   OH224453   0.772   6.243   2.641  0.2984  0.5914 -0.4284
 8171TIP3    H124454   0.821   6.228   2.722 -0.8049 -0.3518  0.0864
 8171TIP3    H224455   0.814   6.320   2.602  2.3041 -0.2827 -0.1130
 8172TIP3   OH224456   7.467   4.431   4.262 -0.3461  0.1445 -0.0736
 8172TIP3    H124457   7.404   4.374   4.218 -1.0110 -1.8169  3.0970
 8172TIP3    H224458   7.415   4.480   4.326  0.6088  2.6795 -1.0986
 8173TIP3   OH224459   8.188   7.059   3.428 -0.0943  0.3996  0.1764
 8173TIP3    H124460   8.197   7.153   3.414 -0.3819  0.1743 -1.9257
 8173TIP3    H224461   8.245   7.040   3.502 -0.6806  2.3324  1.2083
 8174TIP3   OH224462   6.709   7.872   6.217 -0.0537  0.4791  0.0616
 8174TIP3    H124463   6.728   7.866   6.123  1.0536 -0.4619  0.3166
 8174TIP3    H224464   6.668   7.789   6.238  1.0283  0.0721  0.6637
 8175TIP3   OH224465   7.450   7.470   0.289  0.0900  0.0904  0.1428
 8175TIP3    H124466   7.408   7.411   0.352 -0.2078 -0.3931 -0.5044
 8175TIP3    H224467   7.489   7.539   0.344 -1.7753  0.7289  0.7587
 8176TIP3   OH224468   4.757   4.233   4.334 -0.2143  0.2966 -0.2415
 8176TIP3    H124469   4.805   4.306   4.375  1.1880 -1.0963  0.7277
 8176TIP3    H224470   4.665   4.258   4.341  0.2769  3.0539 -2.0903
 8177TIP3   OH224471   5.586   5.566   5.585 -0.7828  0.7208  0.5351
 8177TIP3    H124472   5.515   5.508   5.612  0.4969 -1.2117 -0.0802
 8177TIP3    H224473   5.664   5.531   5.629  0.7248 -0.4082 -2.7725
 8178TIP3   OH224474   0.912   2.939   0.479  0.0109  0.2782 -0.4077
 8178TIP3    H124475   0.967   2.914   0.405 -1.8211 -2.4323 -1.0239
 8178TIP3    H224476   0.955   3.015   0.517  3.1119 -0.5536 -1.9394
 8179TIP3   OH224477   7.488   2.631   0.362 -0.2193  0.0641 -0.1899
 8179TIP3    H124478   7.416   2.692   0.347 -0.1724  0.4470  1.0562
 8179TIP3    H224479   7.465   2.587   0.444 -0.3945 -1.8206 -1.1778
 8180TIP3   OH224480   7.491   1.439   6.278 -0.0132 -0.3008 -0.3011
 8180TIP3    H124481   7.501   1.344   6.275  0.6557 -0.3010  1.1790
 8180TIP3    H224482   7.407   1.453   6.320  0.5878 -0.2641  0.9452
 8181TIP3   OH224483   6.220   0.703   1.823 -0.2122  0.3266  0.9314
 8181TIP3    H124484   6.157   0.771   1.847 -2.3478 -0.5781 -1.6681
 8181TIP3    H224485   6.285   0.747   1.769 -0.6949  0.5977  0.5722
 8182TIP3   OH224486   3.423   7.692   0.314  0.7479  0.5394 -0.4731
 8182TIP3    H124487   3.473   7.623   0.358 -2.7688 -2.2551 -0.4492
 8182TIP3    H224488   3.371   7.732   0.383 -0.0548  0.5770 -1.0872
 8183TIP3   OH224489   2.847   4.414   5.003 -0.0467 -0.9251 -0.0727
 8183TIP3    H124490   2.887   4.333   4.971 -1.6044 -0.6969 -2.9289
 8183TIP3    H224491   2.907   4.445   5.072  2.5372 -2.5934 -1.3979
 8184TIP3   OH224492   3.790   2.044   3.648 -0.1359  0.1512 -0.6460
 8184TIP3    H124493   3.769   2.125   3.695 -0.8579  0.2771 -1.1778
 8184TIP3    H224494   3.708   1.995   3.647  0.2504 -0.5175 -0.4833
 8185TIP3   OH224495   6.209   2.498   0.391  0.1806 -0.4385  0.1975
 8185TIP3    H124496   6.180   2.432   0.327  1.3514 -0.3868 -0.4128
 8185TIP3    H224497   6.127   2.537   0.422 -0.4254  0.0023 -1.7817
 8186TIP3   OH224498   7.219   2.524   0.591 -0.2608 -0.3886  0.3497
 8186TIP3    H124499   7.312   2.506   0.576 -0.0103  0.7422  0.4639
 8186TIP3    H224500   7.203   2.492   0.680  0.2084  0.0792  0.6109
 8187TIP3   OH224501   3.593   4.237   0.707  0.4014  0.3309 -0.1466
 8187TIP3    H124502   3.611   4.143   0.706  1.4045  0.4601 -2.3896
 8187TIP3    H224503   3.680   4.277   0.711  0.0381  1.1492 -0.2705
 8188TIP3   OH224504   3.856   2.636   3.531 -0.0274 -0.0465  0.1773
 8188TIP3    H124505   3.854   2.546   3.564 -2.2754 -0.4911 -0.9710
 8188TIP3    H224506   3.893   2.628   3.443 -1.8573 -0.1575 -0.6159
 8189TIP3   OH224507   4.887   3.715   5.615 -0.0507 -0.1033 -0.1604
 8189TIP3    H124508   4.974   3.756   5.617  1.3076 -2.7452 -0.3342
 8189TIP3    H224509   4.858   3.717   5.707 -0.5540  2.0962 -0.3030
 8190TIP3   OH224510   1.022   4.129   5.397  0.5407 -0.2298 -0.1989
 8190TIP3    H124511   1.048   4.099   5.485  1.7862 -1.5744 -0.9777
 8190TIP3    H224512   1.042   4.222   5.397 -0.4966  0.0411  1.2859
 8191TIP3   OH224513   6.119   1.751   3.381 -0.3159 -0.2790 -0.0738
 8191TIP3    H124514   6.031   1.721   3.362 -0.3323 -0.2423 -0.0563
 8191TIP3    H224515   6.147   1.797   3.302 -0.7333  0.6918  0.3287
 8192TIP3   OH224516   0.868   6.322   6.689 -0.4632  0.3080  0.0633
 8192TIP3    H124517   0.797   6.385   6.701 -0.7161  0.0961 -0.3162
 8192TIP3    H224518   0.876   6.279   6.774 -1.1099 -0.0027 -0.0269
 8193TIP3   OH224519   8.022   5.032   2.914  0.1394 -0.4662  0.2417
 8193TIP3    H124520   8.005   4.993   3.000  0.5718 -1.4366 -0.0959
 8193TIP3    H224521   8.114   5.059   2.919  0.1872 -0.5919  0.0706
 8194TIP3   OH224522   7.403   1.557   1.565 -0.1339 -0.2385 -0.1577
 8194TIP3    H124523   7.435   1.620   1.629 -0.3711 -0.9289  0.6553
 8194TIP3    H224524   7.346   1.608   1.508  0.6541  0.5354 -0.2741
 8195TIP3   OH224525   5.648   5.786   6.167 -0.0707  0.3156  0.0217
 8195TIP3    H124526   5.660   5.721   6.097 -0.3425 -0.5296  0.7473
 8195TIP3    H224527   5.553   5.786   6.183 -0.1375  1.2429 -0.2854
 8196TIP3   OH224528   3.635   4.400   1.302  0.6269 -0.4795 -0.3324
 8196TIP3    H124529   3.632   4.305   1.305 -0.4688 -0.5065 -1.4516
 8196TIP3    H224530   3.578   4.429   1.373 -1.8588 -0.7468 -2.0751
 8197TIP3   OH224531   7.057   4.130   0.171 -0.2709 -0.3089 -0.5769
 8197TIP3    H124532   7.049   4.221   0.199  0.9392 -0.7533  1.3724
 8197TIP3    H224533   7.094   4.136   0.083  0.6002  1.0900 -0.1537
 8198TIP3   OH224534   2.471   1.518   3.544 -0.4305 -0.5819 -0.2995
 8198TIP3    H124535   2.476   1.457   3.470 -1.1664  1.1015 -1.8140
 8198TIP3    H224536   2.560   1.549   3.556 -0.8264  2.2328 -3.3177
 8199TIP3   OH224537   3.676   3.781   3.213 -0.0642  0.0164 -0.2292
 8199TIP3    H124538   3.746   3.745   3.266 -1.0736  0.2937  1.3467
 8199TIP3    H224539   3.633   3.705   3.175 -0.5172 -0.3231  0.9220
 8200TIP3   OH224540   1.185   5.215   5.078 -0.1829 -0.2413 -0.0410
 8200TIP3    H124541   1.201   5.126   5.048 -1.9595 -0.8550  0.7404
 8200TIP3    H224542   1.224   5.270   5.010 -1.7823 -1.5871 -2.1987
 8201TIP3   OH224543   4.567   0.018   1.248  0.6532 -0.0367 -0.2870
 8201TIP3    H124544   4.607   0.019   1.161  0.9885  0.5125 -0.1297
 8201TIP3    H224545   4.625   0.072   1.302 -0.2185  0.6693 -0.0196
 8202TIP3   OH224546   5.618   1.464   4.216 -0.3133 -0.1662 -0.5458
 8202TIP3    H124547   5.591   1.535   4.159  0.0597  2.2136  2.0369
 8202TIP3    H224548   5.714   1.460   4.207 -0.1786  0.6918  0.3819
 8203TIP3   OH224549   4.117   4.820   3.091  0.1929  0.3395  0.1302
 8203TIP3    H124550   4.115   4.776   3.006 -1.9914 -0.2028  0.4062
 8203TIP3    H224551   4.185   4.772   3.140  0.9695  0.1968 -1.0362
 8204TIP3   OH224552   6.875   1.714   5.876  0.0865 -0.5197 -0.4010
 8204TIP3    H124553   6.864   1.666   5.958 -0.7939  0.8667  0.3212
 8204TIP3    H224554   6.862   1.648   5.808  0.1051 -1.5420  0.5612
 8205TIP3   OH224555   7.296   7.607   2.373  0.7333  0.2897 -0.2854
 8205TIP3    H124556   7.231   7.544   2.405  1.6693 -0.8934 -0.6618
 8205TIP3    H224557   7.363   7.608   2.441  0.9989  0.4562 -0.5499
 8206TIP3   OH224558   7.748   5.437   4.097 -0.1332  0.2077 -0.4605
 8206TIP3    H124559   7.787   5.384   4.166  1.2453  0.8716 -0.7098
 8206TIP3    H224560   7.708   5.373   4.037 -0.3583 -0.4219  0.3399
 8207TIP3   OH224561   7.378   3.120   3.773  0.4450 -0.4567  0.2939
 8207TIP3    H124562   7.449   3.059   3.756  1.3938  0.4017  1.0583
 8207TIP3    H224563   7.394   3.151   3.862 -1.3839 -0.8973  0.8225
 8208TIP3   OH224564   7.739   4.983   4.511  0.2762 -0.4086  0.5510
 8208TIP3    H124565   7.790   5.037   4.572  0.6744 -0.0907 -0.0543
 8208TIP3    H224566   7.648   5.001   4.534  0.2488  2.6588 -1.3446
 8209TIP3   OH224567   5.161   1.154   2.677 -0.2797 -0.3110 -0.2025
 8209TIP3    H124568   5.243   1.137   2.725  0.2436  0.9635 -0.5830
 8209TIP3    H224569   5.167   1.099   2.599  0.3119 -0.0995 -0.3154
 8210TIP3   OH224570   2.347   5.990   4.332  0.4629  0.5132  0.3854
 8210TIP3    H124571   2.351   5.978   4.237  0.4401 -0.7065  0.5207
 8210TIP3    H224572   2.295   6.070   4.344 -1.6981 -0.6445 -0.5964
 8211TIP3   OH224573   2.949   1.846   6.447  0.3662  0.7609  0.8158
 8211TIP3    H124574   2.990   1.776   6.497 -0.0483  0.0546  0.1793
 8211TIP3    H224575   3.003   1.855   6.369  0.0163  0.6692  0.5614
 8212TIP3   OH224576   1.956   4.158   5.299 -0.3101 -0.2759  0.7542
 8212TIP3    H124577   2.013   4.187   5.370  1.9101 -0.8384 -0.6924
 8212TIP3    H224578   1.991   4.201   5.221 -2.0324 -0.4714 -0.1785
 8213TIP3   OH224579   1.360   4.884   0.831 -0.1423  0.5668  0.4057
 8213TIP3    H124580   1.274   4.912   0.865  0.2591 -0.1455  2.0948
 8213TIP3    H224581   1.421   4.904   0.902  0.9683  0.2589 -0.4468
 8214TIP3   OH224582   6.311   1.308   6.746  0.2270 -0.1288 -0.1573
 8214TIP3    H124583   6.393   1.337   6.785 -0.2627  0.8404  0.1836
 8214TIP3    H224584   6.243   1.342   6.804 -0.4456 -0.1850 -0.8898
 8215TIP3   OH224585   7.331   5.462   6.862  0.4527  0.2348 -0.5344
 8215TIP3    H124586   7.316   5.370   6.883  2.1679 -0.0407 -0.3503
 8215TIP3    H224587   7.421   5.464   6.829  0.1082  1.7084 -1.4542
 8216TIP3   OH224588   6.383   6.918   6.333  0.1393 -0.5965 -0.1510
 8216TIP3    H124589   6.312   6.980   6.315  1.2254  0.5323 -0.6485
 8216TIP3    H224590   6.367   6.846   6.272 -0.9359 -0.6863  0.1970
 8217TIP3   OH224591   0.692   5.792   4.823  0.1149 -0.8456  0.1992
 8217TIP3    H124592   0.601   5.795   4.853  0.4310 -2.2219  1.4268
 8217TIP3    H224593   0.724   5.881   4.835 -0.9461 -0.4457  0.1570
 8218TIP3   OH224594   1.572   1.879   4.188 -0.3163  0.0853  0.0399
 8218TIP3    H124595   1.603   1.832   4.266  0.1732  0.8548  0.3198
 8218TIP3    H224596   1.625   1.843   4.117  0.5895  0.7287  0.3712
 8219TIP3   OH224597   5.551   4.477   4.383  0.1680  0.0104 -0.1291
 8219TIP3    H124598   5.607   4.540   4.428  0.3439 -0.0207 -0.3013
 8219TIP3    H224599   5.505   4.431   4.453  2.1849 -1.7026  0.1920
 8220TIP3   OH224600   7.223   0.735   5.078  0.2734  0.1816  0.0250
 8220TIP3    H124601   7.289   0.803   5.086 -0.0385  0.6430 -1.1166
 8220TIP3    H224602   7.259   0.661   5.127  1.2667  0.6854  0.0825
 8221TIP3   OH224603   4.439   0.120   0.470  0.3806 -0.3716  0.3152
 8221TIP3    H124604   4.389   0.145   0.548  0.7160 -0.9282  0.7235
 8221TIP3    H224605   4.384   0.144   0.396  0.7143  1.6324  0.6666
 8222TIP3   OH224606   0.482   2.555   4.944 -0.5367 -0.2006  0.1612
 8222TIP3    H124607   0.387   2.553   4.929 -0.3004  0.0093 -1.7068
 8222TIP3    H224608   0.503   2.467   4.975 -1.4378  0.0139  1.4764
 8223TIP3   OH224609   6.315   2.748   0.473  0.5573 -0.1554  0.2273
 8223TIP3    H124610   6.369   2.796   0.410 -0.1171 -0.7485 -0.8252
 8223TIP3    H224611   6.315   2.658   0.442 -0.0923 -0.3893  0.8625
 8224TIP3   OH224612   6.181   2.651   1.956 -0.0662 -0.5743 -0.4975
 8224TIP3    H124613   6.085   2.648   1.960 -0.1082 -0.2750 -1.1962
 8224TIP3    H224614   6.207   2.691   2.039 -0.4858 -1.5939  0.1574
 8225TIP3   OH224615   0.820   6.670   4.956  0.1082 -0.7085  0.1238
 8225TIP3    H124616   0.804   6.762   4.932 -0.0854 -0.7661  0.0251
 8225TIP3    H224617   0.908   6.652   4.924  0.4508 -0.3324  0.8313
 8226TIP3   OH224618   8.266   5.104   3.048 -0.0022  0.2777  0.1113
 8226TIP3    H124619   8.290   5.084   3.138 -0.3726  1.2463  0.4346
 8226TIP3    H224620   8.250   5.198   3.047 -0.9675  0.1262 -0.7478
 8227TIP3   OH224621   6.491   3.097   0.471 -0.1846 -0.0891  0.6581
 8227TIP3    H124622   6.493   3.049   0.388 -1.3598  2.8971 -1.2338
 8227TIP3    H224623   6.418   3.056   0.519 -3.7281  1.9038 -2.4763
 8228TIP3   OH224624   4.336   6.778   5.448 -0.3863  0.1144 -0.1241
 8228TIP3    H124625   4.361   6.686   5.439 -0.5448  0.2387 -2.4787
 8228TIP3    H224626   4.241   6.778   5.436 -0.6115  0.4200  1.5394
 8229TIP3   OH224627   5.743   3.143   4.302 -0.5323  0.2950 -0.1140
 8229TIP3    H124628   5.684   3.118   4.231  0.0252 -1.1009 -0.1198
 8229TIP3    H224629   5.820   3.177   4.258  1.0178 -3.1528 -0.4236
 8230TIP3   OH224630   5.673   2.474   5.357  0.2018 -0.1582  0.2450
 8230TIP3    H124631   5.627   2.528   5.420 -1.2220 -0.8302 -0.1800
 8230TIP3    H224632   5.686   2.530   5.281  2.6096  0.9037  1.3227
 8231TIP3   OH224633   7.664   7.167   6.130  0.1019 -0.0784  0.3277
 8231TIP3    H124634   7.578   7.202   6.153  0.4766  0.6075  0.7247
 8231TIP3    H224635   7.724   7.208   6.193  0.4870 -1.9199  1.2621
 8232TIP3   OH224636   7.949   2.338   3.561 -0.5974  0.2653  0.5236
 8232TIP3    H124637   8.017   2.271   3.567 -1.6861 -0.8050  1.4319
 8232TIP3    H224638   7.997   2.421   3.555  0.7699 -0.5380  0.0390
 8233TIP3   OH224639   6.349   1.629   3.049  0.0528 -0.5698  0.4224
 8233TIP3    H124640   6.408   1.703   3.032 -2.1395  0.9667 -0.9851
 8233TIP3    H224641   6.342   1.625   3.145  0.7838  0.5441  0.5387
 8234TIP3   OH224642   5.402   5.939   4.689  0.1472 -0.3704 -0.4084
 8234TIP3    H124643   5.495   5.923   4.707  0.5279  0.5130 -1.4502
 8234TIP3    H224644   5.359   5.930   4.774  1.1515 -1.0379  0.0406
 8235TIP3   OH224645   2.596   3.966   1.242  0.3878 -0.3633  0.3330
 8235TIP3    H124646   2.629   3.876   1.244 -2.2515 -1.5527 -2.2768
 8235TIP3    H224647   2.649   4.010   1.175 -0.5577 -1.0560 -0.9026
 8236TIP3   OH224648   6.343   3.875   0.419 -0.1692 -0.1093  0.0860
 8236TIP3    H124649   6.347   3.872   0.323  0.3254  0.3994  0.0865
 8236TIP3    H224650   6.263   3.827   0.441 -0.5648  0.2086 -0.6102
 8237TIP3   OH224651   4.638   0.038   1.934  0.2127 -0.5822  0.4972
 8237TIP3    H124652   4.646  -0.044   1.983 -1.5408 -0.2683  1.3942
 8237TIP3    H224653   4.649   0.107   1.999 -1.6855 -0.1573  0.4213
 8238TIP3   OH224654   3.169   4.473  -0.002  0.0280  0.1764 -0.5567
 8238TIP3    H124655   3.191   4.381   0.012  0.2975  0.0786 -1.5520
 8238TIP3    H224656   3.158   4.509   0.087  0.8351 -0.5887 -0.1312
 8239TIP3   OH224657   7.091   6.761   3.320 -0.0145 -0.1110 -0.0207
 8239TIP3    H124658   7.017   6.801   3.365  0.7916 -0.7727  2.0291
 8239TIP3    H224659   7.141   6.719   3.390  1.4301 -1.0540 -1.5517
 8240TIP3   OH224660   4.624   2.218   4.097 -0.1602 -0.0767  0.2352
 8240TIP3    H124661   4.717   2.224   4.121  0.3208 -0.8908 -1.2609
 8240TIP3    H224662   4.621   2.147   4.033 -1.6426  0.6574 -0.5632
 8241TIP3   OH224663   6.125   4.479   6.616 -0.2910  0.0877  0.3678
 8241TIP3    H124664   6.217   4.486   6.643 -0.4149  0.6349  0.6510
 8241TIP3    H224665   6.126   4.500   6.522 -0.2991  1.3420  0.6429
 8242TIP3   OH224666   4.306   3.687   2.704 -0.1279 -0.1409 -0.0438
 8242TIP3    H124667   4.345   3.630   2.638 -0.7417 -1.1525  0.4368
 8242TIP3    H224668   4.223   3.715   2.667 -0.7472 -1.1814  0.4976
 8243TIP3   OH224669   6.438   6.914   4.236  0.0347  0.3833 -0.6431
 8243TIP3    H124670   6.435   6.986   4.172 -1.4843  0.8549 -0.0879
 8243TIP3    H224671   6.381   6.847   4.198 -3.9224  2.0585  1.7066
 8244TIP3   OH224672   5.159   7.290   1.082  0.3175  0.2402 -0.1307
 8244TIP3    H124673   5.069   7.280   1.050 -0.1880 -0.5906  1.4579
 8244TIP3    H224674   5.154   7.361   1.146  0.7391  0.0335  0.1368
 8245TIP3   OH224675   0.717   6.456   4.292 -0.4117 -0.1276 -0.1192
 8245TIP3    H124676   0.646   6.497   4.243 -0.0738  1.0516  0.3350
 8245TIP3    H224677   0.730   6.513   4.368  0.6882 -0.5790  0.0555
 8246TIP3   OH224678   4.352   5.219   3.244 -0.4054  0.5969  0.1725
 8246TIP3    H124679   4.331   5.213   3.151 -2.6671  0.9273  0.6017
 8246TIP3    H224680   4.411   5.294   3.251  0.6885 -0.1112 -1.0986
 8247TIP3   OH224681   6.228   1.965   0.887 -0.4306 -0.3320  0.3114
 8247TIP3    H124682   6.304   1.930   0.934  0.7844  0.7354 -0.7534
 8247TIP3    H224683   6.177   2.010   0.953  2.3990  3.1107  0.4319
 8248TIP3   OH224684   3.888   1.394   3.729 -0.3645  0.0176 -0.4352
 8248TIP3    H124685   3.794   1.375   3.725 -0.5151 -0.2548  2.3697
 8248TIP3    H224686   3.928   1.333   3.667 -1.8488 -1.5970  0.1099
 8249TIP3   OH224687   2.149   0.687   5.733 -0.3044 -0.0715  0.2116
 8249TIP3    H124688   2.240   0.716   5.731  0.0104 -1.0547  0.1956
 8249TIP3    H224689   2.143   0.620   5.665 -0.7789 -0.7760  0.9381
 8250TIP3   OH224690   3.797   3.270   6.335  0.6245 -0.2495  0.0472
 8250TIP3    H124691   3.875   3.259   6.282  0.1787 -0.4144 -0.5776
 8250TIP3    H224692   3.730   3.218   6.292  0.4322 -0.9771  1.1658
 8251TIP3   OH224693   8.242   4.265   5.670 -0.0781 -0.2172  0.0820
 8251TIP3    H124694   8.197   4.181   5.681 -0.6391 -0.0447 -0.7865
 8251TIP3    H224695   8.173   4.326   5.644  0.7070 -0.0390 -1.7294
 8252TIP3   OH224696   4.730   2.838   1.755  0.0670 -0.0412  0.6111
 8252TIP3    H124697   4.756   2.926   1.781  0.3202  0.1604 -0.2818
 8252TIP3    H224698   4.743   2.784   1.833 -2.0628  1.0772  1.8106
 8253TIP3   OH224699   0.893   1.435   6.099 -0.1692 -0.6507 -0.2697
 8253TIP3    H124700   0.839   1.369   6.057  1.4430 -1.7004 -0.7718
 8253TIP3    H224701   0.845   1.517   6.086 -1.4710 -1.4932 -0.9474
 8254TIP3   OH224702   6.641   1.298   0.133 -0.0288 -0.3269  0.2474
 8254TIP3    H124703   6.633   1.385   0.173  3.6761  0.7511 -0.9634
 8254TIP3    H224704   6.724   1.301   0.085 -0.4820 -4.0853 -1.1080
 8255TIP3   OH224705   5.377   0.995   2.794 -0.4039  0.3427  0.0684
 8255TIP3    H124706   5.334   0.910   2.780  0.1576  0.3286 -1.9484
 8255TIP3    H224707   5.440   0.979   2.864  0.0060 -1.0545 -0.5726
 8256TIP3   OH224708   6.725   0.953   2.786 -0.6747  0.2125  0.2244
 8256TIP3    H124709   6.776   1.014   2.838 -0.0383  0.6796 -0.9052
 8256TIP3    H224710   6.724   0.991   2.698 -0.9180 -1.0101 -0.3330
 8257TIP3   OH224711   8.107   3.320   1.138 -0.1270 -0.3389 -0.0398
 8257TIP3    H124712   8.057   3.374   1.199  0.5414  0.1629  0.0797
 8257TIP3    H224713   8.091   3.230   1.166 -0.6618 -0.1642  0.2205
 8258TIP3   OH224714   5.322   0.914   1.633  0.4051  0.2102 -0.6460
 8258TIP3    H124715   5.404   0.864   1.641 -0.1672 -0.4348  2.2118
 8258TIP3    H224716   5.266   0.858   1.578  1.3078 -0.1174 -1.2622
 8259TIP3   OH224717   4.083   3.531   0.328  0.6133  0.1199  0.4548
 8259TIP3    H124718   4.175   3.504   0.335 -0.2132 -3.2849 -0.0601
 8259TIP3    H224719   4.047   3.477   0.257 -2.0710  0.5128  1.3959
 8260TIP3   OH224720   4.836   0.897   5.114  0.5489  0.4864 -0.0148
 8260TIP3    H124721   4.801   0.831   5.174  1.9347 -1.0245 -0.8044
 8260TIP3    H224722   4.880   0.960   5.172 -0.7617  0.7528  0.7430
 8261TIP3   OH224723   8.301   2.892   4.908 -0.3430 -0.2430  0.5416
 8261TIP3    H124724   8.347   2.826   4.960  0.3359  0.1400  0.4315
 8261TIP3    H224725   8.274   2.958   4.971  1.5992  0.8703  0.2795
 8262TIP3   OH224726   6.097   7.022   5.530  0.0534 -0.3748  0.0897
 8262TIP3    H124727   6.032   7.028   5.460  0.7173 -1.9572 -0.7302
 8262TIP3    H224728   6.049   7.042   5.609 -0.7376  1.4002 -0.7926
 8263TIP3   OH224729   6.978   1.705   0.611  0.4322  0.5592  0.1032
 8263TIP3    H124730   6.895   1.691   0.565  0.0936 -1.2203  1.1444
 8263TIP3    H224731   6.955   1.764   0.684 -0.0608 -0.3271  0.6855
 8264TIP3   OH224732   0.379   7.369   4.755 -0.4022  0.1404 -0.4587
 8264TIP3    H124733   0.307   7.354   4.817 -0.1096  0.4947 -0.0208
 8264TIP3    H224734   0.400   7.462   4.765 -0.6601  0.3120 -1.4384
 8265TIP3   OH224735   2.027   7.111   4.333  0.4266  0.2053  0.1124
 8265TIP3    H124736   2.094   7.158   4.284 -0.0540 -0.0211 -0.7786
 8265TIP3    H224737   1.948   7.164   4.322  0.1314 -0.2527 -0.0139
 8266TIP3   OH224738   5.723   2.573   2.929 -0.1524 -0.4188  0.4920
 8266TIP3    H124739   5.790   2.615   2.983 -1.2079  0.7974  0.9008
 8266TIP3    H224740   5.642   2.619   2.951 -0.8337 -0.7483 -1.1919
 8267TIP3   OH224741   2.253   7.175   1.834  0.4802 -0.1863  0.3018
 8267TIP3    H124742   2.317   7.241   1.810  1.2768 -0.7479  0.8321
 8267TIP3    H224743   2.171   7.204   1.792  0.5144  1.7182  1.4295
 8268TIP3   OH224744   3.869   5.026   4.107  0.2808 -0.2805  0.3953
 8268TIP3    H124745   3.938   5.082   4.141  0.1218 -0.1161  0.4531
 8268TIP3    H224746   3.810   5.012   4.181  0.0064 -0.0328  0.2277
 8269TIP3   OH224747   3.299   3.010   6.111  0.0015  0.0908 -0.0934
 8269TIP3    H124748   3.333   3.087   6.066  2.1302  0.2971  1.7077
 8269TIP3    H224749   3.272   3.042   6.197 -0.4323 -0.9209  0.1652
 8270TIP3   OH224750   1.254   0.586   3.464  0.6563 -0.1449  0.6671
 8270TIP3    H124751   1.323   0.652   3.468  0.6400 -0.1288  0.6840
 8270TIP3    H224752   1.204   0.608   3.385  1.0534 -0.5391  0.3004
 8271TIP3   OH224753   1.260   0.805   6.844  0.3432  0.0039  0.9556
 8271TIP3    H124754   1.290   0.862   6.774 -1.1959  0.0664  0.2984
 8271TIP3    H224755   1.296   0.843   6.924  1.0168  0.7036  0.3238
 8272TIP3   OH224756   0.414   6.004   6.463  0.0726  0.3070  0.1525
 8272TIP3    H124757   0.332   6.001   6.413  1.0119  0.3605 -1.4961
 8272TIP3    H224758   0.424   6.096   6.486 -0.0948  0.3829 -0.0679
 8273TIP3   OH224759   5.944   2.454   1.700  0.4985  0.4169  0.2568
 8273TIP3    H124760   5.849   2.457   1.693  0.4540  1.2409  1.0912
 8273TIP3    H224761   5.962   2.456   1.794  1.3356  0.2776  0.1096
 8274TIP3   OH224762   5.517   7.101   3.457  0.7428 -0.1032  0.3670
 8274TIP3    H124763   5.471   7.159   3.397 -0.4848 -1.9021 -0.5177
 8274TIP3    H224764   5.515   7.147   3.541  0.5777  1.4877 -0.4690
 8275TIP3   OH224765   5.814   3.614   6.788 -0.0805 -0.0295 -0.1570
 8275TIP3    H124766   5.743   3.631   6.850 -0.4685 -1.5812 -0.1257
 8275TIP3    H224767   5.788   3.659   6.708 -1.0671 -0.4854 -0.1076
 8276TIP3   OH224768   0.567   2.924   5.177 -0.2848 -0.4077 -0.2857
 8276TIP3    H124769   0.612   2.839   5.172 -1.1038 -0.8982  0.3818
 8276TIP3    H224770   0.637   2.988   5.166  0.3001 -1.1697 -1.1542
 8277TIP3   OH224771   2.733   6.842   1.958 -0.4964  0.4945 -0.1595
 8277TIP3    H124772   2.765   6.755   1.983  1.5428  1.0843 -0.5153
 8277TIP3    H224773   2.664   6.824   1.893 -0.2635 -0.8584 -0.0641
 8278TIP3   OH224774   0.845   2.562   4.990  0.0800 -0.5460  0.1325
 8278TIP3    H124775   0.802   2.587   4.909  1.7620 -1.1912 -1.0049
 8278TIP3    H224776   0.799   2.612   5.058 -1.1894  0.1994 -1.2149
 8279TIP3   OH224777   3.845   4.207   1.131 -0.3280 -0.2964 -0.0101
 8279TIP3    H124778   3.886   4.167   1.054 -1.2920 -0.9230 -0.2187
 8279TIP3    H224779   3.767   4.154   1.146 -1.1061  0.9112  0.3126
 8280TIP3   OH224780   8.128   6.967   0.429  0.0822 -0.3183  0.0692
 8280TIP3    H124781   8.064   6.898   0.443 -1.5180  1.2637  1.0049
 8280TIP3    H224782   8.171   6.944   0.346 -0.7684 -2.1034  0.0784
 8281TIP3   OH224783   4.988   2.175   6.152  0.3712  0.1843 -0.0971
 8281TIP3    H124784   4.940   2.106   6.107 -3.4090  2.7098 -0.3665
 8281TIP3    H224785   5.018   2.234   6.083 -1.7977  1.8771  0.2956
 8282TIP3   OH224786   3.220   5.477   0.747  0.2090 -0.6598  0.2315
 8282TIP3    H124787   3.259   5.490   0.833 -0.0754 -0.1574  0.2880
 8282TIP3    H224788   3.195   5.564   0.718 -0.4320 -0.9135 -0.0089
 8283TIP3   OH224789   2.296   2.548   4.173 -0.1449 -0.4168 -0.2113
 8283TIP3    H124790   2.318   2.552   4.080  1.7923  0.7054  0.2450
 8283TIP3    H224791   2.379   2.532   4.217 -0.8206  0.2610  1.4131
 8284TIP3   OH224792   5.471   0.680   5.139  0.0359 -0.3399 -0.3429
 8284TIP3    H124793   5.469   0.769   5.105 -0.5458 -0.1860  0.0809
 8284TIP3    H224794   5.537   0.635   5.086 -1.6720 -0.4423 -2.5347
 8285TIP3   OH224795   1.723   2.948   0.426 -0.3895 -0.0201  0.0331
 8285TIP3    H124796   1.698   2.992   0.507  0.5239 -0.8218  0.7785
 8285TIP3    H224797   1.787   3.007   0.386 -0.0906 -0.0890  0.4043
 8286TIP3   OH224798   8.012   0.747   6.181 -0.0942 -0.2342  0.1357
 8286TIP3    H124799   8.087   0.742   6.240  0.6691 -1.0416 -0.8600
 8286TIP3    H224800   7.969   0.662   6.189 -1.1699  0.3541  0.9931
 8287TIP3   OH224801   3.251   7.480   0.126  0.0680  0.1285 -0.0329
 8287TIP3    H124802   3.234   7.441   0.212 -1.2687  1.7921  0.5235
 8287TIP3    H224803   3.345   7.496   0.125  0.2153 -0.5958  0.8096
 8288TIP3   OH224804   4.328   5.245   4.122 -0.1615  0.5216  0.1105
 8288TIP3    H124805   4.278   5.320   4.090 -0.2106  1.2213  1.7444
 8288TIP3    H224806   4.409   5.282   4.156 -0.6397  0.0212  1.9194
 8289TIP3   OH224807   0.717   1.449   0.616 -0.6423 -0.3234 -0.4147
 8289TIP3    H124808   0.761   1.488   0.541  0.5015 -1.3533 -0.3156
 8289TIP3    H224809   0.785   1.439   0.682 -1.6997  0.9085  0.9433
 8290TIP3   OH224810   5.056   5.110   6.234 -0.2805 -0.2987 -0.4163
 8290TIP3    H124811   5.012   5.141   6.154  0.9447  2.5266 -0.1389
 8290TIP3    H224812   5.149   5.106   6.210  0.1175  0.6843  0.8514
 8291TIP3   OH224813   5.480   4.805   3.768 -0.0431 -0.3110 -0.3308
 8291TIP3    H124814   5.516   4.724   3.805 -1.6307 -0.8008  0.2412
 8291TIP3    H224815   5.532   4.874   3.808 -1.2034 -0.8656  2.3616
 8292TIP3   OH224816   6.503   1.953   3.626 -0.0226 -0.2087  0.5112
 8292TIP3    H124817   6.591   1.929   3.597  0.3951  2.2427 -0.4711
 8292TIP3    H224818   6.449   1.876   3.607  1.4679 -0.9448 -0.9396
 8293TIP3   OH224819   7.612   2.547   1.947 -0.3328 -0.0064 -0.0849
 8293TIP3    H124820   7.586   2.508   1.863  0.4716 -0.8083  0.0309
 8293TIP3    H224821   7.603   2.476   2.010  0.4438  0.1941  0.2583
 8294TIP3   OH224822   6.530   6.773   0.828  0.1848  0.0337 -0.3622
 8294TIP3    H124823   6.449   6.743   0.871  0.4459 -0.4215 -0.1823
 8294TIP3    H224824   6.502   6.845   0.773 -0.0462  1.1688  1.1587
 8295TIP3   OH224825   6.459   6.341   3.829 -0.1274  0.3464 -0.4489
 8295TIP3    H124826   6.363   6.343   3.832 -0.3128  0.2028 -3.4364
 8295TIP3    H224827   6.485   6.329   3.921 -3.0094 -2.1759  0.2198
 8296TIP3   OH224828   5.614   4.207   4.366  0.6076  0.1670 -0.1680
 8296TIP3    H124829   5.529   4.231   4.331  0.8012  4.5572  1.7109
 8296TIP3    H224830   5.595   4.173   4.454  0.7555 -1.4310 -0.7047
 8297TIP3   OH224831   6.424   1.003   1.088  0.5356 -0.0201  0.1742
 8297TIP3    H124832   6.448   0.945   1.016 -1.2831  2.3515 -2.5616
 8297TIP3    H224833   6.330   0.990   1.099  0.2076  1.8407 -0.0763
 8298TIP3   OH224834   6.822   0.203   6.132  0.7392  0.4308  0.3312
 8298TIP3    H124835   6.914   0.228   6.138  0.9335 -0.3192  0.6788
 8298TIP3    H224836   6.823   0.123   6.079  0.0826  1.4095 -1.2208
 8299TIP3   OH224837   7.072   7.371   4.001  0.5036  0.2890 -0.1575
 8299TIP3    H124838   7.145   7.327   3.957 -0.2253 -0.6933 -0.4113
 8299TIP3    H224839   7.109   7.454   4.032  2.6652 -1.5136  2.6061
 8300TIP3   OH224840   7.165   6.091   1.261  0.3388  0.0561 -0.3301
 8300TIP3    H124841   7.252   6.062   1.287  0.4611 -1.3529 -2.0687
 8300TIP3    H224842   7.106   6.050   1.324  0.7805 -1.1221 -0.6581
 8301TIP3   OH224843   0.148   7.152   3.448  0.8333  0.3916  0.2429
 8301TIP3    H124844   0.098   7.076   3.420 -0.9028  2.1897 -1.8578
 8301TIP3    H224845   0.210   7.168   3.377  0.0647  1.8573 -0.1355
 8302TIP3   OH224846   0.054   2.640   3.225 -0.5127  0.2446 -0.1960
 8302TIP3    H124847   0.021   2.647   3.136 -1.0344  0.8744  0.0414
 8302TIP3    H224848   0.015   2.559   3.259 -1.2495  0.6147 -0.1520
 8303TIP3   OH224849   3.583   3.079   0.270 -0.0265 -0.0031  0.6075
 8303TIP3    H124850   3.650   3.142   0.243 -0.4230 -0.1969 -0.9210
 8303TIP3    H224851   3.604   3.059   0.362  1.5082  0.5537  0.4036
 8304TIP3   OH224852   2.308   1.039   5.603 -0.0364 -0.1501 -0.0097
 8304TIP3    H124853   2.338   0.960   5.558  2.9843 -0.0868  1.6203
 8304TIP3    H224854   2.312   1.108   5.537 -1.3277 -1.0496 -1.0699
 8305TIP3   OH224855   5.055   3.673   0.647 -0.4145  0.0593  0.4329
 8305TIP3    H124856   5.043   3.586   0.611 -2.1441  0.0977  0.8489
 8305TIP3    H224857   5.143   3.672   0.684  0.3685 -0.8400 -1.3394
 8306TIP3   OH224858   7.297   7.792   2.158  0.5513 -0.3918 -0.5996
 8306TIP3    H124859   7.378   7.751   2.126  1.0043  0.0876 -0.1026
 8306TIP3    H224860   7.272   7.738   2.234  1.0013  0.0743 -0.1072
 8307TIP3   OH224861   4.659   2.143   5.411  0.4072  0.2049 -0.7112
 8307TIP3    H124862   4.735   2.194   5.383  1.1893 -0.6257 -0.1479
 8307TIP3    H224863   4.687   2.098   5.490 -0.2869 -0.9978 -1.1101
 8308TIP3   OH224864   3.092   6.110   3.732  0.4537 -0.2450 -0.3035
 8308TIP3    H124865   3.081   6.064   3.649 -1.2835  1.9588 -1.3853
 8308TIP3    H224866   3.016   6.168   3.738  2.3289  2.2904  1.0811
 8309TIP3   OH224867   2.087   5.964   5.558  0.1328  0.0470 -0.2415
 8309TIP3    H124868   2.168   5.998   5.595  0.1982 -1.6658  1.3830
 8309TIP3    H224869   2.108   5.873   5.536 -0.9108  0.0478 -1.2894
 8310TIP3   OH224870   4.518   4.206   4.583  0.3830 -0.3218 -0.1945
 8310TIP3    H124871   4.440   4.183   4.633 -0.4971 -2.1513 -2.2478
 8310TIP3    H224872   4.512   4.300   4.571 -1.3009 -0.3742  0.0190
 8311TIP3   OH224873   0.026   6.950   0.984  0.2769  0.5676  0.8515
 8311TIP3    H124874   0.081   7.028   0.993  1.2168  0.1986 -1.1629
 8311TIP3    H224875   0.081   6.886   0.939 -1.5910 -0.0206 -0.7637
 8312TIP3   OH224876   1.153   1.150   2.092 -0.1508  0.6051 -0.2788
 8312TIP3    H124877   1.232   1.098   2.109 -0.1933  0.4397 -0.5855
 8312TIP3    H224878   1.185   1.240   2.088  0.1162  0.4797 -1.0048
 8313TIP3   OH224879   0.802   6.611   2.862  0.0447 -0.5853 -0.7572
 8313TIP3    H124880   0.865   6.682   2.849  0.2536 -0.7761 -0.7874
 8313TIP3    H224881   0.792   6.604   2.957 -1.0416  0.4204 -0.7680
 8314TIP3   OH224882   7.115   3.141   4.058 -0.4437 -0.2698  0.9587
 8314TIP3    H124883   7.093   3.227   4.022 -1.5416  1.0980  4.3985
 8314TIP3    H224884   7.210   3.139   4.058 -0.3757  1.2240  1.2737
 8315TIP3   OH224885   7.339   1.580   1.979 -0.0151 -0.2456 -0.7968
 8315TIP3    H124886   7.400   1.617   2.043  0.6565 -0.4381 -1.3177
 8315TIP3    H224887   7.270   1.647   1.970 -0.6560 -0.6440  0.8659
 8316TIP3   OH224888   3.340   5.633   2.381  0.1448 -0.2054  0.5632
 8316TIP3    H124889   3.291   5.566   2.333  0.2294 -1.1886  1.8232
 8316TIP3    H224890   3.396   5.674   2.315 -1.3599  0.0116 -0.6356
 8317TIP3   OH224891   2.118   6.143   4.062 -0.1200  0.3171 -0.3730
 8317TIP3    H124892   2.084   6.217   4.012 -1.2095 -0.5939 -1.0452
 8317TIP3    H224893   2.103   6.167   4.154  1.8152  1.9662 -0.4217
 8318TIP3   OH224894   5.151   5.859   4.564 -0.4878  0.5118 -0.1177
 8318TIP3    H124895   5.224   5.910   4.599 -0.0114 -0.0909 -0.2210
 8318TIP3    H224896   5.102   5.831   4.640 -0.5660  0.8527 -0.0419
 8319TIP3   OH224897   2.583   1.365   2.837  0.2063 -0.2296 -0.1223
 8319TIP3    H124898   2.557   1.303   2.905 -0.9543  0.2054 -0.1319
 8319TIP3    H224899   2.549   1.327   2.756 -0.1793  0.2114 -0.1756
 8320TIP3   OH224900   4.074   3.038   4.141 -0.3919 -0.4130  0.2018
 8320TIP3    H124901   4.017   3.046   4.218 -1.7647 -0.2934 -0.7967
 8320TIP3    H224902   4.151   3.090   4.163  0.0244 -1.7403  2.1650
 8321TIP3   OH224903   0.785   7.412   5.580 -0.2330  0.1093 -0.0065
 8321TIP3    H124904   0.712   7.472   5.593 -1.2751 -0.9666 -0.6258
 8321TIP3    H224905   0.745   7.334   5.540  1.4706  0.0786 -1.8106
 8322TIP3   OH224906   1.884   1.954   5.396 -0.1784  0.0467  0.4240
 8322TIP3    H124907   1.942   1.881   5.419  2.4713  2.0055  0.4699
 8322TIP3    H224908   1.891   1.962   5.301 -0.0537  0.5221  0.4687
 8323TIP3   OH224909   7.088   3.105   1.454 -0.0827 -0.1890  0.4292
 8323TIP3    H124910   7.100   3.064   1.368 -1.9644 -0.5754  0.3033
 8323TIP3    H224911   7.125   3.042   1.516  1.3754  0.1361 -0.0873
 8324TIP3   OH224912   5.338   2.183   2.712 -0.9174 -0.2202  0.3007
 8324TIP3    H124913   5.325   2.108   2.653 -0.6953  0.1626 -0.2456
 8324TIP3    H224914   5.353   2.257   2.653 -1.5431  0.3370  0.8305
 8325TIP3   OH224915   1.888   1.096   5.840  0.0704 -0.2660  0.1466
 8325TIP3    H124916   1.975   1.055   5.841  0.8492  1.2370 -1.1402
 8325TIP3    H224917   1.827   1.023   5.829  1.3326 -1.1562 -1.2398
 8326TIP3   OH224918   4.125   0.856   0.122 -0.1708  0.1738  0.4991
 8326TIP3    H124919   4.049   0.800   0.142 -1.2121 -0.2425 -3.6538
 8326TIP3    H224920   4.089   0.945   0.121  0.0074  0.2540  0.9170
 8327TIP3   OH224921   7.978   5.920   3.417 -0.1531 -0.3175  0.2666
 8327TIP3    H124922   7.966   5.847   3.357  0.0258  0.2502 -0.4669
 8327TIP3    H224923   7.944   5.888   3.501  1.7921 -1.9759  0.4848
 8328TIP3   OH224924   2.856   4.264   5.979  0.0943 -0.4160  0.2168
 8328TIP3    H124925   2.924   4.227   5.922  0.2019  0.3255 -0.1611
 8328TIP3    H224926   2.781   4.206   5.968  0.0393 -0.1673 -0.8675
 8329TIP3   OH224927   4.644   1.152   0.469 -0.3696 -0.2150  0.5083
 8329TIP3    H124928   4.644   1.241   0.504  1.4965 -0.4808  1.3022
 8329TIP3    H224929   4.595   1.101   0.533  1.1641 -0.2791  1.7144
 8330TIP3   OH224930   5.906   6.446   1.339 -0.1374 -0.0011  0.0694
 8330TIP3    H124931   5.953   6.501   1.276 -1.0695  0.7115 -0.0234
 8330TIP3    H224932   5.891   6.505   1.414 -1.8538  0.1314 -0.3476
 8331TIP3   OH224933   4.962   4.010   6.414  0.7269  0.1771  0.4742
 8331TIP3    H124934   5.003   3.992   6.329 -0.6091  1.1547 -0.4109
 8331TIP3    H224935   4.914   3.930   6.435 -1.5867  1.0004 -1.3050
 8332TIP3   OH224936   6.658   0.911   4.083  0.4036 -0.0398  0.1759
 8332TIP3    H124937   6.661   0.821   4.114 -1.3468 -0.9276 -1.9536
 8332TIP3    H224938   6.580   0.948   4.124  0.3258  0.0408 -0.0427
 8333TIP3   OH224939   5.921   1.467   4.082  0.2000  0.1090  0.5325
 8333TIP3    H124940   5.905   1.509   4.167  0.8454  0.6359  0.3997
 8333TIP3    H224941   5.944   1.538   4.023 -0.3821 -0.2393 -0.1327
 8334TIP3   OH224942   2.738   3.228   1.812  0.1530  0.6244 -0.0809
 8334TIP3    H124943   2.752   3.169   1.886  1.0486 -0.2929 -0.9486
 8334TIP3    H224944   2.765   3.314   1.845 -0.7465  0.5023  1.0609
 8335TIP3   OH224945   6.442   3.978   3.048 -0.0383 -0.0372  0.8344
 8335TIP3    H124946   6.350   4.005   3.043 -0.3537 -1.1247  0.2323
 8335TIP3    H224947   6.475   4.020   3.127 -0.8273  1.0205  0.6290
 8336TIP3   OH224948   0.854   5.059   5.434  0.0742  0.1738  0.2861
 8336TIP3    H124949   0.927   5.118   5.455  0.5404 -0.3563  0.1831
 8336TIP3    H224950   0.873   4.979   5.483  1.6563 -1.4390 -2.6606
 8337TIP3   OH224951   7.205   7.742   6.734 -0.0002 -0.7518 -0.3205
 8337TIP3    H124952   7.159   7.710   6.812  0.2435  0.8146  0.5099
 8337TIP3    H224953   7.279   7.682   6.723  1.0774  0.1113  1.8262
 8338TIP3   OH224954   3.466   1.613   1.423 -0.3397 -0.3629  0.2629
 8338TIP3    H124955   3.414   1.618   1.343 -1.3107  0.1547  0.8970
 8338TIP3    H224956   3.406   1.642   1.492 -0.3887 -3.3555  1.6063
 8339TIP3   OH224957   2.623   0.937   1.370 -0.4123  0.2116 -0.2801
 8339TIP3    H124958   2.610   0.842   1.381 -1.2308  0.1543 -1.5402
 8339TIP3    H224959   2.618   0.972   1.458  0.1500 -0.9416  0.2416
 8340TIP3   OH224960   5.746   7.227   1.465  0.3837 -0.4123 -0.1148
 8340TIP3    H124961   5.743   7.310   1.513 -0.4467  0.4741 -1.6465
 8340TIP3    H224962   5.657   7.215   1.431  1.1454 -0.5618 -2.1627
 8341TIP3   OH224963   0.318   7.666   2.593  0.2296  0.0337 -0.5459
 8341TIP3    H124964   0.251   7.632   2.652  1.4977 -0.0030  0.9156
 8341TIP3    H224965   0.343   7.750   2.631  0.1133  0.6480 -1.7919
 8342TIP3   OH224966   4.177   2.802   4.009 -0.3427 -0.3689 -0.3192
 8342TIP3    H124967   4.161   2.751   4.088  4.5505 -2.0049 -0.0719
 8342TIP3    H224968   4.170   2.893   4.038  0.1904 -0.9253  1.7303
 8343TIP3   OH224969   5.235   7.653   2.203  0.0835 -0.3447 -0.2239
 8343TIP3    H124970   5.246   7.579   2.262  3.4809 -0.5783 -0.9908
 8343TIP3    H224971   5.282   7.725   2.244 -0.2839  0.4303 -1.1090
 8344TIP3   OH224972   0.293   5.033   4.070  0.3294 -0.5899  0.7443
 8344TIP3    H124973   0.385   5.052   4.088  0.4818 -1.1603  0.5850
 8344TIP3    H224974   0.282   5.054   3.978  0.5405 -1.3916  0.5240
 8345TIP3   OH224975   5.514   3.780   0.633  0.0554 -0.0723  0.1600
 8345TIP3    H124976   5.501   3.838   0.557  0.7692  2.2954  1.7399
 8345TIP3    H224977   5.476   3.697   0.605 -1.7681  1.3318 -1.9896
 8346TIP3   OH224978   4.521   2.780   1.367  0.2261  0.1414 -0.4309
 8346TIP3    H124979   4.579   2.727   1.422  0.3081  0.4606 -0.2033
 8346TIP3    H224980   4.472   2.833   1.430 -1.5907 -1.3598 -0.4884
 8347TIP3   OH224981   0.576   6.661   1.895 -0.0841  0.5123  0.2167
 8347TIP3    H124982   0.572   6.585   1.952 -0.6372  0.0189 -0.4525
 8347TIP3    H224983   0.655   6.648   1.842  0.2554  0.8093  0.6479
 8348TIP3   OH224984   6.180   4.425   2.864  0.5211 -0.2275 -0.4982
 8348TIP3    H124985   6.188   4.519   2.846 -1.0968 -0.1786 -1.0870
 8348TIP3    H224986   6.261   4.388   2.829  1.1584  0.9325 -0.3136
 8349TIP3   OH224987   7.918   5.867   5.140  0.1228  0.0508 -0.1345
 8349TIP3    H124988   7.912   5.850   5.046  0.1892 -1.1196  0.0592
 8349TIP3    H224989   7.963   5.791   5.176  0.8969  0.8984  0.7389
 8350TIP3   OH224990   1.141   2.834   4.126  0.4497  0.2216  0.4668
 8350TIP3    H124991   1.234   2.837   4.101  0.3477  1.8408  0.1531
 8350TIP3    H224992   1.109   2.751   4.091  2.3048 -1.5350  2.6094
 8351TIP3   OH224993   6.045   5.256   3.579  0.1786 -0.2717  0.4723
 8351TIP3    H124994   5.965   5.206   3.593 -0.2162  0.1619 -0.1396
 8351TIP3    H224995   6.107   5.193   3.544 -0.2573 -0.3848 -0.1233
 8352TIP3   OH224996   7.951   3.813   0.581  0.2818 -0.4301 -0.2320
 8352TIP3    H124997   8.024   3.778   0.530  1.0669 -0.4728  0.8770
 8352TIP3    H224998   7.980   3.899   0.610 -0.0012 -0.5328  0.3968
 8353TIP3   OH224999   3.128   4.268   6.568 -0.1025 -0.0510  0.2974
 8353TIP3    H125000   3.219   4.242   6.583  0.2166  0.0490 -1.2488
 8353TIP3    H225001   3.105   4.227   6.484 -2.4061 -2.3912  1.9144
 8354TIP3   OH225002   4.894   6.163   0.281 -0.2293 -0.4333 -0.0611
 8354TIP3    H125003   4.903   6.253   0.249  1.6921 -1.1776 -1.8762
 8354TIP3    H225004   4.899   6.109   0.202  1.2038 -2.2392  1.1588
 8355TIP3   OH225005   3.973   4.456   1.162  0.5810 -0.1485  0.0959
 8355TIP3    H125006   3.885   4.473   1.195  0.6621  1.9196 -0.6288
 8355TIP3    H225007   3.959   4.409   1.079  0.1602  0.1620 -0.0108
 8356TIP3   OH225008   4.150   7.708   4.746  0.4644 -0.1517  0.4035
 8356TIP3    H125009   4.145   7.726   4.840  1.3829 -0.2003  0.4651
 8356TIP3    H225010   4.182   7.790   4.708  1.7149 -0.6653  0.3293
 8357TIP3   OH225011   2.338   1.484   6.235 -0.5381 -0.2118  0.2983
 8357TIP3    H125012   2.326   1.411   6.296 -0.9334 -2.1309 -1.9638
 8357TIP3    H225013   2.254   1.530   6.235 -1.1182 -1.2567 -0.1087
 8358TIP3   OH225014   6.820   0.862   1.611  0.4337 -0.3619 -0.5182
 8358TIP3    H125015   6.758   0.814   1.667  0.6962 -1.0838 -0.8411
 8358TIP3    H225016   6.882   0.796   1.582  2.0445  0.5280  0.6994
 8359TIP3   OH225017   5.156   0.109   4.880 -0.0652  0.1066 -0.1343
 8359TIP3    H125018   5.133   0.172   4.949  0.0234  0.2308 -0.2187
 8359TIP3    H225019   5.240   0.072   4.909 -0.8987 -1.1621  0.7443
 8360TIP3   OH225020   6.250   4.458   1.210  0.2162 -0.1063  0.0040
 8360TIP3    H125021   6.214   4.448   1.122  0.8909  1.4574 -0.4962
 8360TIP3    H225022   6.233   4.375   1.253 -0.7648 -0.6535 -1.3708
 8361TIP3   OH225023   2.380   2.880   6.392  0.5395  0.3254 -0.0589
 8361TIP3    H125024   2.465   2.922   6.394  0.6606  0.0681  0.9945
 8361TIP3    H225025   2.396   2.794   6.352  1.2710 -0.6784  2.2112
 8362TIP3   OH225026   4.810   7.341   5.101 -0.1463  0.0131 -0.3550
 8362TIP3    H125027   4.827   7.260   5.148  0.7819  0.1608 -0.4125
 8362TIP3    H225028   4.767   7.314   5.020  0.1494 -0.4211 -0.3692
 8363TIP3   OH225029   6.850   5.262   4.422 -0.0569 -0.3316  0.0659
 8363TIP3    H125030   6.763   5.242   4.388 -1.6510 -0.2153  3.6041
 8363TIP3    H225031   6.859   5.357   4.410 -0.7352 -0.2301  0.3031
 8364TIP3   OH225032   5.033   3.627   2.386  0.0445 -0.0893  0.1387
 8364TIP3    H125033   4.999   3.542   2.356  0.3590 -0.5206  0.9552
 8364TIP3    H225034   4.961   3.667   2.433  0.1553 -0.2849  0.4795
 8365TIP3   OH225035   5.391   0.867   0.336  0.7023 -0.0002 -0.3909
 8365TIP3    H125036   5.312   0.832   0.295 -0.4396  0.8834  0.9798
 8365TIP3    H225037   5.454   0.795   0.331 -0.1518 -0.6983 -1.5661
 8366TIP3   OH225038   1.174   5.258   3.136 -0.5362 -0.2323 -0.3434
 8366TIP3    H125039   1.085   5.228   3.117 -0.5041 -1.8400  1.6787
 8366TIP3    H225040   1.230   5.198   3.088 -0.5444 -1.3027  0.9074
 8367TIP3   OH225041   7.215   0.764   4.473  0.1940  0.2334  0.7418
 8367TIP3    H125042   7.228   0.720   4.389 -0.4953  0.2714  0.6035
 8367TIP3    H225043   7.200   0.856   4.450  0.3128  0.2999  0.9302
 8368TIP3   OH225044   7.319   0.071   2.132 -0.1811 -0.1845  0.0946
 8368TIP3    H125045   7.392   0.072   2.194  0.2585  0.1390 -0.4300
 8368TIP3    H225046   7.253   0.127   2.172 -0.2616 -0.6961  0.7019
 8369TIP3   OH225047   2.653   2.056   5.911  0.4031 -0.6190  0.1056
 8369TIP3    H125048   2.736   2.093   5.940 -0.0193 -0.1173  0.6770
 8369TIP3    H225049   2.654   2.069   5.816  0.1775  1.0569  0.3069
 8370TIP3   OH225050   2.530   4.535   2.075  0.0748 -0.5787  0.1541
 8370TIP3    H125051   2.472   4.577   2.011 -0.4575 -1.3550  0.1076
 8370TIP3    H225052   2.616   4.573   2.058  0.1505 -1.4623 -1.6966
 8371TIP3   OH225053   1.083   5.417   4.427 -0.4993  0.6442  0.3872
 8371TIP3    H125054   1.017   5.409   4.495  0.1371 -1.8098  0.8228
 8371TIP3    H225055   1.147   5.349   4.447  0.2023  0.4345 -2.1342
 8372TIP3   OH225056   3.470   3.368   0.249  0.0711  0.2276  0.1592
 8372TIP3    H125057   3.503   3.316   0.175  0.3943  1.4733 -0.6130
 8372TIP3    H225058   3.547   3.417   0.279 -0.4557  1.0399  0.1848
 8373TIP3   OH225059   1.539   7.749   1.012 -0.3506 -0.2338 -0.4931
 8373TIP3    H125060   1.558   7.667   0.967  1.7150  0.1059 -0.3469
 8373TIP3    H225061   1.558   7.731   1.104  1.3895  0.6861 -0.6154
 8374TIP3   OH225062   8.401   1.626   3.077  0.0895 -0.2483 -0.0030
 8374TIP3    H125063   8.375   1.581   2.997  1.7928  1.4104 -1.5886
 8374TIP3    H225064   8.341   1.593   3.144 -2.7282 -0.2293 -2.3398
 8375TIP3   OH225065   5.590   0.187   6.352  0.0640  0.3966 -0.2135
 8375TIP3    H125066   5.684   0.179   6.334  0.2464 -1.6447  1.3076
 8375TIP3    H225067   5.583   0.266   6.405  1.0793  0.0333  0.4920
 8376TIP3   OH225068   7.665   2.461   0.993 -0.3309 -0.2732  0.3927
 8376TIP3    H125069   7.716   2.497   0.921  0.5580 -0.7858  0.7465
 8376TIP3    H225070   7.694   2.509   1.070 -2.4580  1.4351  0.2211
 8377TIP3   OH225071   3.075   6.611   0.815  0.5574  0.3411 -0.0415
 8377TIP3    H125072   3.113   6.531   0.852  1.1133 -0.1513 -1.6156
 8377TIP3    H225073   3.022   6.647   0.886 -0.2356 -1.7766  0.5244
 8378TIP3   OH225074   6.694   1.974   1.621  0.4506  0.1649  0.1258
 8378TIP3    H125075   6.639   1.930   1.556  1.6605  0.0118 -0.8240
 8378TIP3    H225076   6.664   1.939   1.705 -0.3930 -0.4686 -0.4258
 8379TIP3   OH225077   1.950   1.498   0.296  0.3592  0.0405  0.0683
 8379TIP3    H125078   1.876   1.461   0.343  0.2014 -0.4967 -0.5773
 8379TIP3    H225079   1.940   1.465   0.206  1.5115 -0.2545  0.0277
 8380TIP3   OH225080   8.241   4.879   3.630 -0.2550 -0.1374 -0.3743
 8380TIP3    H125081   8.337   4.882   3.629 -0.2556 -0.0629 -1.3478
 8380TIP3    H225082   8.220   4.795   3.672  0.2160  0.2129  0.5761
 8381TIP3   OH225083   4.196   3.779   0.929  0.0408  0.6490 -0.1458
 8381TIP3    H125084   4.211   3.686   0.949 -0.9368  0.8213  1.6364
 8381TIP3    H225085   4.208   3.823   1.014  0.7594  2.1970 -1.0148
 8382TIP3   OH225086   7.002   0.313   5.589 -0.2327  0.4596 -0.0914
 8382TIP3    H125087   6.996   0.219   5.609 -0.2417  0.7193  1.1963
 8382TIP3    H225088   6.955   0.322   5.506  0.8371 -0.8593 -0.8736
 8383TIP3   OH225089   3.399   4.628   2.311 -0.0617 -0.1217  0.1172
 8383TIP3    H125090   3.424   4.715   2.341 -0.9702 -0.0237  0.6547
 8383TIP3    H225091   3.477   4.574   2.324  0.9952  0.8947 -1.5856
 8384TIP3   OH225092   5.894   3.197   0.299 -0.0696 -0.4042  0.5484
 8384TIP3    H125093   5.836   3.178   0.226 -2.8890  0.2895  2.4574
 8384TIP3    H225094   5.909   3.291   0.294 -0.2144 -0.3664  0.8422
 8385TIP3   OH225095   6.445   4.529   0.644 -0.1419  0.7149 -0.2863
 8385TIP3    H125096   6.514   4.502   0.705 -0.0405  2.5412  0.4931
 8385TIP3    H225097   6.372   4.471   0.663  0.2253  0.6160  0.9316
 8386TIP3   OH225098   4.362   4.504   5.186  0.1707  0.5007 -0.2934
 8386TIP3    H125099   4.311   4.445   5.241  1.4780  0.8310  1.3326
 8386TIP3    H225100   4.348   4.591   5.224  2.3430  0.5319  0.5678
 8387TIP3   OH225101   0.846   2.089   0.578  0.1356  0.4639 -0.0868
 8387TIP3    H125102   0.886   2.033   0.511 -0.2128  1.8199 -1.4829
 8387TIP3    H225103   0.920   2.134   0.619  0.4567 -1.2029  1.3065
 8388TIP3   OH225104   8.065   7.097   5.843  0.0818 -0.3284  0.6934
 8388TIP3    H125105   8.119   7.173   5.821  2.3765 -2.3033 -1.1177
 8388TIP3    H225106   8.004   7.089   5.769  1.6219 -1.6812 -0.4950
 8389TIP3   OH225107   8.046   7.141   3.661  0.1102 -0.2142 -0.2066
 8389TIP3    H125108   8.137   7.170   3.656  0.6642 -1.6364  1.0502
 8389TIP3    H225109   8.040   7.072   3.594 -0.3562  0.5909 -1.0187
 8390TIP3   OH225110   1.940   3.869   2.882 -0.3654 -0.2487 -0.4248
 8390TIP3    H125111   1.985   3.862   2.967 -1.4874  0.3684  0.2389
 8390TIP3    H225112   2.011   3.871   2.818  0.4916 -1.7048  0.4071
 8391TIP3   OH225113   4.666   0.252   2.693 -0.1076 -0.0122 -0.4042
 8391TIP3    H125114   4.685   0.337   2.735  0.2468  0.5325 -1.6362
 8391TIP3    H225115   4.577   0.231   2.723  0.5553 -0.2430  1.5601
 8392TIP3   OH225116   4.300   3.037   6.542 -0.2116  0.1175 -0.2358
 8392TIP3    H125117   4.262   3.009   6.459  1.3766 -0.3800 -0.8393
 8392TIP3    H225118   4.275   2.969   6.604 -0.8524  0.1435 -0.4665
 8393TIP3   OH225119   3.733   6.385   6.202  0.4829  0.5505 -0.3359
 8393TIP3    H125120   3.716   6.462   6.148 -0.7789 -0.8574 -2.0313
 8393TIP3    H225121   3.695   6.407   6.287 -1.4803  1.1502 -1.3100
 8394TIP3   OH225122   5.122   3.537   4.177 -0.0957 -0.3181  0.7333
 8394TIP3    H125123   5.171   3.539   4.260  1.1535  0.9297  0.0056
 8394TIP3    H225124   5.180   3.493   4.115  0.0313  0.9339 -0.0740
 8395TIP3   OH225125   5.305   0.101   0.576 -0.5247 -1.1437  0.1034
 8395TIP3    H125126   5.277   0.187   0.546  2.4405  0.1723  0.7255
 8395TIP3    H225127   5.284   0.099   0.669  0.6100 -0.5072  0.3859
 8396TIP3   OH225128   2.925   1.653   2.704  0.1181 -0.6808 -0.5626
 8396TIP3    H125129   2.989   1.582   2.693 -0.6522 -1.4175 -0.3806
 8396TIP3    H225130   2.893   1.642   2.793  0.1105  0.0086 -0.4776
 8397TIP3   OH225131   0.188   2.463   5.325 -0.9224 -0.1591 -0.2030
 8397TIP3    H125132   0.150   2.441   5.240 -2.0259  0.3156  0.1376
 8397TIP3    H225133   0.159   2.393   5.383 -0.3928 -0.3411 -0.1542
 8398TIP3   OH225134   5.591   4.133   3.670 -0.2149 -0.2683 -0.3294
 8398TIP3    H125135   5.548   4.088   3.743  1.5485 -0.8456  0.4195
 8398TIP3    H225136   5.577   4.226   3.688 -0.6843 -0.4304  0.1763
 8399TIP3   OH225137   4.043   1.304   0.555 -0.2119 -0.0674  0.1084
 8399TIP3    H125138   3.982   1.283   0.625 -1.3280 -1.3384 -1.1685
 8399TIP3    H225139   4.125   1.262   0.580 -0.4904 -0.1923  0.8137
 8400TIP3   OH225140   5.639   2.366   1.070 -0.2691 -0.4311 -0.5092
 8400TIP3    H125141   5.600   2.445   1.032 -0.0764  1.0630  2.1086
 8400TIP3    H225142   5.565   2.316   1.104 -0.2258  0.4572  0.9837
 8401TIP3   OH225143   6.204   3.024   3.477 -0.1436  0.3370 -0.5341
 8401TIP3    H125144   6.178   3.060   3.392  0.9334 -0.2086 -1.1178
 8401TIP3    H225145   6.158   3.078   3.541 -1.9636 -0.0145 -1.4696
 8402TIP3   OH225146   4.950   1.426   3.096  0.1210  0.2337 -0.1320
 8402TIP3    H125147   4.966   1.519   3.114 -2.0561  0.9252 -1.3106
 8402TIP3    H225148   4.881   1.402   3.158  0.7608 -0.6492  0.2500
 8403TIP3   OH225149   2.538   7.679   4.276  0.1565  0.0724  0.3826
 8403TIP3    H125150   2.606   7.634   4.326  0.3565  0.5644  0.5580
 8403TIP3    H225151   2.572   7.768   4.263 -1.1834  0.8744  1.9551
 8404TIP3   OH225152   1.513   4.195   3.966  0.1681 -0.3234 -0.3556
 8404TIP3    H125153   1.454   4.270   3.960 -0.2526 -0.5238  0.9429
 8404TIP3    H225154   1.502   4.149   3.883 -0.2135  0.5877 -0.8175
 8405TIP3   OH225155   7.091   3.763   3.499 -0.2317  0.1822  0.2062
 8405TIP3    H125156   7.029   3.792   3.433 -1.1147 -2.7435 -0.3427
 8405TIP3    H225157   7.056   3.681   3.532  1.2322  0.5190  2.9144
 8406TIP3   OH225158   7.019   3.203   4.918  0.1602  0.0651 -0.2469
 8406TIP3    H125159   6.932   3.205   4.957 -1.1856  1.5178 -2.9988
 8406TIP3    H225160   7.028   3.113   4.886  0.9532 -0.9081  2.4219
 8407TIP3   OH225161   2.685   1.259   5.203 -0.2200  0.0248  0.2059
 8407TIP3    H125162   2.686   1.215   5.118 -1.3847 -2.4658  1.3671
 8407TIP3    H225163   2.606   1.226   5.246  0.2967  1.2431  2.2448
 8408TIP3   OH225164   7.454   1.369   0.974  0.0042  0.5888  0.0000
 8408TIP3    H125165   7.359   1.357   0.970  0.1259 -0.5911  0.1513
 8408TIP3    H225166   7.480   1.377   0.882  0.0069 -1.5521 -0.2378
 8409TIP3   OH225167   2.796   5.913   3.454 -0.0393  0.1685 -0.0300
 8409TIP3    H125168   2.881   5.897   3.493 -0.9604 -0.7359  1.7382
 8409TIP3    H225169   2.733   5.876   3.516 -1.7289  0.7506 -1.2909
 8410TIP3   OH225170   7.709   5.429   6.329 -0.6595 -0.6511 -0.5733
 8410TIP3    H125171   7.754   5.512   6.346  0.8451 -1.4655 -0.4590
 8410TIP3    H225172   7.721   5.378   6.408  2.8988 -2.9096 -2.3323
 8411TIP3   OH225173   5.668   3.144   2.631 -0.2580 -0.4281  0.1007
 8411TIP3    H125174   5.677   3.231   2.591 -1.2345 -0.1756  0.4025
 8411TIP3    H225175   5.641   3.087   2.559 -0.3892 -0.3151  0.0590
 8412TIP3   OH225176   6.669   3.735   1.949  0.2409 -0.5105  0.0804
 8412TIP3    H125177   6.741   3.672   1.960  0.4977 -0.3373 -0.5439
 8412TIP3    H225178   6.713   3.818   1.930 -0.1254 -0.7199 -1.9324
 8413TIP3   OH225179   0.760   7.709   1.630 -0.2085  0.0742 -0.5275
 8413TIP3    H125180   0.684   7.736   1.681  0.6220 -0.9879  1.3447
 8413TIP3    H225181   0.828   7.772   1.653  0.4835 -1.0307  0.5598
 8414TIP3   OH225182   3.870   6.252   0.958  0.5428  0.2381 -0.3155
 8414TIP3    H125183   3.846   6.236   1.049 -0.8105  1.7410 -0.3595
 8414TIP3    H225184   3.853   6.168   0.914 -0.2159 -0.0856  0.5568
 8415TIP3   OH225185   2.165   5.302   4.513  0.2276  0.2967 -0.3487
 8415TIP3    H125186   2.189   5.215   4.481 -1.0218  0.1351 -0.9008
 8415TIP3    H225187   2.248   5.349   4.518  0.8726 -0.7881 -0.4398
 8416TIP3   OH225188   3.401   2.089   6.398 -0.6594  0.3457 -0.0784
 8416TIP3    H125189   3.391   2.111   6.305  0.4421 -2.1420 -0.8492
 8416TIP3    H225190   3.495   2.091   6.414 -0.7623 -0.2967  0.6948
 8417TIP3   OH225191   7.600   7.380   2.576 -0.1570 -0.0017 -0.9304
 8417TIP3    H125192   7.513   7.382   2.616  0.1613 -1.5802 -0.0803
 8417TIP3    H225193   7.594   7.442   2.503 -1.2426  1.7472  0.5537
 8418TIP3   OH225194   3.033   4.551   0.560 -0.2794  0.0272  0.2231
 8418TIP3    H125195   3.062   4.606   0.632  1.6422 -0.3167 -0.2207
 8418TIP3    H225196   2.986   4.610   0.501 -1.2153  0.4546  1.3708
 8419TIP3   OH225197   5.696   5.014   6.803 -0.5481  0.3713  0.7715
 8419TIP3    H125198   5.779   4.967   6.803 -1.0895 -0.6422 -0.4977
 8419TIP3    H225199   5.670   5.017   6.895  0.7208  0.4230  1.1522
 8420TIP3   OH225200   3.092   4.233   3.533  0.4251  0.4198  0.2883
 8420TIP3    H125201   3.176   4.213   3.493  0.8126 -0.1150  1.3468
 8420TIP3    H225202   3.052   4.296   3.474  1.8225  1.1372  0.0791
 8421TIP3   OH225203   2.465   6.571   1.042  0.2891 -0.2235 -0.2707
 8421TIP3    H125204   2.457   6.657   1.082 -0.2051 -0.7908  0.9042
 8421TIP3    H225205   2.403   6.573   0.969  0.5727  0.5419 -0.5005
 8422TIP3   OH225206   3.544   5.377   1.457  0.4659  0.4829  0.0169
 8422TIP3    H125207   3.592   5.453   1.423  2.2503  0.3011  1.9389
 8422TIP3    H225208   3.600   5.343   1.527 -1.3896 -1.2185  0.7532
 8423TIP3   OH225209   1.912   0.778   3.409  0.1036 -0.1269 -0.0138
 8423TIP3    H125210   1.857   0.850   3.441  0.3968  0.4872 -0.8517
 8423TIP3    H225211   1.999   0.798   3.443  0.5177  0.7901 -1.5546
 8424TIP3   OH225212   3.783   0.439   0.850 -0.0472 -0.0002 -0.1919
 8424TIP3    H125213   3.868   0.475   0.823 -0.2886  0.2269 -0.6671
 8424TIP3    H225214   3.798   0.407   0.938  0.3857  0.5710 -0.0468
 8425TIP3   OH225215   4.664   5.983   2.460  0.1773 -0.0362 -0.2973
 8425TIP3    H125216   4.648   5.948   2.372  0.6618  0.0784 -0.4304
 8425TIP3    H225217   4.577   5.986   2.500 -0.0910  0.2276 -0.8925
 8426TIP3   OH225218   5.708   7.320   1.081  0.2870 -0.0314  0.2765
 8426TIP3    H125219   5.674   7.402   1.116 -0.3444 -0.9796  1.9978
 8426TIP3    H225220   5.676   7.253   1.141 -0.0607 -1.6768 -1.6215
 8427TIP3   OH225221   1.252   1.571   2.308 -0.0436 -0.0888 -0.1979
 8427TIP3    H125222   1.221   1.494   2.355  0.9390 -0.7426 -0.6032
 8427TIP3    H225223   1.172   1.614   2.277 -0.6953  0.1183  1.6530
 8428TIP3   OH225224   5.646   4.748   6.342  0.3776  0.1112  0.1389
 8428TIP3    H125225   5.557   4.783   6.333  0.7154  0.6909 -1.1946
 8428TIP3    H225226   5.634   4.663   6.383 -0.6977  0.6263  0.9458
 8429TIP3   OH225227   4.120   7.128   2.787 -0.0818  0.0484 -0.1223
 8429TIP3    H125228   4.090   7.113   2.697 -0.3205 -0.2644  0.0052
 8429TIP3    H225229   4.041   7.157   2.834 -0.2621 -1.0360  0.2779
 8430TIP3   OH225230   1.142   5.774   3.115 -0.6379  0.2144 -0.1251
 8430TIP3    H125231   1.133   5.736   3.028 -0.4630  0.6198 -0.3209
 8430TIP3    H225232   1.140   5.698   3.174  0.3498 -0.1603 -0.5494
 8431TIP3   OH225233   7.517   3.343   4.890 -0.3835  0.2763  0.2054
 8431TIP3    H125234   7.581   3.302   4.832 -1.7865 -0.5223 -0.8528
 8431TIP3    H225235   7.441   3.360   4.834 -1.2263  0.8930  1.4745
 8432TIP3   OH225236   6.083   4.458   5.320 -0.2171  0.1283 -0.5353
 8432TIP3    H125237   6.162   4.407   5.302  0.2106  0.4994  0.2435
 8432TIP3    H225238   6.028   4.399   5.372 -0.3330 -0.0320 -0.8388
 8433TIP3   OH225239   7.879   2.771   2.429 -0.3182  0.4357 -0.5265
 8433TIP3    H125240   7.906   2.789   2.519  1.2941 -0.3390 -0.8219
 8433TIP3    H225241   7.959   2.781   2.378 -0.1935 -3.1855 -1.3023
 8434TIP3   OH225242   0.512   2.637   3.123  0.0570  0.0244  0.4591
 8434TIP3    H125243   0.502   2.626   3.028  0.4560 -0.8531  0.5130
 8434TIP3    H225244   0.605   2.619   3.139 -0.0789 -0.1483  1.0568
 8435TIP3   OH225245   6.755   6.579   0.373 -0.0159  0.1547  0.3783
 8435TIP3    H125246   6.763   6.662   0.326 -1.3271  0.4801  0.6988
 8435TIP3    H225247   6.793   6.596   0.459  0.1767  0.2796  0.2682
 8436TIP3   OH225248   3.953   4.224   4.916  0.0427 -0.0402 -0.2532
 8436TIP3    H125249   3.881   4.252   4.859 -0.8220 -0.9524  0.3531
 8436TIP3    H225250   4.022   4.196   4.855 -2.3914 -5.2215 -1.2038
 8437TIP3   OH225251   3.597   7.901   2.882 -0.2622 -0.3375  0.3561
 8437TIP3    H125252   3.645   7.882   2.963  1.1735  1.3527 -0.0424
 8437TIP3    H225253   3.508   7.920   2.911  0.3358  0.6933  1.6092
 8438TIP3   OH225254   1.896   1.197   1.142 -0.3491 -0.2062 -0.1439
 8438TIP3    H125255   1.991   1.183   1.146 -0.4172 -1.1775 -1.3944
 8438TIP3    H225256   1.884   1.261   1.072 -0.5652  0.5913  0.6152
 8439TIP3   OH225257   6.355   5.123   1.253 -0.5947  0.1530 -0.1550
 8439TIP3    H125258   6.348   5.208   1.297  0.7297 -0.0270  0.4725
 8439TIP3    H225259   6.281   5.073   1.285  0.4313 -0.0374  2.1348
 8440TIP3   OH225260   5.601   5.675   0.337  0.1209 -0.0989 -0.0774
 8440TIP3    H125261   5.670   5.654   0.274 -1.0351 -1.0546 -1.0920
 8440TIP3    H225262   5.632   5.639   0.420  1.2693  0.3780 -0.2850
 8441TIP3   OH225263   6.137   4.071   2.660 -0.2947 -0.9379 -0.1297
 8441TIP3    H125264   6.124   4.032   2.574 -0.3291  0.9177 -1.0049
 8441TIP3    H225265   6.198   4.143   2.645 -0.2928 -0.5853  1.4108
 8442TIP3   OH225266   7.176   5.506   5.989 -0.2363  0.3803  0.1149
 8442TIP3    H125267   7.244   5.571   5.974 -0.6954  1.3679  1.9703
 8442TIP3    H225268   7.101   5.556   6.022 -0.4277 -1.0797  2.1521
 8443TIP3   OH225269   0.747   6.277   0.024 -0.7393 -0.1682 -0.1923
 8443TIP3    H125270   0.816   6.213   0.005 -0.3559  0.4948 -1.1047
 8443TIP3    H225271   0.795   6.355   0.051 -1.1965 -0.1655  0.6312
 8444TIP3   OH225272   1.006   5.080   4.531 -0.0061 -0.2735  0.2077
 8444TIP3    H125273   0.934   5.024   4.562 -0.8215 -0.5465 -1.9685
 8444TIP3    H225274   1.026   5.137   4.605 -0.5633 -2.0395  1.8115
 8445TIP3   OH225275   4.663   1.129   5.217 -0.5225  0.3098 -0.3946
 8445TIP3    H125276   4.643   1.120   5.311 -1.1538  0.0460 -0.5485
 8445TIP3    H225277   4.590   1.086   5.173 -0.9217  1.5830 -1.0439
 8446TIP3   OH225278   1.186   7.285   1.601 -0.0599 -0.4330  0.2044
 8446TIP3    H125279   1.104   7.240   1.585  0.7006 -1.5290 -0.7533
 8446TIP3    H225280   1.253   7.229   1.562  0.8667  1.9378 -1.9540
 8447TIP3   OH225281   1.386   4.077   5.450  0.3648  0.2871 -0.4879
 8447TIP3    H125282   1.373   4.126   5.369  1.3201  0.6552 -0.4282
 8447TIP3    H225283   1.474   4.042   5.444 -0.1017 -0.9768 -0.2748
 8448TIP3   OH225284   5.373   4.262   2.056  0.5422 -0.1476 -0.3203
 8448TIP3    H125285   5.380   4.265   2.152 -0.4132  1.0298 -0.2717
 8448TIP3    H225286   5.462   4.239   2.027  0.4096 -2.5995  0.8832
 8449TIP3   OH225287   0.761   3.600   3.002  0.1151 -0.3222 -0.4963
 8449TIP3    H125288   0.803   3.516   2.985 -1.3715 -1.0705 -0.6285
 8449TIP3    H225289   0.678   3.595   2.954 -0.8236  0.4873  0.9927
 8450TIP3   OH225290   2.688   4.371   2.736 -0.7413  0.2308 -0.0913
 8450TIP3    H125291   2.774   4.367   2.778 -1.1312 -3.3964  0.7629
 8450TIP3    H225292   2.705   4.409   2.650  1.3813  1.2264  0.6998
 8451TIP3   OH225293   4.754   6.640   0.762  0.2112 -0.5067  0.4349
 8451TIP3    H125294   4.794   6.594   0.836  0.5573 -2.0573 -0.6620
 8451TIP3    H225295   4.778   6.588   0.686  1.2802  1.9709 -1.0145
 8452TIP3   OH225296   7.076   0.497   3.653  0.1428  0.5578  0.4134
 8452TIP3    H125297   7.065   0.407   3.684 -0.9153  0.5648  0.1003
 8452TIP3    H225298   6.996   0.542   3.680 -0.0324  1.0037 -0.7744
 8453TIP3   OH225299   4.409   3.670   0.401  0.0874  0.0810 -0.0668
 8453TIP3    H125300   4.476   3.605   0.423 -0.0631  0.3391  1.1950
 8453TIP3    H225301   4.457   3.753   0.393  0.1220  0.0140 -0.6614
 8454TIP3   OH225302   5.984   4.708   1.527  0.0970 -0.0965  0.3188
 8454TIP3    H125303   5.904   4.654   1.527  0.0417 -0.0125  0.4736
 8454TIP3    H225304   6.017   4.703   1.617 -0.0449  0.3347  0.3952
 8455TIP3   OH225305   2.986   3.304   6.504 -0.6981  0.3566 -0.3052
 8455TIP3    H125306   2.941   3.280   6.585 -0.4453 -1.5779 -0.6748
 8455TIP3    H225307   2.916   3.310   6.438 -0.5925 -1.8867 -0.7129
 8456TIP3   OH225308   7.798   0.509   6.511 -0.1403  0.0176 -0.4290
 8456TIP3    H125309   7.787   0.433   6.568 -0.3089 -1.0983 -1.8937
 8456TIP3    H225310   7.883   0.546   6.535  0.8310 -1.7616 -0.9374
 8457TIP3   OH225311   5.803   3.337   2.259  0.4045 -0.2599  0.2052
 8457TIP3    H125312   5.755   3.341   2.176 -0.2325  0.0287  0.5802
 8457TIP3    H225313   5.877   3.396   2.246 -1.2282  2.0399  0.7870
 8458TIP3   OH225314   6.208   6.517   3.223  1.2461  0.5551 -0.2163
 8458TIP3    H125315   6.181   6.606   3.201 -2.4984 -0.3443  0.0402
 8458TIP3    H225316   6.214   6.472   3.139  0.7686  0.4940 -0.2212
 8459TIP3   OH225317   7.177   2.053   1.570 -0.2294  0.2152 -0.5151
 8459TIP3    H125318   7.116   2.016   1.635  1.1799 -0.2912  0.5878
 8459TIP3    H225319   7.253   2.080   1.622 -0.7050  3.7406 -1.4054
 8460TIP3   OH225320   4.197   2.000   0.565 -0.2530 -0.0747 -0.0595
 8460TIP3    H125321   4.181   2.021   0.473 -2.6755  1.4620  0.6113
 8460TIP3    H225322   4.213   2.085   0.606 -1.4399 -0.4634  1.2850
 8461TIP3   OH225323   2.114   0.968   5.819  0.1096  0.0058 -0.9014
 8461TIP3    H125324   2.169   0.991   5.744 -0.0106  0.4893 -0.8445
 8461TIP3    H225325   2.123   0.873   5.827 -0.5392 -0.1600 -2.0462
 8462TIP3   OH225326   7.567   3.049   0.521  0.3757 -0.1248 -0.2835
 8462TIP3    H125327   7.625   2.974   0.531  1.6737  0.6761 -1.4222
 8462TIP3    H225328   7.522   3.034   0.437  0.3869  0.1996 -0.3496
 8463TIP3   OH225329   4.749   4.560   2.444 -0.1459 -0.0242  0.1049
 8463TIP3    H125330   4.750   4.493   2.512  0.9139  0.1892  0.3018
 8463TIP3    H225331   4.810   4.528   2.378  0.3771  0.7581  0.2058
 8464TIP3   OH225332   3.643   7.269   5.223  0.2304 -0.0125  0.2638
 8464TIP3    H125333   3.548   7.270   5.235 -0.4325 -1.0289 -3.5447
 8464TIP3    H225334   3.664   7.357   5.193  0.3004 -0.1132  0.0176
 8465TIP3   OH225335   0.244   6.689   5.364 -0.4473  0.3711  0.8932
 8465TIP3    H125336   0.164   6.741   5.376 -0.4654  0.3576  0.8321
 8465TIP3    H225337   0.300   6.743   5.308 -0.6066  0.1769  0.5408
 8466TIP3   OH225338   2.852   1.078   4.069 -0.2641  0.2085  0.0139
 8466TIP3    H125339   2.844   1.163   4.112  0.7587  0.7466 -0.8076
 8466TIP3    H225340   2.944   1.055   4.077 -0.4735 -0.6966 -0.0243
 8467TIP3   OH225341   4.552   1.016   2.492 -0.0670 -0.4273 -0.3279
 8467TIP3    H125342   4.513   1.004   2.406 -2.0311 -0.5230  0.5336
 8467TIP3    H225343   4.551   0.929   2.532  0.9827 -0.4151 -0.2309
 8468TIP3   OH225344   7.124   5.991   0.935 -0.5283  0.0326 -0.1618
 8468TIP3    H125345   7.077   5.943   1.003  0.4327  0.4911  0.8582
 8468TIP3    H225346   7.076   6.073   0.925 -0.4053  0.1684  0.3267
 8469TIP3   OH225347   5.352   4.967   4.622  0.1074  0.2292  0.0787
 8469TIP3    H125348   5.323   4.929   4.705 -0.5006 -0.8543 -0.5974
 8469TIP3    H225349   5.282   5.027   4.597  0.7484  1.3192  0.8092
 8470TIP3   OH225350   4.624   7.505   3.100  0.4711 -0.0276 -0.1846
 8470TIP3    H125351   4.577   7.498   3.017 -0.8583 -1.1676  0.6240
 8470TIP3    H225352   4.605   7.422   3.145  2.2835 -0.0056  0.6949
 8471TIP3   OH225353   6.190   2.274   5.945 -0.1629  0.1930 -0.6908
 8471TIP3    H125354   6.186   2.350   5.887 -3.7811 -0.7435 -1.9590
 8471TIP3    H225355   6.251   2.214   5.902  0.7155  1.2997 -1.0449
 8472TIP3   OH225356   4.489   0.618   5.697 -0.6188  0.1440  0.6178
 8472TIP3    H125357   4.441   0.640   5.617  0.7649 -0.4593 -0.4245
 8472TIP3    H225358   4.566   0.675   5.694 -0.6953  0.3227  1.6990
 8473TIP3   OH225359   5.508   4.822   1.271 -0.0295 -0.0424 -0.1421
 8473TIP3    H125360   5.416   4.795   1.276 -0.3791  0.9182 -1.0534
 8473TIP3    H225361   5.507   4.902   1.218  1.1267  0.9749  1.2768
 8474TIP3   OH225362   0.812   0.315   3.176  0.0155  0.2145 -0.4098
 8474TIP3    H125363   0.744   0.268   3.222 -0.7002 -0.9012 -2.4727
 8474TIP3    H225364   0.892   0.264   3.191  0.1504  0.7425  0.8252
 8475TIP3   OH225365   3.050   2.311   1.035 -0.6391  0.6461  0.0183
 8475TIP3    H125366   2.968   2.339   0.994  0.4119  1.9012 -1.3280
 8475TIP3    H225367   3.089   2.251   0.972  0.3887  1.5809 -0.2594
 8476TIP3   OH225368   6.542   7.358   5.486  0.7337 -0.1768 -0.6614
 8476TIP3    H125369   6.451   7.335   5.505  0.5618  0.8162 -0.2312
 8476TIP3    H225370   6.581   7.371   5.572  0.6123  1.8682 -0.8778
 8477TIP3   OH225371   5.962   6.492   4.021  0.5888 -0.1854 -0.2057
 8477TIP3    H125372   5.963   6.465   4.113 -0.8910 -0.1193 -0.1463
 8477TIP3    H225373   5.956   6.411   3.971 -2.3268 -0.1573 -0.0766
 8478TIP3   OH225374   0.772   7.453   1.081 -0.4887  0.2073  0.9743
 8478TIP3    H125375   0.691   7.458   1.031 -0.4324 -0.5421  0.7825
 8478TIP3    H225376   0.744   7.430   1.170 -0.4438 -1.4182  0.6166
 8479TIP3   OH225377   7.156   4.838   2.088  0.3692  0.1722 -0.4744
 8479TIP3    H125378   7.156   4.746   2.112  1.1173  0.0297 -0.9861
 8479TIP3    H225379   7.234   4.874   2.130  0.5677  0.3692 -1.0041
 8480TIP3   OH225380   1.505   5.793   1.138  0.2215  0.0253  0.0484
 8480TIP3    H125381   1.526   5.783   1.045 -0.5165  1.2777 -0.2752
 8480TIP3    H225382   1.409   5.797   1.140  0.2691  2.8551  0.5139
 8481TIP3   OH225383  -0.027   4.278   4.793 -0.0068 -0.1676 -0.3387
 8481TIP3    H125384   0.016   4.199   4.759 -0.3203 -0.4091 -0.1854
 8481TIP3    H225385   0.036   4.348   4.778 -0.0135 -0.3217 -1.1314
 8482TIP3   OH225386   7.701   5.782   3.512  0.0811 -0.2057 -0.2707
 8482TIP3    H125387   7.706   5.689   3.488  1.8011 -0.3161  0.3769
 8482TIP3    H225388   7.678   5.781   3.605 -0.0862  0.0313 -0.3085
 8483TIP3   OH225389   7.349   7.120   2.243  0.8665  0.0576 -0.2198
 8483TIP3    H125390   7.392   7.120   2.329  0.3091  3.3508  0.2247
 8483TIP3    H225391   7.257   7.100   2.262  0.6499  1.2244  0.1095
 8484TIP3   OH225392   2.645   5.775   4.838  0.1397 -0.2194  0.4349
 8484TIP3    H125393   2.648   5.754   4.744 -1.6426 -0.3312  0.3672
 8484TIP3    H225394   2.673   5.694   4.881 -0.9491 -0.8339  0.0289
 8485TIP3   OH225395   5.153   2.415   5.204  0.3778 -0.6469  0.1376
 8485TIP3    H125396   5.236   2.460   5.216  0.3732 -0.7602  0.6402
 8485TIP3    H225397   5.100   2.475   5.151 -0.1035  0.5608  1.8726
 8486TIP3   OH225398   1.109   1.263   3.253 -0.0256  0.1908 -0.4641
 8486TIP3    H125399   1.184   1.237   3.199  1.0851 -0.2834  1.2251
 8486TIP3    H225400   1.059   1.322   3.198 -0.7311 -2.6797 -3.2091
 8487TIP3   OH225401   6.807   3.131   2.114 -0.0674 -0.1618 -0.7530
 8487TIP3    H125402   6.832   3.128   2.022  2.1698 -1.3548 -0.1735
 8487TIP3    H225403   6.836   3.047   2.150 -0.8870  0.2652  1.0491
 8488TIP3   OH225404   4.915   5.786   3.627  0.6121 -0.2279 -0.6530
 8488TIP3    H125405   4.938   5.848   3.695 -1.7517 -0.2890  0.3044
 8488TIP3    H225406   4.912   5.701   3.671 -2.0805 -0.1098 -0.4468
 8489TIP3   OH225407   2.609   0.365   4.403  0.0309  0.2257  0.3798
 8489TIP3    H125408   2.567   0.450   4.384 -0.1993 -0.1170 -0.6943
 8489TIP3    H225409   2.556   0.301   4.355  2.6825 -0.0678 -2.5046
 8490TIP3   OH225410   7.804   1.650   3.321 -0.1296 -0.4842 -0.1605
 8490TIP3    H125411   7.871   1.641   3.253  0.1763  0.6957 -0.0403
 8490TIP3    H225412   7.726   1.609   3.284  0.5169 -1.4062 -0.5208
 8491TIP3   OH225413   1.067   7.623   1.744 -0.1234 -0.7096 -0.1652
 8491TIP3    H125414   1.148   7.595   1.786  0.0971  1.9703  1.3458
 8491TIP3    H225415   0.999   7.572   1.789  0.4399 -0.5870  0.8605
 8492TIP3   OH225416   4.574   3.886   3.992  0.0182  0.3103  0.7039
 8492TIP3    H125417   4.647   3.864   3.934 -0.4563  1.1209 -0.2381
 8492TIP3    H225418   4.501   3.833   3.960 -0.1591  0.5187  0.7537
 8493TIP3   OH225419   5.931   0.397   4.694  0.4337 -0.2319 -0.7022
 8493TIP3    H125420   5.859   0.337   4.675 -0.3148  0.6341 -0.6604
 8493TIP3    H225421   5.988   0.391   4.617  0.3133 -0.8897 -0.7518
 8494TIP3   OH225422   0.287   6.885   3.692  0.0830 -0.0564 -0.0130
 8494TIP3    H125423   0.212   6.930   3.655 -0.9321  0.1145  2.0721
 8494TIP3    H225424   0.280   6.902   3.787  2.1502 -0.9289  0.3478
 8495TIP3   OH225425   7.957   7.324   2.338  0.1433  0.1754  0.3072
 8495TIP3    H125426   7.965   7.259   2.269  1.7177 -0.6363  1.2147
 8495TIP3    H225427   7.917   7.278   2.411  0.4560  0.4617  0.6633
 8496TIP3   OH225428   2.937   0.864   5.791 -0.0419  0.0531 -0.3743
 8496TIP3    H125429   2.927   0.869   5.886 -2.7094 -1.9201 -0.4486
 8496TIP3    H225430   2.930   0.955   5.762 -0.2532  0.5838  1.2200
 8497TIP3   OH225431   1.758   2.151   0.475 -0.7794  0.2986 -0.0075
 8497TIP3    H125432   1.745   2.244   0.454 -2.0258  0.3494  0.8899
 8497TIP3    H225433   1.846   2.147   0.511 -0.2913  0.9362 -1.0634
 8498TIP3   OH225434   2.652   1.176   5.723  0.1598  0.5773  0.1892
 8498TIP3    H125435   2.599   1.107   5.762  1.1518  0.3826  1.2244
 8498TIP3    H225436   2.588   1.232   5.677 -0.7305 -0.5711 -0.0067
 8499TIP3   OH225437   6.806   0.768   2.942 -0.8338 -0.5890  0.1150
 8499TIP3    H125438   6.772   0.833   2.881 -0.2626  0.4948  0.9202
 8499TIP3    H225439   6.732   0.749   3.000 -1.5065 -1.9292 -1.1080
 8500TIP3   OH225440   6.855   7.235   4.106 -0.0744 -0.1199 -0.3455
 8500TIP3    H125441   6.939   7.272   4.078  0.1749 -0.1546  0.3533
 8500TIP3    H225442   6.867   7.214   4.198 -0.8490 -0.1423 -0.2417
 8501TIP3   OH225443   1.856   7.577   4.863  0.6740 -0.1468 -0.1980
 8501TIP3    H125444   1.922   7.513   4.891 -0.1828 -0.4257  1.2971
 8501TIP3    H225445   1.886   7.660   4.899 -0.4881 -0.5255  1.8183
 8502TIP3   OH225446   1.027   3.275   5.997 -0.3180  0.0491 -0.2484
 8502TIP3    H125447   1.082   3.266   5.918 -0.6644  1.0111 -0.6081
 8502TIP3    H225448   1.047   3.197   6.048  0.5057 -0.2050 -0.9261
 8503TIP3   OH225449   6.472   0.629   4.385 -0.6699 -0.5871  0.3092
 8503TIP3    H125450   6.548   0.644   4.442  0.4020 -0.7463 -1.0293
 8503TIP3    H225451   6.407   0.692   4.416  0.2153 -0.0343  1.1231
 8504TIP3   OH225452   0.620   2.071   6.350  0.3627 -0.0627 -0.1007
 8504TIP3    H125453   0.616   2.127   6.272  0.4813 -2.7958 -2.2051
 8504TIP3    H225454   0.675   2.120   6.411  0.9548  1.8403 -2.0165
 8505TIP3   OH225455   4.648   6.887   2.022  0.2416  0.6445  0.2092
 8505TIP3    H125456   4.651   6.982   2.032 -0.0943  0.7075 -0.2765
 8505TIP3    H225457   4.567   6.870   1.974  0.1934  0.0975  0.4742
 8506TIP3   OH225458   3.823   6.718   6.113 -0.0649 -0.2166  0.0606
 8506TIP3    H125459   3.899   6.759   6.072 -0.8158  1.2481  0.0640
 8506TIP3    H225460   3.797   6.649   6.052  2.1150 -1.7721  0.7571
 8507TIP3   OH225461   8.282   0.129   4.654 -0.7528 -0.2658  0.0808
 8507TIP3    H125462   8.326   0.141   4.570 -0.7525  2.2676  0.3446
 8507TIP3    H225463   8.190   0.116   4.631 -0.7263  0.2461 -0.3343
 8508TIP3   OH225464   6.399   4.394   6.551  0.2249  0.3778  0.4438
 8508TIP3    H125465   6.463   4.327   6.526 -0.8582 -1.1647  1.5871
 8508TIP3    H225466   6.352   4.414   6.470  1.6290  0.9775 -0.2471
 8509TIP3   OH225467   1.058   3.783   3.644 -0.0496 -0.2347 -0.2852
 8509TIP3    H125468   1.096   3.696   3.646  0.5125 -0.0395 -1.5038
 8509TIP3    H225469   1.096   3.824   3.566 -1.4412  0.5794 -0.5670
 8510TIP3   OH225470   6.718   0.446   4.624  0.3913 -0.0030 -0.2149
 8510TIP3    H125471   6.657   0.393   4.675 -2.5866  1.9480 -1.4730
 8510TIP3    H225472   6.768   0.494   4.690  0.2385 -1.2536  0.8594
 8511TIP3   OH225473   2.885   0.920   6.488 -0.4171  0.3869  0.1201
 8511TIP3    H125474   2.834   0.872   6.423 -2.9093  1.2436  1.2957
 8511TIP3    H225475   2.942   0.977   6.437  0.3087 -1.4534 -1.2589
 8512TIP3   OH225476   0.784   1.804   0.639  0.4730  0.1868 -0.4705
 8512TIP3    H125477   0.714   1.801   0.574  0.3623 -1.5162 -0.3325
 8512TIP3    H225478   0.740   1.831   0.720  0.0372 -0.4495 -0.4815
 8513TIP3   OH225479   6.464   7.264   1.205  0.1362  0.3382 -0.2265
 8513TIP3    H125480   6.542   7.304   1.167 -0.0217  0.8999  0.0217
 8513TIP3    H225481   6.411   7.238   1.130 -0.3274  1.7408 -0.4062
 8514TIP3   OH225482   5.892   1.365   3.460  0.5320  0.0176 -0.3099
 8514TIP3    H125483   5.964   1.318   3.417 -0.7314 -1.4663 -0.8828
 8514TIP3    H225484   5.933   1.445   3.494  2.0014  0.2940 -2.5173
 8515TIP3   OH225485   5.202   3.480   4.432 -0.6651 -0.2973  0.1175
 8515TIP3    H125486   5.296   3.474   4.452 -0.6786 -2.3822 -0.2111
 8515TIP3    H225487   5.160   3.477   4.518 -0.4634  0.7317  0.2734
 8516TIP3   OH225488   6.331   7.797   6.602  0.3136  0.1846 -0.8053
 8516TIP3    H125489   6.417   7.816   6.564  0.8887 -1.0526 -0.1977
 8516TIP3    H225490   6.301   7.720   6.553 -0.1554  0.2336 -0.5905
 8517TIP3   OH225491   4.159   5.303   2.284  0.5130  0.1210 -0.0553
 8517TIP3    H125492   4.157   5.399   2.289 -0.3950  0.1208 -0.2305
 8517TIP3    H225493   4.214   5.276   2.357 -2.6403  0.6177  2.7534
 8518TIP3   OH225494   0.218   5.873   2.479 -0.0239 -0.0559  0.0752
 8518TIP3    H125495   0.133   5.839   2.506  0.2104  0.2602  1.2588
 8518TIP3    H225496   0.198   5.951   2.427 -0.4434  1.2355  2.0758
 8519TIP3   OH225497   3.369   0.752   3.137 -0.4460 -0.2439  0.6535
 8519TIP3    H125498   3.389   0.774   3.046  0.3674  1.0733  1.1187
 8519TIP3    H225499   3.390   0.659   3.144 -0.7994 -0.4318 -0.5703
 8520TIP3   OH225500   1.463   7.828   0.054 -0.4584  0.2686  0.9007
 8520TIP3    H125501   1.374   7.812   0.021 -0.6572  0.2963  1.4087
 8520TIP3    H225502   1.470   7.924   0.059 -0.5210  0.2614  1.1684
 8521TIP3   OH225503   3.020   6.153   6.003 -0.1319  0.4126 -0.2187
 8521TIP3    H125504   3.059   6.131   6.087 -1.4772  1.3528  0.6788
 8521TIP3    H225505   3.002   6.246   6.008 -1.3180  0.2565 -1.0944
 8522TIP3   OH225506   2.283   0.464   1.195  0.4871 -0.3143  0.3870
 8522TIP3    H125507   2.267   0.451   1.289  0.4179 -0.0669  0.4103
 8522TIP3    H225508   2.195   0.470   1.157  0.4440  2.7454  0.7440
 8523TIP3   OH225509   1.507   1.639   6.077 -0.1001 -0.2605 -0.6342
 8523TIP3    H125510   1.500   1.724   6.034  1.1951  0.5598  0.6560
 8523TIP3    H225511   1.426   1.594   6.055 -1.6680  2.0028  0.0992
 8524TIP3   OH225512   5.192   5.971   0.172 -0.0174  0.0326  0.0381
 8524TIP3    H125513   5.277   5.935   0.146 -0.3534  0.4704 -1.8094
 8524TIP3    H225514   5.182   6.050   0.119 -2.6935 -1.4018 -1.8577
 8525TIP3   OH225515   7.622   6.151   2.745 -0.5770  0.5480  0.2332
 8525TIP3    H125516   7.585   6.198   2.820  2.0132  0.0371  1.9703
 8525TIP3    H225517   7.685   6.090   2.784 -1.4798 -2.1459 -2.1553
 8526TIP3   OH225518   6.724   3.212   5.031 -0.1327  0.1547  0.4885
 8526TIP3    H125519   6.669   3.162   5.091  1.5166  1.9427  3.7928
 8526TIP3    H225520   6.766   3.147   4.976 -2.2860 -1.5551  0.7406
 8527TIP3   OH225521   6.204   0.619   6.137 -0.1353 -0.6548 -0.8151
 8527TIP3    H125522   6.138   0.685   6.115  0.0119 -0.6149 -1.1358
 8527TIP3    H225523   6.164   0.569   6.209 -0.3240 -0.3379 -0.6956
 8528TIP3   OH225524   7.002   1.243   5.303 -0.0682 -0.4198 -0.3493
 8528TIP3    H125525   6.953   1.204   5.375  0.6865  1.7841  1.4793
 8528TIP3    H225526   7.092   1.212   5.315  0.0364 -0.1464 -0.4122
 8529TIP3   OH225527   4.200   2.204   3.761  0.1582  0.2110  0.1787
 8529TIP3    H125528   4.142   2.144   3.808 -1.2824  1.3285 -0.0997
 8529TIP3    H225529   4.144   2.277   3.736  1.7455  1.4670  0.0917
 8530TIP3   OH225530   7.745   1.993   5.673 -0.5420 -0.5457  0.8264
 8530TIP3    H125531   7.685   2.044   5.728 -1.0909 -1.5605  1.1896
 8530TIP3    H225532   7.815   1.965   5.733 -0.4103 -0.4899  0.6990
 8531TIP3   OH225533   5.757   3.382   1.224 -0.1021 -0.0689 -0.6930
 8531TIP3    H125534   5.760   3.477   1.210  0.8843 -0.1090 -0.8129
 8531TIP3    H225535   5.696   3.350   1.157 -0.7393  0.5203 -0.4026
 8532TIP3   OH225536   6.048   7.729   0.845 -0.1061  0.0647 -0.4092
 8532TIP3    H125537   6.111   7.672   0.802  0.5691  0.3264  0.2067
 8532TIP3    H225538   5.964   7.685   0.833 -0.1155  0.6131 -2.8239
 8533TIP3   OH225539   4.439   7.421   3.693 -0.1828 -0.2867  0.7883
 8533TIP3    H125540   4.434   7.404   3.787  0.3377  2.3972  1.3836
 8533TIP3    H225541   4.533   7.427   3.675 -0.3019  0.2777  0.3347
 8534TIP3   OH225542   2.901   6.528   5.456  0.2225 -0.0323  0.0766
 8534TIP3    H125543   2.817   6.537   5.500 -0.5420  0.2297 -1.3844
 8534TIP3    H225544   2.965   6.559   5.520 -1.0680  2.8446  0.1487
 8535TIP3   OH225545   6.043   4.127   6.498  0.1783  0.0530  0.5242
 8535TIP3    H125546   5.957   4.168   6.492 -0.6455 -1.7184 -0.6874
 8535TIP3    H225547   6.096   4.173   6.433 -1.5235 -2.3731 -2.9158
 8536TIP3   OH225548   4.709   1.738   2.647 -0.2135  0.8638  0.3314
 8536TIP3    H125549   4.713   1.642   2.642 -0.4799  0.8732 -0.1658
 8536TIP3    H225550   4.767   1.761   2.720 -0.5941  0.2913  0.8158
 8537TIP3   OH225551   1.144   7.496   2.106  0.4904 -0.4250  0.1108
 8537TIP3    H125552   1.118   7.454   2.188  0.1959 -1.3429 -0.4460
 8537TIP3    H225553   1.062   7.528   2.069  0.5021 -0.8538 -0.2874
 8538TIP3   OH225554   1.808   1.948   0.775 -0.3259  0.2644 -0.1030
 8538TIP3    H125555   1.778   1.911   0.858  0.4901  0.8856  0.4871
 8538TIP3    H225556   1.741   1.923   0.712 -1.5731  0.8109  0.9700
 8539TIP3   OH225557   1.747   5.118   3.343  0.1918  0.8227  0.1350
 8539TIP3    H125558   1.665   5.098   3.388  1.9181 -1.1356  2.6696
 8539TIP3    H225559   1.776   5.200   3.381  0.0924  0.7949  0.2723
 8540TIP3   OH225560   4.097   0.113   2.878  0.0597  0.2038  0.3661
 8540TIP3    H125561   4.043   0.151   2.947 -0.8024  0.5673 -0.4756
 8540TIP3    H225562   4.095   0.019   2.895 -1.3246  0.1470  0.0552
 8541TIP3   OH225563   0.339   6.460   2.295  0.2496  0.6529  0.2844
 8541TIP3    H125564   0.426   6.469   2.257  0.4635 -0.2991  0.5172
 8541TIP3    H225565   0.350   6.482   2.387  0.3078  0.2660  0.3727
 8542TIP3   OH225566   4.373   1.894   2.499  0.1109 -0.6174 -0.1214
 8542TIP3    H125567   4.319   1.948   2.441 -0.6612 -0.7091  0.4918
 8542TIP3    H225568   4.345   1.919   2.588  2.1609  0.4662  0.2973
 8543TIP3   OH225569   5.570   2.589   5.890 -0.3135 -0.6168 -0.0990
 8543TIP3    H125570   5.601   2.677   5.912 -2.7403  0.6915 -1.5056
 8543TIP3    H225571   5.581   2.538   5.971  1.7971  0.7213  0.5411
 8544TIP3   OH225572   1.182   7.709   5.196  0.0275 -0.0371  0.3786
 8544TIP3    H125573   1.256   7.709   5.135  1.7076  1.1457  2.2743
 8544TIP3    H225574   1.222   7.692   5.282 -1.4367  3.1586  1.8634
 8545TIP3   OH225575   7.999   2.789   2.681 -0.5260 -0.7056  0.0602
 8545TIP3    H125576   8.001   2.834   2.765 -0.9817 -0.7074  0.0728
 8545TIP3    H225577   7.991   2.696   2.704 -0.8842 -0.6867  0.0096
 8546TIP3   OH225578   4.347   6.376   3.156 -0.1809  0.0917 -0.1303
 8546TIP3    H125579   4.283   6.445   3.141 -0.9030 -0.5863 -0.2459
 8546TIP3    H225580   4.333   6.349   3.247 -0.9795 -0.9579 -0.5456
 8547TIP3   OH225581   1.361   0.215   1.514  0.2556  0.3350  0.3613
 8547TIP3    H125582   1.348   0.222   1.609 -1.6594  0.7094  0.0969
 8547TIP3    H225583   1.273   0.209   1.477  0.9751 -0.2924 -1.3805
 8548TIP3   OH225584   3.966   4.021   1.941 -0.3958 -0.3164 -0.0492
 8548TIP3    H125585   3.986   4.110   1.910 -1.9362 -0.1498 -0.6230
 8548TIP3    H225586   4.023   4.010   2.018  0.8151  0.6400 -0.7602
 8549TIP3   OH225587   2.400   2.456   1.081  0.2573  0.0490  0.0327
 8549TIP3    H125588   2.397   2.487   1.172  0.1897 -0.9269  0.3741
 8549TIP3    H225589   2.487   2.481   1.050  0.3467  0.2332  0.4259
 8550TIP3   OH225590   0.173   7.180   6.261  0.2074 -0.0736  0.0049
 8550TIP3    H125591   0.135   7.094   6.279 -0.4081  0.1447 -0.2206
 8550TIP3    H225592   0.264   7.173   6.290  0.0936 -0.7222  0.2148
 8551TIP3   OH225593   2.959   4.963   1.392 -0.0884  0.3567  0.0487
 8551TIP3    H125594   2.922   5.044   1.358  1.6769  1.3057  0.2334
 8551TIP3    H225595   2.948   4.970   1.487 -2.0205 -0.7423 -0.0520
 8552TIP3   OH225596   4.373   1.608   3.849 -0.3376 -0.6077 -0.0925
 8552TIP3    H125597   4.406   1.518   3.855 -1.1192 -0.8586  0.9249
 8552TIP3    H225598   4.283   1.598   3.819 -1.5807 -0.5150  3.1277
 8553TIP3   OH225599   3.116   6.422   6.708  0.5974 -0.7037  0.1688
 8553TIP3    H125600   3.174   6.356   6.747  0.0128 -1.1676  0.2558
 8553TIP3    H225601   3.031   6.379   6.702  0.6622 -0.6754 -1.6705
 8554TIP3   OH225602   5.636   7.486   2.004 -0.2259 -0.1621  0.5383
 8554TIP3    H125603   5.541   7.485   1.995 -0.0382 -0.5030 -2.1178
 8554TIP3    H225604   5.665   7.408   1.956  1.4318  0.3845  0.6100
 8555TIP3   OH225605   5.240   2.636   1.401 -0.1983 -0.4177  0.2168
 8555TIP3    H125606   5.273   2.696   1.469 -1.8744  0.5851  0.1970
 8555TIP3    H225607   5.305   2.566   1.399  0.2301 -0.1808  2.4436
 8556TIP3   OH225608   2.809   0.275   3.137 -0.2982 -0.6480  0.7435
 8556TIP3    H125609   2.762   0.265   3.054  1.0968  2.0119 -0.4845
 8556TIP3    H225610   2.865   0.198   3.142  2.2516  0.7068 -2.7114
 8557TIP3   OH225611   2.007   4.884   3.902  0.3877 -0.7691  0.9253
 8557TIP3    H125612   2.092   4.927   3.900  0.7082 -1.3653  1.3866
 8557TIP3    H225613   2.001   4.845   3.989 -1.4586  1.3987  1.8667
 8558TIP3   OH225614   5.403   6.324   4.206  0.2014 -0.3752 -0.1865
 8558TIP3    H125615   5.428   6.254   4.267  1.0936  1.0996  1.2311
 8558TIP3    H225616   5.478   6.333   4.147  0.4391 -0.0680  0.1596
 8559TIP3   OH225617   5.699   1.668   3.417  0.1323  0.0534 -0.0926
 8559TIP3    H125618   5.737   1.615   3.347  0.5501  0.0879  0.1059
 8559TIP3    H225619   5.765   1.667   3.487  0.3518  1.2089 -0.2667
 8560TIP3   OH225620   0.707   1.055   2.166 -0.5364 -0.2814 -0.5709
 8560TIP3    H125621   0.668   1.095   2.088  1.3425  0.0428 -1.3902
 8560TIP3    H225622   0.693   1.120   2.235 -1.9778 -0.4500 -0.6750
 8561TIP3   OH225623   4.990   1.274   3.853 -0.0611 -0.7756 -0.4477
 8561TIP3    H125624   4.897   1.252   3.841 -1.1061  3.2036 -1.0099
 8561TIP3    H225625   4.997   1.299   3.945  0.1233  0.1630 -0.7084
 8562TIP3   OH225626   3.064   2.087   3.265  0.0539 -0.6575  0.8308
 8562TIP3    H125627   3.026   2.008   3.305 -0.0643 -2.5580 -2.7046
 8562TIP3    H225628   3.144   2.057   3.223  0.1899  1.1785 -0.3213
 8563TIP3   OH225629   8.113   1.547   0.849 -0.1245  0.3467  0.1984
 8563TIP3    H125630   8.035   1.580   0.805  0.1976  0.0455 -0.6132
 8563TIP3    H225631   8.185   1.600   0.813  0.3144 -0.7893 -0.6552
 8564TIP3   OH225632   6.964   6.367   6.766 -0.3290 -0.0811 -0.2016
 8564TIP3    H125633   6.891   6.384   6.826 -0.0143  0.7028 -0.0235
 8564TIP3    H225634   6.927   6.311   6.698 -1.8557  2.4165 -1.5596
 8565TIP3   OH225635   2.067   0.066   3.995  0.2808 -0.3039  0.5171
 8565TIP3    H125636   2.056   0.058   4.089  1.7415 -1.1543  0.6420
 8565TIP3    H225637   2.005   0.003   3.957  1.3267 -1.6606  1.0054
 8566TIP3   OH225638   7.187   5.014   2.894 -0.1761  0.3201 -0.4006
 8566TIP3    H125639   7.233   5.083   2.942  0.9270 -0.7691  0.1770
 8566TIP3    H225640   7.097   5.018   2.927 -0.1293  1.4602 -0.3729
 8567TIP3   OH225641   1.962   0.957   5.112 -0.1889 -0.3084  0.0388
 8567TIP3    H125642   1.963   1.051   5.130 -0.0088 -0.7404  2.5882
 8567TIP3    H225643   1.997   0.950   5.023  3.0344  1.8385  0.9651
 8568TIP3   OH225644   0.150   1.267   4.482  0.3820 -0.4334 -0.0427
 8568TIP3    H125645   0.112   1.348   4.516  0.9253  0.6185 -1.7921
 8568TIP3    H225646   0.101   1.197   4.525 -1.4780  0.8313  0.0123
 8569TIP3   OH225647   2.986   7.067   0.588 -0.0459  0.0175  0.0087
 8569TIP3    H125648   3.017   7.092   0.676  0.8574 -1.3406  0.1068
 8569TIP3    H225649   3.013   6.976   0.578  0.8488  0.4515 -2.1145
 8570TIP3   OH225650   2.280   2.199   3.591  0.1526  0.1939 -0.1397
 8570TIP3    H125651   2.208   2.165   3.644 -0.4229  0.0044 -1.0249
 8570TIP3    H225652   2.307   2.124   3.537  0.1448  0.6191 -0.7416
 8571TIP3   OH225653   2.708   6.834   4.458 -0.0001 -0.4059  0.0658
 8571TIP3    H125654   2.761   6.766   4.417 -0.3727 -0.4124 -0.4034
 8571TIP3    H225655   2.657   6.872   4.387 -0.4391 -0.2236  0.4731
 8572TIP3   OH225656   3.969   0.535   1.548 -0.4269 -0.2533 -0.4256
 8572TIP3    H125657   4.040   0.580   1.595 -0.6195 -0.0244 -0.3490
 8572TIP3    H225658   3.965   0.448   1.588 -0.8672  0.0784  0.2845
 8573TIP3   OH225659   1.457   2.090   0.245 -0.3344 -0.2365 -0.1159
 8573TIP3    H125660   1.536   2.142   0.233 -1.0403  0.8791 -0.0699
 8573TIP3    H225661   1.487   1.999   0.238  0.8368  0.1725 -0.7443
 8574TIP3   OH225662   8.012   1.843   6.192  0.2271 -0.3807 -0.9963
 8574TIP3    H125663   7.990   1.750   6.183 -1.7918 -0.0345 -0.1513
 8574TIP3    H225664   8.102   1.844   6.223 -0.8332 -2.2463  2.6683
 8575TIP3   OH225665   6.710   6.094   1.709  0.5649  0.4664  0.1369
 8575TIP3    H125666   6.781   6.049   1.753 -0.2649 -1.2334 -0.1524
 8575TIP3    H225667   6.745   6.115   1.622  0.5515 -0.9006 -0.2210
 8576TIP3   OH225668   4.415   7.332   1.262  0.3088 -0.3430 -0.0060
 8576TIP3    H125669   4.341   7.366   1.213  0.6302  1.1360  0.4957
 8576TIP3    H225670   4.375   7.281   1.333 -0.1879 -0.7452 -0.5666
 8577TIP3   OH225671   2.520   1.663   1.761  0.0114  0.6422 -0.3022
 8577TIP3    H125672   2.513   1.657   1.666  1.2173  0.3556 -0.3917
 8577TIP3    H225673   2.470   1.741   1.784 -0.2384  0.7503 -1.1784
 8578TIP3   OH225674   7.673   3.418   6.047 -0.2427  0.4688 -0.0430
 8578TIP3    H125675   7.599   3.421   5.987 -0.8275  0.5107  0.6675
 8578TIP3    H225676   7.651   3.349   6.109 -0.8669  2.1066  1.6513
 8579TIP3   OH225677   5.828   3.672   2.687  0.3198  0.0002  0.2789
 8579TIP3    H125678   5.790   3.760   2.685  0.0284 -0.1279 -0.3700
 8579TIP3    H225679   5.838   3.651   2.780  1.8933  1.3429  0.4487
 8580TIP3   OH225680   1.291   4.439   3.950  0.1279  0.1337 -0.0208
 8580TIP3    H125681   1.283   4.364   3.891 -0.9326  0.3035 -0.1009
 8580TIP3    H225682   1.248   4.411   4.031  0.9996  0.1413  0.4582
 8581TIP3   OH225683   6.006   6.885   1.938  0.1377  0.4298  1.0935
 8581TIP3    H125684   6.081   6.850   1.986 -0.4008  0.4954  1.9980
 8581TIP3    H225685   5.958   6.937   2.003 -0.5672  0.5745  0.4639
 8582TIP3   OH225686   2.523   6.622   2.141 -0.0543 -0.2654 -0.2704
 8582TIP3    H125687   2.579   6.699   2.146 -0.8749  0.4302 -1.4360
 8582TIP3    H225688   2.579   6.555   2.102  0.6900 -0.3214  0.8345
 8583TIP3   OH225689   1.320   6.611   4.274 -0.4661  0.1870  0.1921
 8583TIP3    H125690   1.397   6.577   4.228  0.1433  1.4343  0.2384
 8583TIP3    H225691   1.303   6.547   4.343 -0.2906 -0.7820 -0.6381
 8584TIP3   OH225692   3.725   7.855   2.130  0.3913 -0.1658 -0.1496
 8584TIP3    H125693   3.752   7.782   2.186  0.8326  1.0730  1.3124
 8584TIP3    H225694   3.668   7.908   2.186  0.1699  0.6809 -1.1547
 8585TIP3   OH225695   6.723   1.688   4.714  0.0753 -0.1474  0.2526
 8585TIP3    H125696   6.727   1.728   4.801  0.9499  0.1873  0.0633
 8585TIP3    H225697   6.706   1.761   4.654 -0.7834 -0.4130  0.1599
 8586TIP3   OH225698   4.742   3.914   1.489 -0.2437 -0.2315 -0.1888
 8586TIP3    H125699   4.792   3.994   1.506  0.2639 -0.4940 -0.4200
 8586TIP3    H225700   4.750   3.863   1.569  1.2450 -0.9924 -0.7839
 8587TIP3   OH225701   5.076   5.769   4.328 -0.3292  0.1509  0.0813
 8587TIP3    H125702   5.145   5.717   4.288 -1.1440 -0.9528  0.0646
 8587TIP3    H225703   5.105   5.784   4.418 -0.1631 -0.4916  0.1377
 8588TIP3   OH225704   3.047   2.299   4.903  0.0318  0.0801 -0.4604
 8588TIP3    H125705   2.971   2.300   4.961 -0.0394 -1.7383 -0.4548
 8588TIP3    H225706   3.089   2.214   4.920  1.6277  0.7140 -1.0296
 8589TIP3   OH225707   7.864   2.613   1.121  0.5877  0.3013  0.0264
 8589TIP3    H125708   7.903   2.527   1.132  0.5652  0.1940 -0.6778
 8589TIP3    H225709   7.933   2.674   1.148  1.5449  0.1391 -1.8757
 8590TIP3   OH225710   3.633   1.756   0.687 -0.6365 -0.4193  0.1727
 8590TIP3    H125711   3.700   1.804   0.736  1.0121 -1.2467 -1.1665
 8590TIP3    H225712   3.659   1.664   0.695 -1.7200 -0.7768 -0.2273
 8591TIP3   OH225713   5.643   6.163   2.597  0.5610 -0.2233 -0.0623
 8591TIP3    H125714   5.639   6.075   2.633  2.7828  0.0836  1.1773
 8591TIP3    H225715   5.686   6.215   2.666 -1.0539  1.9490 -0.5572
 8592TIP3   OH225716   1.250   3.353   0.844  0.3831  0.1536 -0.3173
 8592TIP3    H125717   1.304   3.408   0.900  0.9454 -1.3080  0.6492
 8592TIP3    H225718   1.312   3.300   0.794 -0.1327  0.7270 -1.6324
 8593TIP3   OH225719   5.202   5.802   1.010  0.3854  0.0546 -0.2865
 8593TIP3    H125720   5.194   5.888   0.968  1.9702 -0.1982 -1.1939
 8593TIP3    H225721   5.280   5.809   1.065 -1.3496  0.2002  2.3397
 8594TIP3   OH225722   6.793   1.407   3.497  0.4457  0.0050  0.5994
 8594TIP3    H125723   6.711   1.360   3.516 -0.0931  0.0883 -1.3666
 8594TIP3    H225724   6.851   1.384   3.570 -1.8400  1.3151  2.9651
 8595TIP3   OH225725   0.533   4.892   5.998  0.2560  0.3808 -0.1022
 8595TIP3    H125726   0.544   4.799   6.018 -1.3397 -0.1596 -1.5595
 8595TIP3    H225727   0.498   4.930   6.079 -0.5801 -0.5981  0.0034
 8596TIP3   OH225728   7.128   7.771   4.974  0.4267  0.3993  0.1098
 8596TIP3    H125729   7.113   7.852   5.022  1.7789  0.3718  0.5909
 8596TIP3    H225730   7.208   7.787   4.924  0.9389 -0.7829  0.5313
 8597TIP3   OH225731   0.593   7.820   1.802  0.4641 -0.8798 -0.0700
 8597TIP3    H125732   0.672   7.805   1.855 -0.3376  1.1001  1.8578
 8597TIP3    H225733   0.588   7.915   1.794 -0.4075 -1.0724 -2.3200
 8598TIP3   OH225734   5.649   3.641   4.678  0.2495  0.1925 -0.0062
 8598TIP3    H125735   5.643   3.666   4.770  1.4154 -1.2723  0.5058
 8598TIP3    H225736   5.722   3.692   4.644  1.4162 -1.0268  0.5574
 8599TIP3   OH225737   1.214   7.053   6.685 -0.1868 -0.2077 -0.3499
 8599TIP3    H125738   1.293   7.028   6.637 -0.4449 -0.4885 -0.6328
 8599TIP3    H225739   1.226   7.146   6.704  0.2245 -0.2550 -0.3661
 8600TIP3   OH225740   3.206   2.514   4.840 -0.0370  0.4233 -0.4481
 8600TIP3    H125741   3.283   2.473   4.879 -1.1979 -1.0248  0.4281
 8600TIP3    H225742   3.132   2.463   4.873 -1.2641  0.5962 -2.7266
 8601TIP3   OH225743   7.904   3.475   3.668 -0.0083 -0.0681 -0.5215
 8601TIP3    H125744   7.971   3.484   3.601  1.6339  0.2588  1.1078
 8601TIP3    H225745   7.878   3.564   3.689  1.5807  0.0046  1.2822
 8602TIP3   OH225746   5.392   0.298   3.010  0.4506  0.5216  0.3300
 8602TIP3    H125747   5.351   0.222   3.052  1.0903  0.8611  1.5897
 8602TIP3    H225748   5.434   0.262   2.932 -1.5079  0.0270 -0.5641
 8603TIP3   OH225749   4.956   5.681   6.097  0.7413  0.4006 -0.2925
 8603TIP3    H125750   4.953   5.669   6.002  0.9726 -0.0166 -0.2484
 8603TIP3    H225751   5.000   5.765   6.109  0.0138  0.8303 -0.5752
 8604TIP3   OH225752   7.675   2.199   1.721  0.2513 -0.6465  0.0354
 8604TIP3    H125753   7.767   2.176   1.711  0.3256 -0.7624  0.9181
 8604TIP3    H225754   7.675   2.271   1.784 -0.1957 -0.0219 -0.6590
 8605TIP3   OH225755   1.525   2.790   4.835 -0.0035  0.0526  0.2224
 8605TIP3    H125756   1.503   2.751   4.920 -3.1961  2.8509  0.9082
 8605TIP3    H225757   1.616   2.818   4.844 -0.2462  0.2578  2.7481
 8606TIP3   OH225758   7.030   5.184   6.669 -0.3359 -0.4682  0.3690
 8606TIP3    H125759   7.090   5.179   6.595 -0.7737  2.5255 -0.3147
 8606TIP3    H225760   7.087   5.174   6.746  0.8962  1.0051 -0.2901
 8607TIP3   OH225761   3.547   3.128   2.175 -0.1069  0.0465 -0.5818
 8607TIP3    H125762   3.532   3.063   2.244  0.9181  0.3443 -0.0576
 8607TIP3    H225763   3.520   3.211   2.215  0.4148  0.2082 -0.5565
 8608TIP3   OH225764   6.979   5.154   0.468  0.7416  0.7503  0.5136
 8608TIP3    H125765   6.937   5.095   0.531 -1.5875  0.6011 -1.0284
 8608TIP3    H225766   6.973   5.107   0.384  0.9454  2.1947 -0.3500
 8609TIP3   OH225767  -0.017   3.680   1.871  0.4942 -0.7117  0.1784
 8609TIP3    H125768   0.017   3.739   1.938 -0.5456 -1.4012  1.3740
 8609TIP3    H225769   0.054   3.617   1.856  1.5627  0.7273 -1.0217
 8610TIP3   OH225770   4.795   0.792   3.352  0.3331  0.3973  0.1090
 8610TIP3    H125771   4.817   0.707   3.315  1.7143  1.2163 -1.0561
 8610TIP3    H225772   4.872   0.816   3.405  1.3341  2.2101 -2.0187
 8611TIP3   OH225773   1.774   7.854   6.282  0.0788 -0.1903 -0.1553
 8611TIP3    H125774   1.701   7.801   6.313 -0.2027  1.5146  2.5421
 8611TIP3    H225775   1.779   7.838   6.188 -1.8403 -2.6124  0.0695
 8612TIP3   OH225776   2.891   1.578   5.287  0.4191 -0.4896 -0.0730
 8612TIP3    H125777   2.934   1.592   5.372  0.8649 -1.9942 -0.0274
 8612TIP3    H225778   2.891   1.483   5.275 -2.7748 -0.5829 -0.1596
 8613TIP3   OH225779   6.886   1.783   5.285  0.3890  0.6770 -0.2249
 8613TIP3    H125780   6.892   1.698   5.330 -0.0042  1.1112  0.6759
 8613TIP3    H225781   6.792   1.793   5.266  0.4956  0.7018 -0.7527
 8614TIP3   OH225782   0.780   7.663   5.273 -0.0351 -0.3866 -0.5797
 8614TIP3    H125783   0.822   7.591   5.227  2.6888  0.8693 -0.2526
 8614TIP3    H225784   0.848   7.697   5.331 -0.9826  2.8444 -1.1844
 8615TIP3   OH225785   6.838   6.895   3.769 -0.2494  0.1242 -0.2582
 8615TIP3    H125786   6.858   6.827   3.833  0.7700  0.8641  0.2215
 8615TIP3    H225787   6.852   6.977   3.815 -1.5762  0.6825 -0.8021
 8616TIP3   OH225788   0.545   3.759   1.249 -0.4818 -0.4956 -0.2959
 8616TIP3    H125789   0.577   3.735   1.337 -0.7698 -0.3793 -0.1593
 8616TIP3    H225790   0.606   3.828   1.220  0.6489 -1.7030 -0.8944
 8617TIP3   OH225791   2.952   5.797   4.713 -0.2112 -0.0645  0.0344
 8617TIP3    H125792   2.976   5.764   4.799  0.7020 -2.1847 -0.9637
 8617TIP3    H225793   2.937   5.719   4.660  0.5109  1.1211 -2.0693
 8618TIP3   OH225794   2.319   5.937   1.514 -0.2847 -0.0557 -0.7137
 8618TIP3    H125795   2.233   5.925   1.474  0.4344 -1.5929 -1.8977
 8618TIP3    H225796   2.371   5.981   1.447  0.5159 -1.3123 -0.9414
 8619TIP3   OH225797   4.081   0.847   3.642  0.1331  0.0288  0.4971
 8619TIP3    H125798   4.066   0.760   3.604 -1.6076  0.0634  0.9867
 8619TIP3    H225799   4.163   0.838   3.690  1.3262 -0.5947 -1.5065
 8620TIP3   OH225800   0.987   6.477   1.475  0.6260  0.6381  0.1564
 8620TIP3    H125801   0.994   6.393   1.428 -2.3672  0.3086  0.1060
 8620TIP3    H225802   1.078   6.499   1.497  1.5721 -2.4186 -0.1265
 8621TIP3   OH225803   7.305   4.325   1.067 -0.3204  0.3369 -0.4160
 8621TIP3    H125804   7.336   4.258   1.006 -0.5410  0.0137 -0.1745
 8621TIP3    H225805   7.385   4.364   1.102 -0.1742  1.3018 -1.7503
 8622TIP3   OH225806   2.518   2.657   2.178 -0.1850 -0.2106  0.0841
 8622TIP3    H125807   2.433   2.674   2.219 -1.1546  0.2761 -2.0109
 8622TIP3    H225808   2.571   2.734   2.201 -0.2038 -0.6088  1.5719
 8623TIP3   OH225809   5.970   2.304   4.402  0.4502  0.5164 -0.0015
 8623TIP3    H125810   6.046   2.319   4.458 -0.0911  1.3211  0.5373
 8623TIP3    H225811   5.960   2.385   4.352  1.0910 -0.2891 -1.4947
 8624TIP3   OH225812   2.990   1.451   3.515  0.3139  0.1640  0.4466
 8624TIP3    H125813   2.985   1.466   3.421 -0.4546 -1.1058  0.2634
 8624TIP3    H225814   2.903   1.476   3.548  0.0974 -0.7679  0.5994
 8625TIP3   OH225815   5.949   5.523   4.819 -0.1202  0.2673 -0.6076
 8625TIP3    H125816   5.965   5.480   4.903  1.9084  0.2511 -0.9538
 8625TIP3    H225817   5.879   5.471   4.779  0.3738 -1.0427  0.1644
 8626TIP3   OH225818   6.211   7.652   4.807 -0.2458 -0.5270 -0.5670
 8626TIP3    H125819   6.191   7.724   4.867  1.1644 -1.8919  1.7118
 8626TIP3    H225820   6.276   7.689   4.746 -1.8963  0.9594 -1.5108
 8627TIP3   OH225821   0.513   7.349   0.433 -0.1552  0.1225  0.6519
 8627TIP3    H125822   0.552   7.358   0.520  0.7238  1.7869  0.1432
 8627TIP3    H225823   0.424   7.319   0.449  0.1021  0.0697  2.1000
 8628TIP3   OH225824   0.866   0.567   1.017  0.0860 -0.1739  0.0454
 8628TIP3    H125825   0.907   0.638   0.968 -2.9984  1.3603 -0.5343
 8628TIP3    H225826   0.901   0.487   0.978  3.5238  0.8872  0.5868
 8629TIP3   OH225827   3.355   0.330   6.472 -0.0325  0.7977 -0.3058
 8629TIP3    H125828   3.450   0.321   6.459 -0.0356  1.2897 -0.7166
 8629TIP3    H225829   3.347   0.390   6.546 -0.0235 -0.4967  0.7684
 8630TIP3   OH225830   7.652   1.025   5.605  0.2540 -0.1466  0.1256
 8630TIP3    H125831   7.612   1.069   5.530 -1.7057  0.3990  1.4318
 8630TIP3    H225832   7.661   0.934   5.578  1.5455  0.4169 -1.5060
 8631TIP3   OH225833   3.329   6.082   2.248  0.2770  0.0087 -0.3754
 8631TIP3    H125834   3.279   6.037   2.315  0.8637  0.5658  0.4538
 8631TIP3    H225835   3.264   6.136   2.201 -0.1646 -0.5401 -0.4005
 8632TIP3   OH225836   5.889   6.602   1.909 -0.4791 -0.0653 -0.5462
 8632TIP3    H125837   5.912   6.688   1.942  1.4716 -0.6631 -0.2271
 8632TIP3    H225838   5.893   6.544   1.985 -2.5477 -0.3485 -0.5933
 8633TIP3   OH225839   6.444   0.053   0.834 -0.1373 -0.1430  0.3143
 8633TIP3    H125840   6.475   0.091   0.752 -1.2869  3.4396  1.3441
 8633TIP3    H225841   6.510  -0.012   0.857  1.8204  0.9099 -1.9269
 8634TIP3   OH225842   3.343   3.416   4.650 -0.0225 -0.0775 -0.5320
 8634TIP3    H125843   3.322   3.326   4.623 -0.1957  0.2085 -1.3858
 8634TIP3    H225844   3.359   3.410   4.744 -2.2549 -0.5997 -0.1501
 8635TIP3   OH225845   6.702   1.811   0.500  0.1775  0.1597 -0.3760
 8635TIP3    H125846   6.681   1.767   0.418 -0.1147  1.0251 -0.7866
 8635TIP3    H225847   6.618   1.817   0.546 -0.5361  3.1359 -1.7771
 8636TIP3   OH225848   5.238   1.098   0.650  0.0564  0.3872  0.6025
 8636TIP3    H125849   5.171   1.033   0.671 -1.8734  2.2700  0.5849
 8636TIP3    H225850   5.287   1.108   0.732 -0.0169 -0.6175  0.7851
 8637TIP3   OH225851   6.129   2.126   6.600 -0.1405  0.0799  0.8032
 8637TIP3    H125852   6.129   2.195   6.533 -0.4146 -0.0643  0.6559
 8637TIP3    H225853   6.154   2.047   6.553  1.6897  0.3427  1.2478
 8638TIP3   OH225854   0.208   1.197   1.295 -0.3692  0.2650  0.0979
 8638TIP3    H125855   0.222   1.265   1.361 -0.9327  1.4551 -0.9733
 8638TIP3    H225856   0.155   1.131   1.340  0.6464  0.2474  1.3229
 8639TIP3   OH225857   0.429   4.859   5.746  0.4636 -0.4119 -0.0986
 8639TIP3    H125858   0.476   4.783   5.710  1.8054 -0.3160  1.3741
 8639TIP3    H225859   0.476   4.881   5.826  0.3790  2.2777 -0.7207
 8640TIP3   OH225860   2.893   0.393   1.984  0.4480 -0.1964  0.6255
 8640TIP3    H125861   2.987   0.389   2.003  0.2498 -0.3459  1.6127
 8640TIP3    H225862   2.872   0.486   1.989  0.2498 -0.2924  1.9694
 8641TIP3   OH225863   0.776   4.393   2.211 -0.0063 -0.0506  0.2869
 8641TIP3    H125864   0.869   4.372   2.219 -0.2645 -1.6905 -0.5270
 8641TIP3    H225865   0.751   4.357   2.126 -1.1082  1.5479 -0.1248
 8642TIP3   OH225866   1.709   3.740   6.360  0.2781 -0.6227  0.1388
 8642TIP3    H125867   1.753   3.803   6.417  0.4654 -0.4139 -0.2350
 8642TIP3    H225868   1.780   3.684   6.327  0.2721 -0.2475 -0.5128
 8643TIP3   OH225869   4.385   2.966   2.335  0.3836  0.0613 -0.6399
 8643TIP3    H125870   4.375   2.882   2.292  0.7960  1.0313 -2.7825
 8643TIP3    H225871   4.300   3.009   2.323  0.9864  0.9461 -1.9396
 8644TIP3   OH225872   1.825   0.926   3.165  0.2889 -0.0711 -0.3494
 8644TIP3    H125873   1.898   0.880   3.124  0.0904 -1.0636  0.3681
 8644TIP3    H225874   1.812   0.881   3.249 -0.1925  1.0316  0.1959
 8645TIP3   OH225875   5.190   4.034   1.987 -0.0103 -0.5871 -0.2162
 8645TIP3    H125876   5.137   3.988   2.051 -0.8661 -0.7436 -1.0098
 8645TIP3    H225877   5.234   4.103   2.036  0.8738 -1.8916  0.8876
 8646TIP3   OH225878   5.979   4.298   1.758  0.3118  0.2217  0.4400
 8646TIP3    H125879   6.028   4.251   1.825 -0.7332 -0.7330  0.5541
 8646TIP3    H225880   5.977   4.388   1.789  2.0742  0.3283  0.3682
 8647TIP3   OH225881   6.112   4.025   5.264 -0.1935 -0.7739  0.0567
 8647TIP3    H125882   6.055   3.992   5.195  0.2820 -0.0520 -0.6897
 8647TIP3    H225883   6.058   4.021   5.343 -0.5830 -2.0717 -0.2421
 8648TIP3   OH225884   4.928   4.701   5.902 -0.0555  0.1224  0.2370
 8648TIP3    H125885   4.999   4.744   5.950  2.3951 -1.1939 -1.9345
 8648TIP3    H225886   4.936   4.609   5.925  0.8157 -0.4608 -2.0628
 8649TIP3   OH225887   3.043   2.251   5.355  0.6264  0.1982 -0.0670
 8649TIP3    H125888   3.072   2.160   5.343  1.0885  0.1751  1.1244
 8649TIP3    H225889   3.079   2.277   5.440 -1.0101  0.8975  0.4611
 8650TIP3   OH225890   6.595   6.181   3.214 -0.2999 -0.2691  0.1639
 8650TIP3    H125891   6.623   6.105   3.162 -1.5639  0.0115 -0.9767
 8650TIP3    H225892   6.661   6.248   3.197 -1.0724  0.0595 -1.6942
 8651TIP3   OH225893   1.590   3.417   1.457 -0.0485  0.1884 -0.5649
 8651TIP3    H125894   1.514   3.359   1.463  0.1974 -0.0728  0.1361
 8651TIP3    H225895   1.664   3.359   1.442  0.6365 -0.0709  2.9279
 8652TIP3   OH225896   2.411   5.690   0.090 -0.3332 -0.4933 -0.5304
 8652TIP3    H125897   2.366   5.608   0.112  0.2825 -0.6411  0.1820
 8652TIP3    H225898   2.437   5.678  -0.002 -2.7947  0.0886 -1.3930
 8653TIP3   OH225899   7.263   3.348   4.773 -0.5297  0.3976  0.6036
 8653TIP3    H125900   7.295   3.321   4.687  0.1039  2.0482  0.2805
 8653TIP3    H225901   7.204   3.278   4.800  1.8735 -1.8739  0.3757
 8654TIP3   OH225902   6.191   1.936   0.615  0.0305 -0.0878 -0.2956
 8654TIP3    H125903   6.167   1.955   0.705  0.1590  1.2899 -0.5248
 8654TIP3    H225904   6.286   1.950   0.612  0.1445 -0.8598 -0.4796
 8655TIP3   OH225905   6.878   2.383   4.548  0.2207 -0.4479 -0.0550
 8655TIP3    H125906   6.971   2.406   4.539  0.1798  0.3265  1.1812
 8655TIP3    H225907   6.838   2.462   4.585 -0.8897 -0.8592 -0.3572
 8656TIP3   OH225908   5.054   0.805   0.461  0.0059  0.6110 -0.4155
 8656TIP3    H125909   5.059   0.860   0.540  1.0397  1.0441 -0.7649
 8656TIP3    H225910   5.025   0.865   0.392 -1.6995  0.0527 -0.2249
 8657TIP3   OH225911   3.519   3.389   2.954 -0.3641 -0.1897  0.4774
 8657TIP3    H125912   3.445   3.366   2.898 -1.1981 -1.0481  1.8887
 8657TIP3    H225913   3.594   3.344   2.915 -0.1132  2.1234 -2.0255
 8658TIP3   OH225914   7.742   2.647   4.176 -0.0236 -0.0595 -0.1465
 8658TIP3    H125915   7.717   2.652   4.268  1.8824 -2.5914  0.6219
 8658TIP3    H225916   7.681   2.585   4.137  0.0047 -0.0194 -0.2556
 8659TIP3   OH225917   4.664   3.171   3.295  0.2598 -0.1957 -0.0041
 8659TIP3    H125918   4.698   3.257   3.321 -0.0512 -0.4793  1.4289
 8659TIP3    H225919   4.726   3.140   3.229  0.0605  1.3631 -0.9887
 8660TIP3   OH225920   8.284   2.611   5.727  0.3871  0.5117  0.2517
 8660TIP3    H125921   8.364   2.636   5.680  0.7806 -1.2210 -0.0794
 8660TIP3    H225922   8.240   2.694   5.745  1.2267  1.3781 -1.3985
 8661TIP3   OH225923   7.347   7.092   0.183  0.2113  0.3484 -0.1454
 8661TIP3    H125924   7.442   7.097   0.172  0.4439  0.1539  1.4676
 8661TIP3    H225925   7.311   7.119   0.099  1.6826  1.8630 -0.3362
 8662TIP3   OH225926   7.043   1.796   3.375  0.1883 -0.4921 -0.2537
 8662TIP3    H125927   6.958   1.751   3.379 -0.7073  1.1763  1.4958
 8662TIP3    H225928   7.061   1.820   3.465  1.0323  1.8293 -0.9710
 8663TIP3   OH225929   6.290   2.755   2.201 -0.0464 -0.2388  0.0611
 8663TIP3    H125930   6.285   2.699   2.278 -1.3235 -0.1640  0.0547
 8663TIP3    H225931   6.244   2.835   2.226  0.3067  0.1455 -0.4829
 8664TIP3   OH225932   3.797   2.857   5.941  0.1935 -0.5133 -0.5920
 8664TIP3    H125933   3.884   2.896   5.937 -0.6548  1.4936 -0.6892
 8664TIP3    H225934   3.770   2.850   5.849  0.1423 -0.8603 -0.5513
 8665TIP3   OH225935   3.752   5.396   1.993 -0.0028 -0.1005 -0.3614
 8665TIP3    H125936   3.728   5.327   2.054 -0.5091  0.8071  0.4954
 8665TIP3    H225937   3.813   5.354   1.932 -0.1206 -1.2300  0.2662
 8666TIP3   OH225938   5.207   2.554   6.194  0.3742 -0.1830  0.2818
 8666TIP3    H125939   5.231   2.629   6.139 -0.4681  0.1531  0.3690
 8666TIP3    H225940   5.148   2.590   6.260  1.9989 -0.4135  1.9495
 8667TIP3   OH225941   0.670   0.198   4.715 -0.0610 -0.0733 -0.3284
 8667TIP3    H125942   0.681   0.108   4.745  2.3846  0.2211 -0.1404
 8667TIP3    H225943   0.585   0.224   4.749 -0.2435 -1.8857  0.7361
 8668TIP3   OH225944   7.821   3.848   1.654 -0.0871  0.0107  0.3465
 8668TIP3    H125945   7.900   3.902   1.654 -0.5434  0.6876  0.6011
 8668TIP3    H225946   7.794   3.844   1.746  1.5903 -3.1284  0.8337
 8669TIP3   OH225947   7.039   4.833   1.443 -0.2315 -0.2570  0.0331
 8669TIP3    H125948   7.003   4.887   1.373 -0.6960  0.2342  0.6408
 8669TIP3    H225949   7.127   4.810   1.413 -0.8293 -1.0122 -1.2295
 8670TIP3   OH225950   6.378   3.543   1.489 -0.3109  0.2226 -0.4033
 8670TIP3    H125951   6.328   3.623   1.478  0.7287  1.1191  1.0281
 8670TIP3    H225952   6.418   3.551   1.575  0.3240 -1.5659 -0.4785
 8671TIP3   OH225953   5.631   0.565   2.165  0.1910  0.3322  0.3895
 8671TIP3    H125954   5.612   0.499   2.098  0.4707  1.3005 -0.6810
 8671TIP3    H225955   5.677   0.517   2.234 -0.1170 -0.6959 -0.0978
 8672TIP3   OH225956   4.537   3.311   0.899 -0.5220 -0.1474 -0.2980
 8672TIP3    H125957   4.618   3.308   0.847  0.0223  1.1245  0.4285
 8672TIP3    H225958   4.533   3.225   0.941  0.5937 -0.1486 -0.1500
 8673TIP3   OH225959   0.656   2.069   2.769  0.1870 -0.2314 -0.1154
 8673TIP3    H125960   0.571   2.090   2.807  0.6200  0.5874  0.4199
 8673TIP3    H225961   0.719   2.088   2.838  0.8770 -0.0188 -0.7902
 8674TIP3   OH225962   0.429   6.471   5.364 -0.0371 -0.0506 -0.5476
 8674TIP3    H125963   0.369   6.398   5.380  0.7224 -0.0941  2.6768
 8674TIP3    H225964   0.375   6.549   5.369 -0.1396 -0.1850  0.5469
 8675TIP3   OH225965   4.590   7.798   2.713  0.9393 -0.0860 -0.0885
 8675TIP3    H125966   4.630   7.831   2.633 -0.3635  0.8296 -0.4062
 8675TIP3    H225967   4.502   7.771   2.687  0.2674  0.8093  1.1300
 8676TIP3   OH225968   3.155   2.199   6.520 -0.4089  0.6108 -0.5152
 8676TIP3    H125969   3.209   2.120   6.520 -1.8415 -0.4218 -1.7129
 8676TIP3    H225970   3.087   2.182   6.585 -1.1790  0.4867 -1.3275
 8677TIP3   OH225971   2.352   2.527   0.761 -0.2253  0.3667  0.1906
 8677TIP3    H125972   2.427   2.527   0.819 -0.5701  2.5653  0.7068
 8677TIP3    H225973   2.350   2.615   0.724 -1.1438 -0.3860 -1.6935
 8678TIP3   OH225974   2.056   7.168   5.839 -0.5862  0.3910  0.0692
 8678TIP3    H125975   2.103   7.247   5.814  0.2320 -0.5390 -1.4955
 8678TIP3    H225976   2.089   7.146   5.926  0.7401  0.6308 -0.3508
 8679TIP3   OH225977   5.280   5.716   3.592  0.6630  0.1519  0.0055
 8679TIP3    H125978   5.259   5.809   3.583 -0.2663 -0.1093 -0.7247
 8679TIP3    H225979   5.235   5.688   3.672 -1.6924 -0.3309 -1.3809
 8680TIP3   OH225980   6.062   0.625   2.093 -0.1432  0.5121 -0.2847
 8680TIP3    H125981   6.099   0.618   2.181  0.2445  2.4203 -0.2620
 8680TIP3    H225982   6.126   0.582   2.037  0.4228  0.7333  0.1755
 8681TIP3   OH225983   4.109   0.204   0.894  0.0145  0.2847  0.2880
 8681TIP3    H125984   4.055   0.251   0.958  1.7820  1.1338  1.2278
 8681TIP3    H225985   4.169   0.152   0.947  1.3046  0.7510 -0.6672
 8682TIP3   OH225986   5.696   6.022   1.262  0.1865 -0.3742  0.0722
 8682TIP3    H125987   5.748   6.100   1.241 -0.7187  0.4401  0.7626
 8682TIP3    H225988   5.761   5.953   1.275  0.9823  0.1293 -1.0483
 8683TIP3   OH225989   6.307   5.664   1.725  0.1206 -0.4039 -0.4301
 8683TIP3    H125990   6.349   5.581   1.745 -0.4397 -0.5609  0.0863
 8683TIP3    H225991   6.352   5.728   1.781  0.5754 -0.3452 -0.8538
 8684TIP3   OH225992   7.021   2.029   2.407 -0.0118  0.9948 -0.1713
 8684TIP3    H125993   7.085   1.975   2.360  1.1981  0.7425  1.6859
 8684TIP3    H225994   7.055   2.118   2.399 -0.0369  1.0070 -0.1443
 8685TIP3   OH225995   1.976   4.479   4.376 -0.1029  0.3535  0.3060
 8685TIP3    H125996   1.958   4.412   4.442 -1.1309  1.1858  0.8897
 8685TIP3    H225997   1.913   4.461   4.306 -1.0780  1.3081  0.9166
 8686TIP3   OH225998   5.752   5.601   0.833  0.3140  0.0514  0.0516
 8686TIP3    H125999   5.840   5.626   0.862  0.3502 -1.6205  1.5479
 8686TIP3    H226000   5.706   5.576   0.914 -0.5816 -1.9229 -0.9873
 8687TIP3   OH226001   4.704   5.198   3.309  0.2333  0.0889 -0.0850
 8687TIP3    H126002   4.652   5.249   3.372 -0.5212 -2.2597  1.3181
 8687TIP3    H226003   4.713   5.112   3.350 -0.0566 -1.4868 -3.0733
 8688TIP3   OH226004   4.672   7.137   4.176  0.2522  0.2894 -0.2865
 8688TIP3    H126005   4.688   7.043   4.185  0.2927  0.4063  1.1357
 8688TIP3    H226006   4.579   7.147   4.199 -0.3053  0.3706 -2.4229
 8689TIP3   OH226007   0.902   6.103   5.750 -0.1035  0.1805  0.1465
 8689TIP3    H126008   0.818   6.061   5.732  1.1038 -2.2228 -0.3330
 8689TIP3    H226009   0.933   6.060   5.829  1.6883 -0.7119 -0.9760
 8690TIP3   OH226010   2.297   7.563   1.166 -0.0909  0.3821 -0.3130
 8690TIP3    H126011   2.290   7.471   1.141  0.1230 -0.6844  3.0749
 8690TIP3    H226012   2.391   7.580   1.166  0.0510 -0.1829  1.2662
 8691TIP3   OH226013   2.276   3.766   2.939  0.0861 -0.1094 -0.0471
 8691TIP3    H126014   2.301   3.675   2.926 -0.3809 -0.3079  0.4244
 8691TIP3    H226015   2.195   3.762   2.989  2.1684  0.5997  3.7407
 8692TIP3   OH226016   6.750   6.892   6.790  0.3775 -0.1029  0.1614
 8692TIP3    H126017   6.716   6.812   6.749  0.4029 -0.2842  0.4878
 8692TIP3    H226018   6.707   6.895   6.875 -0.3125  0.7158 -0.1989
 8693TIP3   OH226019   7.670   1.759   0.785 -0.4571  0.0516 -0.3427
 8693TIP3    H126020   7.657   1.821   0.857 -0.4443 -1.6055  1.1332
 8693TIP3    H226021   7.763   1.765   0.765 -0.7098  1.5721 -1.2722
 8694TIP3   OH226022   5.193   1.740   0.612  0.5535  0.1426  0.1079
 8694TIP3    H126023   5.250   1.685   0.665 -0.5479 -0.8723  0.3058
 8694TIP3    H226024   5.211   1.713   0.521  0.5172 -0.0537  0.1581
 8695TIP3   OH226025   7.040   0.943   3.264 -0.5004 -0.0313 -0.3486
 8695TIP3    H126026   7.064   0.917   3.352 -1.2931  1.9143  0.5045
 8695TIP3    H226027   7.114   0.916   3.209  0.9844  0.6560  1.2506
 8696TIP3   OH226028   3.870   5.427   0.900  0.0799  0.4130 -0.1470
 8696TIP3    H126029   3.964   5.442   0.888  0.0845  0.5346  0.0512
 8696TIP3    H226030   3.850   5.466   0.985 -0.1485  0.3790 -0.1858
 8697TIP3   OH226031   1.877   7.316   0.948 -0.6120  0.3201 -0.3492
 8697TIP3    H126032   1.891   7.241   0.890  0.8987 -0.7534  1.3184
 8697TIP3    H226033   1.806   7.289   1.006  1.2783 -0.7776  1.6120
 8698TIP3   OH226034   8.343   7.865   4.567 -0.1003 -0.1945 -0.3239
 8698TIP3    H126035   8.375   7.871   4.477 -1.5922 -0.5524 -0.9014
 8698TIP3    H226036   8.253   7.898   4.563  0.2820  1.2250  1.3350
 8699TIP3   OH226037   1.302   6.559   3.328  0.6545  0.1382 -0.1282
 8699TIP3    H126038   1.216   6.576   3.288  1.3915  1.0258 -1.3983
 8699TIP3    H226039   1.305   6.465   3.341 -0.3841  0.0608 -0.3784
 8700TIP3   OH226040   6.435   5.642   6.604 -0.2495 -0.0467  0.3109
 8700TIP3    H126041   6.400   5.629   6.515 -0.1759  0.7754  0.1578
 8700TIP3    H226042   6.371   5.599   6.661 -1.4623  1.3049  0.0241
 8701TIP3   OH226043   7.491   4.174   1.662 -0.4190 -0.4269  0.1926
 8701TIP3    H126044   7.502   4.223   1.580  0.0029 -0.4110  0.2595
 8701TIP3    H226045   7.396   4.161   1.669 -0.3668 -1.7609 -1.0723
 8702TIP3   OH226046   0.869   0.611   3.944  0.2380  0.2609  0.1520
 8702TIP3    H126047   0.896   0.701   3.962 -0.3362  0.2423  1.1576
 8702TIP3    H226048   0.847   0.611   3.851 -0.5971  1.3867  0.3288
 8703TIP3   OH226049   2.958   7.384   5.165 -0.0868  0.1791 -0.1754
 8703TIP3    H126050   2.870   7.416   5.186  0.3374  1.1110  0.2409
 8703TIP3    H226051   2.956   7.368   5.071 -0.6875  0.2446 -0.1754
 8704TIP3   OH226052   5.063   5.929   1.416  0.5939  0.6090 -0.4389
 8704TIP3    H126053   4.977   5.969   1.421  1.1192  1.8243 -0.8283
 8704TIP3    H226054   5.123   6.001   1.396  1.8516 -0.0262  0.8359
 8705TIP3   OH226055   7.587   3.865   1.055  0.4724  0.0414 -0.1435
 8705TIP3    H126056   7.499   3.892   1.028  1.0828  1.4222 -0.8457
 8705TIP3    H226057   7.582   3.770   1.064 -0.7128 -0.0577 -1.5929
 8706TIP3   OH226058   1.202   5.224   1.102 -0.0318  0.2591  0.0052
 8706TIP3    H126059   1.160   5.146   1.065 -0.4037  0.6609 -0.4302
 8706TIP3    H226060   1.143   5.296   1.080  1.0853  0.9088 -1.0114
 8707TIP3   OH226061   6.201   4.501   3.143 -0.0271 -0.4041 -0.8359
 8707TIP3    H126062   6.252   4.579   3.164  1.6579 -1.6475 -0.0762
 8707TIP3    H226063   6.234   4.474   3.057 -0.9290 -0.0708 -1.3081
 8708TIP3   OH226064   0.319   1.340   3.059  0.2147 -0.0697  1.1568
 8708TIP3    H126065   0.372   1.299   2.991 -0.7579 -0.5391  0.6544
 8708TIP3    H226066   0.262   1.269   3.091 -0.6834  0.6007  1.0888
 8709TIP3   OH226067   3.996   0.527   4.634 -0.0499  0.7664 -0.2699
 8709TIP3    H126068   3.928   0.502   4.696  1.8382 -0.0354  1.6135
 8709TIP3    H226069   3.978   0.619   4.615 -1.3171  0.7237  0.6119
 8710TIP3   OH226070   1.984   2.404   1.688  0.4267 -0.5705  0.1035
 8710TIP3    H126071   1.923   2.460   1.736  2.5949 -0.8831  3.5678
 8710TIP3    H226072   1.930   2.361   1.622 -2.1791  2.2826  0.1297
 8711TIP3   OH226073   0.165   3.607   1.384  0.1546  0.0991 -0.0141
 8711TIP3    H126074   0.201   3.665   1.451  0.6444  1.2970 -1.2655
 8711TIP3    H226075   0.073   3.634   1.376 -0.1237 -0.6023  0.7374
 8712TIP3   OH226076   7.557   4.679   1.125  0.4721  0.0183 -0.0039
 8712TIP3    H126077   7.548   4.643   1.036 -0.6729 -0.3837  0.2552
 8712TIP3    H226078   7.531   4.770   1.117  2.2780  0.5309 -0.4422
 8713TIP3   OH226079   7.187   4.910   3.732 -0.2202 -0.4240  0.4904
 8713TIP3    H126080   7.131   4.944   3.802  1.5402  1.4287  1.1069
 8713TIP3    H226081   7.220   4.827   3.765  0.4898  0.3665  1.8565
 8714TIP3   OH226082   3.626   6.625   0.186  0.2081  0.2107  0.1973
 8714TIP3    H126083   3.569   6.562   0.231  0.7083  0.2552  0.9178
 8714TIP3    H226084   3.714   6.600   0.213  0.6334 -0.5251 -1.7427
 8715TIP3   OH226085   2.118   6.644   6.594  0.2964 -0.5243 -0.3093
 8715TIP3    H126086   2.069   6.571   6.555 -2.0405  1.3949 -1.2027
 8715TIP3    H226087   2.139   6.702   6.521  0.2121  0.7290  0.6186
 8716TIP3   OH226088   3.510   0.663   4.918  0.0689  0.1276 -0.3715
 8716TIP3    H126089   3.473   0.582   4.953 -0.5338  0.5022 -0.1261
 8716TIP3    H226090   3.572   0.634   4.850 -0.1269 -0.5332 -0.2735
 8717TIP3   OH226091   8.194   5.018   5.369 -0.6199  0.5129 -0.4438
 8717TIP3    H126092   8.183   4.953   5.299  0.5927 -0.0947 -0.1075
 8717TIP3    H226093   8.278   5.059   5.349  0.2791 -0.4287  1.2344
 8718TIP3   OH226094   5.117   5.092   2.636 -0.3922 -0.2448  0.7072
 8718TIP3    H126095   5.073   5.172   2.608 -0.2863 -0.3199  0.3226
 8718TIP3    H226096   5.161   5.116   2.717 -0.9004 -0.0914  0.9453
 8719TIP3   OH226097   5.841   0.762   0.393  0.6370 -0.0822 -0.1783
 8719TIP3    H126098   5.914   0.801   0.346  0.0189  1.7511  0.2770
 8719TIP3    H226099   5.821   0.825   0.463 -2.1899  0.1624 -1.0954
 8720TIP3   OH226100   4.228   4.504   1.947 -0.6045 -0.3652 -0.1456
 8720TIP3    H126101   4.294   4.558   1.904 -1.6260  0.0034 -1.3142
 8720TIP3    H226102   4.242   4.416   1.910 -0.4618 -0.3974 -0.0179
 8721TIP3   OH226103   8.190   3.858   6.294  0.0309  1.0498 -0.5523
 8721TIP3    H126104   8.279   3.886   6.315  0.1073  1.6208 -1.5669
 8721TIP3    H226105   8.201   3.801   6.217 -0.3849  0.2689 -0.0481
 8722TIP3   OH226106   1.569   4.571   3.655 -0.2170 -0.0296  0.0962
 8722TIP3    H126107   1.560   4.566   3.750 -1.3024  0.0127  0.0090
 8722TIP3    H226108   1.488   4.612   3.626 -1.6525 -3.4095 -1.1598
 8723TIP3   OH226109   1.774   3.223   6.518 -0.3039 -0.5492 -0.7955
 8723TIP3    H126110   1.748   3.138   6.483  1.7788  0.0103 -4.1245
 8723TIP3    H226111   1.869   3.226   6.507 -0.3185  2.2524 -0.9607
 8724TIP3   OH226112   6.071   7.511   3.259 -0.2033  0.1249 -0.0164
 8724TIP3    H126113   6.156   7.499   3.218  0.0353  0.9864  0.1998
 8724TIP3    H226114   6.077   7.464   3.342 -1.0366 -2.5010 -1.3422
 8725TIP3   OH226115   4.589   1.922   1.563  0.2334 -0.9608  0.5226
 8725TIP3    H126116   4.659   1.967   1.517 -0.2352 -0.2732  0.4524
 8725TIP3    H226117   4.629   1.842   1.598  0.7129 -1.2310 -0.6237
 8726TIP3   OH226118   2.728   1.879   5.607 -0.1031 -0.4749  0.2050
 8726TIP3    H126119   2.682   1.962   5.594 -0.6364 -0.8217 -0.1563
 8726TIP3    H226120   2.743   1.845   5.519  0.5145 -0.5500  0.3344
 8727TIP3   OH226121   2.917   3.703   0.145  0.3220 -0.3092  0.2131
 8727TIP3    H126122   2.861   3.661   0.080 -1.1421 -0.5095  1.5369
 8727TIP3    H226123   2.996   3.649   0.148 -0.5410 -1.6054  0.2015
 8728TIP3   OH226124   4.274   3.657   1.655  0.0848  0.0193 -0.0811
 8728TIP3    H126125   4.304   3.679   1.567 -0.4578  3.3996  0.4388
 8728TIP3    H226126   4.292   3.563   1.664  1.2850 -0.1853 -3.2956
 8729TIP3   OH226127   4.636   1.479   3.989 -0.7304  0.4178 -0.3658
 8729TIP3    H126128   4.699   1.446   4.054 -1.9395 -0.5822  0.3371
 8729TIP3    H226129   4.589   1.548   4.035 -1.6338 -0.3377 -0.1133
 8730TIP3   OH226130   6.556   5.388   3.194  0.5167  0.0882  0.2061
 8730TIP3    H126131   6.641   5.380   3.237  1.3995 -0.6380 -1.5944
 8730TIP3    H226132   6.544   5.305   3.148  0.9077  1.7633 -3.1917
 8731TIP3   OH226133   6.064   6.099   6.067 -0.4034 -0.3927 -0.6101
 8731TIP3    H126134   6.009   6.129   6.139  0.7546  0.4370 -0.0504
 8731TIP3    H226135   6.135   6.163   6.062  1.0561 -1.9512 -0.6794
 8732TIP3   OH226136   8.255   5.930   0.400 -0.4581 -0.0187 -0.6657
 8732TIP3    H126137   8.257   5.853   0.457 -1.5298 -1.6971 -2.7157
 8732TIP3    H226138   8.169   5.968   0.414 -0.6296 -0.2914 -0.9496
 8733TIP3   OH226139   1.341   6.559   0.125 -0.0487  0.1108  0.2355
 8733TIP3    H126140   1.424   6.525   0.092 -1.3529 -1.7038 -1.3979
 8733TIP3    H226141   1.322   6.634   0.069 -0.0842 -0.1959 -0.1618
 8734TIP3   OH226142   7.994   4.382   3.466 -0.3601  0.1012 -0.4315
 8734TIP3    H126143   8.073   4.357   3.419 -0.4389 -1.8111  0.3219
 8734TIP3    H226144   7.939   4.303   3.463 -2.1407  1.2739 -0.6952
 8735TIP3   OH226145   7.933   3.108   5.832 -0.1753  0.2777 -0.0653
 8735TIP3    H126146   7.978   3.181   5.789  0.6088 -1.5105 -2.5259
 8735TIP3    H226147   7.954   3.118   5.925 -2.7746  4.9144  0.2801
 8736TIP3   OH226148   3.002   7.182   4.469  0.1374 -0.6878 -0.4206
 8736TIP3    H126149   3.007   7.207   4.376 -1.6974 -0.7695 -0.5708
 8736TIP3    H226150   3.093   7.182   4.498  0.8110 -1.1541 -2.3480
 8737TIP3   OH226151   2.398   4.976   5.717  0.3229  0.1390  0.2556
 8737TIP3    H126152   2.449   4.911   5.669  2.0831  0.8377  1.0860
 8737TIP3    H226153   2.307   4.962   5.688  1.0979 -0.4446 -2.0775
 8738TIP3   OH226154   6.461   2.859   2.541 -0.1372  0.4198 -0.1577
 8738TIP3    H126155   6.367   2.850   2.523 -0.0763  0.0986 -0.3119
 8738TIP3    H226156   6.497   2.896   2.460  0.5210 -3.1419 -1.6928
 8739TIP3   OH226157   4.960   2.688   1.397  0.3457  0.3323 -0.1400
 8739TIP3    H126158   5.047   2.648   1.406  0.2258  0.2740  0.8679
 8739TIP3    H226159   4.978   2.782   1.398  0.4177  0.3188 -0.0844
 8740TIP3   OH226160   7.793   3.637   4.679 -0.3298 -0.1114 -0.2113
 8740TIP3    H126161   7.788   3.732   4.678 -3.2451 -0.1328 -2.4698
 8740TIP3    H226162   7.702   3.608   4.694  0.2562 -2.4937 -0.7793
 8741TIP3   OH226163   5.831   4.521   0.700 -0.0095  0.3170 -0.4127
 8741TIP3    H126164   5.806   4.508   0.791 -3.2358  0.5164 -1.1461
 8741TIP3    H226165   5.767   4.583   0.666  3.4214  3.3956 -1.9224
 8742TIP3   OH226166   4.399   5.474   1.082 -0.3400 -0.6624  0.2507
 8742TIP3    H126167   4.434   5.557   1.114 -1.6282  0.2048 -0.5351
 8742TIP3    H226168   4.453   5.453   1.006  0.0527 -0.6051  0.5111
 8743TIP3   OH226169   7.477   0.903   3.544 -0.1014  0.1639  0.5247
 8743TIP3    H126170   7.498   0.986   3.589  1.6177 -0.4146  0.8656
 8743TIP3    H226171   7.454   0.929   3.455  1.9243  0.9368  0.1770
 8744TIP3   OH226172   2.558   0.034   4.104  0.3791  0.3210 -0.1733
 8744TIP3    H126173   2.526   0.080   4.182  0.2720 -2.4230  1.5550
 8744TIP3    H226174   2.490   0.048   4.039 -1.6144 -0.6018  1.5763
 8745TIP3   OH226175   1.587   5.808   6.323 -0.6529 -0.5154  0.0667
 8745TIP3    H126176   1.529   5.808   6.246 -0.4172  0.0207 -0.1121
 8745TIP3    H226177   1.599   5.715   6.343 -1.4088 -0.6338 -0.0207
 8746TIP3   OH226178   2.343   5.753   6.803 -0.3139  0.0870 -0.2168
 8746TIP3    H126179   2.418   5.718   6.754 -0.8801 -0.5771 -0.6271
 8746TIP3    H226180   2.376   5.833   6.844 -0.1756  1.4677 -2.8079
 8747TIP3   OH226181   2.731   5.515   4.834  0.2428 -0.2662 -0.4648
 8747TIP3    H126182   2.703   5.549   4.750 -1.7294 -0.8406 -0.0822
 8747TIP3    H226183   2.788   5.441   4.812 -0.9789 -0.9861 -1.3217
 8748TIP3   OH226184   7.380   5.009   3.209 -0.5616 -0.6790  0.3149
 8748TIP3    H126185   7.406   5.035   3.121 -3.5812  2.7301  0.2204
 8748TIP3    H226186   7.460   5.020   3.261  1.0230 -1.7727 -1.7322
 8749TIP3   OH226187   6.227   6.598   2.362  0.2148 -0.6965  0.2215
 8749TIP3    H126188   6.200   6.557   2.444  2.6265  0.9289  1.9710
 8749TIP3    H226189   6.172   6.676   2.355  1.4160  0.3166  1.5088
 8750TIP3   OH226190   3.825   7.316  -0.008 -0.3836 -0.1589  0.2166
 8750TIP3    H126191   3.880   7.251   0.036 -2.0073 -0.5936  1.7204
 8750TIP3    H226192   3.754   7.333   0.054 -1.4370  1.0745 -1.2601
 8751TIP3   OH226193   4.276   1.202   4.548  0.2751 -0.1999  0.5707
 8751TIP3    H126194   4.327   1.283   4.543  1.2916 -0.8680 -0.7291
 8751TIP3    H226195   4.239   1.192   4.461 -0.9057 -0.4959  1.0922
 8752TIP3   OH226196   6.650   4.896   6.455  0.2107 -0.2736 -0.3774
 8752TIP3    H126197   6.609   4.964   6.509  0.3417 -0.9528  0.6075
 8752TIP3    H226198   6.579   4.834   6.438  0.7420 -1.3669  1.1908
 8753TIP3   OH226199   6.075   2.578   0.040 -0.8263  0.2201 -0.2671
 8753TIP3    H126200   6.063   2.664   0.080  0.2003  1.1055 -1.7501
 8753TIP3    H226201   5.987   2.540   0.036 -1.4278  1.5712 -0.3464
 8754TIP3   OH226202   8.290   5.490   5.296 -0.4176 -0.4142 -0.1834
 8754TIP3    H126203   8.324   5.557   5.355 -1.9438  0.2964 -0.0768
 8754TIP3    H226204   8.238   5.433   5.352 -0.2306 -0.9124 -0.5100
 8755TIP3   OH226205   7.948   0.327   1.184  0.0767 -0.0596  0.4815
 8755TIP3    H126206   7.981   0.238   1.195 -0.8725 -0.2917  1.7326
 8755TIP3    H226207   7.904   0.347   1.267  0.3176  1.5999  0.2477
 8756TIP3   OH226208   1.599   3.766   1.985 -0.5320  0.2314 -0.3429
 8756TIP3    H126209   1.591   3.801   2.074 -0.6070 -0.3698 -0.1106
 8756TIP3    H226210   1.650   3.832   1.939  1.6542 -0.5708  0.7878
 8757TIP3   OH226211   5.807   6.222   2.398  0.0981 -0.2285  0.2216
 8757TIP3    H126212   5.741   6.194   2.461 -0.4026  0.7964  0.1874
 8757TIP3    H226213   5.884   6.169   2.418 -0.5385 -1.0104  0.6708
 8758TIP3   OH226214   8.415   0.917   5.438 -0.0228 -0.0860 -0.3140
 8758TIP3    H126215   8.350   0.890   5.373  0.3875  0.3022 -0.8867
 8758TIP3    H226216   8.363   0.938   5.516 -0.7135  1.3413 -1.1254
 8759TIP3   OH226217   0.050   4.425   0.196  0.5686 -0.2320  0.2666
 8759TIP3    H126218  -0.023   4.485   0.212  0.7771  0.8825 -2.3559
 8759TIP3    H226219   0.027   4.381   0.114  2.3091 -0.7363  0.0129
 8760TIP3   OH226220   5.980   6.652   5.384 -0.3062 -0.0346  0.2271
 8760TIP3    H126221   5.897   6.681   5.345 -0.7964 -0.0300  1.2355
 8760TIP3    H226222   5.956   6.577   5.439  0.3482  0.0106  0.5899
 8761TIP3   OH226223   3.611   2.129   4.479 -0.1852  0.1389  0.0190
 8761TIP3    H126224   3.556   2.054   4.501 -0.2035 -1.1544 -3.7305
 8761TIP3    H226225   3.700   2.097   4.492 -0.2182 -0.1169 -0.3648
 8762TIP3   OH226226   7.885   5.185   2.501 -0.2954 -0.8566 -0.3188
 8762TIP3    H126227   7.955   5.241   2.469  1.7212 -1.1690  3.0181
 8762TIP3    H226228   7.823   5.244   2.542  0.6353 -0.8101  1.1071
 8763TIP3   OH226229   5.293   2.637   3.392  0.3784 -0.8690  0.5641
 8763TIP3    H126230   5.215   2.582   3.394  0.9234 -1.6371  1.4495
 8763TIP3    H226231   5.269   2.715   3.442 -0.3557 -0.3198 -0.5926
 8764TIP3   OH226232   1.248   3.200   6.479 -0.0592  0.0120 -0.0168
 8764TIP3    H126233   1.238   3.295   6.468 -0.0487 -0.1107 -1.2248
 8764TIP3    H226234   1.179   3.176   6.541 -0.5408  0.6987 -0.2725
 8765TIP3   OH226235   0.161   4.934   0.282 -0.1162  0.0484 -0.1692
 8765TIP3    H126236   0.162   4.947   0.377 -3.1124 -0.3073 -0.0025
 8765TIP3    H226237   0.185   4.842   0.270 -0.8492 -0.2150  0.3438
 8766TIP3   OH226238   7.456   2.413   6.563  0.0480  0.3605  0.3087
 8766TIP3    H126239   7.394   2.369   6.621  1.4449  0.2003  1.7531
 8766TIP3    H226240   7.431   2.505   6.567 -0.5832  0.1986  0.2297
 8767TIP3   OH226241   0.647   0.499   2.976 -0.2787 -0.2114  0.1982
 8767TIP3    H126242   0.660   0.424   3.034  2.2733  0.6639  0.9193
 8767TIP3    H226243   0.726   0.501   2.921 -1.5504  0.3625 -1.7155
 8768TIP3   OH226244   7.355   6.898   4.606 -0.1811 -0.1544 -0.5605
 8768TIP3    H126245   7.341   6.831   4.539  0.2329 -1.0786  0.2661
 8768TIP3    H226246   7.447   6.887   4.632 -0.5617 -0.3468  0.7395
 8769TIP3   OH226247   6.392   4.368   1.764  0.0955  1.1344 -0.0751
 8769TIP3    H126248   6.441   4.441   1.728  0.3849 -0.2508 -2.7475
 8769TIP3    H226249   6.459   4.310   1.801  0.1945  0.7759 -0.7950
 8770TIP3   OH226250   4.182   0.777   5.806 -0.1685 -0.2484  0.0562
 8770TIP3    H126251   4.240   0.773   5.882  0.4003 -1.2648 -0.4131
 8770TIP3    H226252   4.192   0.866   5.773  1.3991 -0.5018 -0.2194
 8771TIP3   OH226253   7.742   6.097   4.666  0.0857  0.2685  0.4674
 8771TIP3    H126254   7.727   6.148   4.586 -0.2817 -1.3524 -0.5555
 8771TIP3    H226255   7.685   6.021   4.657  2.3679 -1.6008  0.7233
 8772TIP3   OH226256   6.179   6.422   4.899 -0.1254 -0.2136 -0.3171
 8772TIP3    H126257   6.205   6.330   4.892 -0.5056 -0.4897  1.4063
 8772TIP3    H226258   6.254   6.465   4.941 -0.0625  0.2108 -0.8554
 8773TIP3   OH226259   8.009   7.314   1.567  0.8132  0.3201  0.4425
 8773TIP3    H126260   8.041   7.391   1.519 -0.4349  1.4563  1.3372
 8773TIP3    H226261   7.930   7.288   1.520  1.1300 -0.3077  0.2571
 8774TIP3   OH226262   0.912   7.204   4.702 -0.1180 -0.7128 -0.5341
 8774TIP3    H126263   0.972   7.131   4.717  1.5266  0.6217 -0.3154
 8774TIP3    H226264   0.923   7.224   4.609 -0.7949 -0.9382 -0.6620
 8775TIP3   OH226265   7.717   0.862   5.890 -0.3150 -0.0001 -0.1951
 8775TIP3    H126266   7.643   0.918   5.867 -2.2929 -2.5296 -0.4382
 8775TIP3    H226267   7.729   0.877   5.984 -1.0545  0.5638 -0.1783
 8776TIP3   OH226268   6.931   3.829   2.782 -0.6615 -0.1595  0.4033
 8776TIP3    H126269   6.876   3.788   2.850 -1.4397  0.9238  0.4587
 8776TIP3    H226270   6.982   3.895   2.830  0.3286 -0.8223  0.2654
 8777TIP3   OH226271   2.054   1.577   3.244  0.1861  0.2066 -0.0995
 8777TIP3    H126272   2.076   1.492   3.283 -3.0634 -0.8422 -0.2585
 8777TIP3    H226273   2.047   1.636   3.320 -0.6532 -0.4585  0.3526
 8778TIP3   OH226274   1.636   5.353   5.593  0.2597  0.1503 -0.5310
 8778TIP3    H126275   1.580   5.418   5.551 -0.3302 -0.3856 -0.5888
 8778TIP3    H226276   1.586   5.271   5.587  1.3945 -0.5174 -1.3373
 8779TIP3   OH226277   0.602   1.557   6.031  0.0379 -0.4141  0.1333
 8779TIP3    H126278   0.530   1.609   5.996  1.2704  0.9222 -0.5007
 8779TIP3    H226279   0.606   1.479   5.976 -0.1177  0.1193 -0.6327
 8780TIP3   OH226280   3.636   6.877   0.475  0.2002  0.6600 -0.0440
 8780TIP3    H126281   3.547   6.843   0.485  0.1845  0.7647  0.1918
 8780TIP3    H226282   3.670   6.832   0.398  0.2881 -0.1357  0.4457
 8781TIP3   OH226283   4.642   1.606   1.564 -0.1335 -0.4537 -0.4660
 8781TIP3    H126284   4.609   1.641   1.481 -0.2264  0.2827 -0.1289
 8781TIP3    H226285   4.676   1.520   1.542 -1.7511 -1.0084 -0.9538
 8782TIP3   OH226286   1.645   1.119   0.935  0.1076 -0.1233  0.5986
 8782TIP3    H126287   1.721   1.160   0.894 -1.8780  1.6817 -1.6003
 8782TIP3    H226288   1.626   1.175   1.010 -0.8454  1.3751 -0.6946
 8783TIP3   OH226289   3.967   5.099   5.485  0.1866 -0.2945 -0.3128
 8783TIP3    H126290   4.039   5.075   5.427  0.1302 -2.1978  0.3430
 8783TIP3    H226291   3.889   5.065   5.442 -0.0356 -0.3598  0.1357
 8784TIP3   OH226292   3.053   1.311   3.772  0.0645  0.1805 -0.5607
 8784TIP3    H126293   3.139   1.270   3.767  0.1389  0.2553  0.0608
 8784TIP3    H226294   3.049   1.368   3.695  0.8642  0.7426 -0.2025
 8785TIP3   OH226295   0.236   1.080   6.074  0.1238  0.4195 -0.3013
 8785TIP3    H126296   0.220   1.117   5.987 -0.7430  0.2475 -0.2261
 8785TIP3    H226297   0.250   1.155   6.130  0.4557  0.5424 -0.5457
 8786TIP3   OH226298   0.065   2.136   3.652 -0.4419 -0.4136 -0.9194
 8786TIP3    H126299   0.059   2.065   3.715  0.4191 -0.6598 -1.1040
 8786TIP3    H226300  -0.026   2.163   3.637 -0.7851 -1.5344 -0.9145
 8787TIP3   OH226301   1.852   5.724   5.411 -0.1197  0.8238  0.2277
 8787TIP3    H126302   1.776   5.700   5.359  0.3247  0.4878 -0.2749
 8787TIP3    H226303   1.899   5.642   5.425  0.1575  1.0284  0.5249
 8788TIP3   OH226304   5.437   2.480   4.423  0.1642 -0.0792  0.6207
 8788TIP3    H126305   5.473   2.567   4.405  0.7579 -0.6359 -1.1754
 8788TIP3    H226306   5.346   2.496   4.445 -0.4141  0.9182 -2.0431
 8789TIP3   OH226307   3.232   7.300   0.657 -0.2850 -0.1429 -0.4874
 8789TIP3    H126308   3.266   7.210   0.651  1.2583  0.3953 -0.3415
 8789TIP3    H226309   3.298   7.347   0.708 -1.9524  0.6768  1.0080
 8790TIP3   OH226310   3.739   1.349   3.258  0.4330 -0.1044  0.7040
 8790TIP3    H126311   3.656   1.378   3.222 -0.3122 -0.0341  2.3985
 8790TIP3    H226312   3.749   1.259   3.226  0.3058  0.2909 -0.4735
 8791TIP3   OH226313   7.331   2.374   5.916  0.4988  0.3210 -0.2885
 8791TIP3    H126314   7.270   2.378   5.990  1.7810  2.6249  0.7408
 8791TIP3    H226315   7.414   2.349   5.956  1.3661  2.2602 -0.7892
 8792TIP3   OH226316   3.448   4.682   1.537 -0.1809 -0.6119 -0.0340
 8792TIP3    H126317   3.467   4.769   1.572 -0.9611 -0.6852  0.6067
 8792TIP3    H226318   3.429   4.696   1.445 -3.1543  0.3550  0.6233
 8793TIP3   OH226319   3.749   6.812   2.718 -0.4615  0.4311 -0.2113
 8793TIP3    H126320   3.796   6.755   2.656 -1.4443 -1.2361  0.5072
 8793TIP3    H226321   3.693   6.866   2.664 -0.3102 -0.0648 -0.8758
 8794TIP3   OH226322   7.026   0.468   6.021 -0.4618 -0.0972 -0.0203
 8794TIP3    H126323   7.000   0.499   5.935  0.3438  0.4498 -0.0764
 8794TIP3    H226324   6.996   0.536   6.081 -0.6436 -0.2743  0.0930
 8795TIP3   OH226325   1.698   1.583   5.799  1.0273  0.2460 -0.3357
 8795TIP3    H126326   1.642   1.506   5.811  0.6902  0.7276  1.5640
 8795TIP3    H226327   1.639   1.657   5.810  1.4896  0.7943 -1.4060
 8796TIP3   OH226328   3.843   1.143   5.037  0.1735 -0.2490  0.6060
 8796TIP3    H126329   3.888   1.219   5.073  0.8810 -0.9676  1.3137
 8796TIP3    H226330   3.913   1.089   4.999 -0.3580 -0.3730 -0.2259
 8797TIP3   OH226331   1.836   3.214   2.294 -0.4281 -0.2791 -0.1397
 8797TIP3    H126332   1.843   3.281   2.361  0.6264 -0.3230 -0.1986
 8797TIP3    H226333   1.746   3.223   2.260 -0.0365  1.7069 -0.7688
 8798TIP3   OH226334   1.274   7.690   5.877  0.4855 -0.0227 -0.4985
 8798TIP3    H126335   1.302   7.609   5.920 -0.1255  0.6769  1.2996
 8798TIP3    H226336   1.354   7.724   5.837  1.0502 -0.7947 -0.0581
 8799TIP3   OH226337   0.924   7.184   4.416 -0.0713 -0.3787  0.7906
 8799TIP3    H126338   0.895   7.270   4.387  2.5267  0.5670  0.7036
 8799TIP3    H226339   0.899   7.124   4.346 -0.5751  0.5678  0.1508
 8800TIP3   OH226340   0.605   6.583   3.144 -0.0640 -0.4045 -0.0815
 8800TIP3    H126341   0.679   6.633   3.178 -0.1524  1.4650 -2.3950
 8800TIP3    H226342   0.528   6.632   3.174 -0.2409 -0.4126 -0.5245
 8801TIP3   OH226343   4.490   5.480   3.241  0.1967 -0.0291  0.0675
 8801TIP3    H126344   4.572   5.526   3.227  1.3502 -1.3588  2.0640
 8801TIP3    H226345   4.425   5.549   3.254  0.9485  1.0331 -1.5598
 8802TIP3   OH226346   5.834   2.823   0.270 -0.2208 -0.2150 -0.2376
 8802TIP3    H126347   5.916   2.843   0.226 -0.9134  0.0562 -1.4411
 8802TIP3    H226348   5.785   2.771   0.207 -1.3546  0.4132  0.1029
 8803TIP3   OH226349   2.720   2.885   3.233 -0.1164 -0.2973 -0.3668
 8803TIP3    H126350   2.630   2.917   3.234  0.4791  1.6889  2.3153
 8803TIP3    H226351   2.759   2.927   3.156 -1.3114 -0.6959 -1.2046
 8804TIP3   OH226352   2.847   1.928   2.795  0.1148 -0.1417  0.2999
 8804TIP3    H126353   2.766   1.886   2.766  0.6376 -0.4225 -0.7941
 8804TIP3    H226354   2.915   1.863   2.780  0.7453  0.5974 -0.1583
 8805TIP3   OH226355   6.593   0.305   0.198  0.0865  0.1152 -0.3525
 8805TIP3    H126356   6.610   0.214   0.175  0.0973 -0.3438  1.3620
 8805TIP3    H226357   6.660   0.327   0.262 -0.4042  1.0701 -0.1397
 8806TIP3   OH226358   0.223   5.159   5.767  0.5279  0.2162 -0.4045
 8806TIP3    H126359   0.223   5.254   5.781  0.2980  0.4859 -2.0183
 8806TIP3    H226360   0.315   5.136   5.752  0.4105  0.4696 -1.6060
 8807TIP3   OH226361   1.412   0.728   2.465  0.4156 -0.1163  0.0028
 8807TIP3    H126362   1.463   0.808   2.452  1.6706 -0.8276  0.4264
 8807TIP3    H226363   1.351   0.726   2.391  1.2259  0.5797 -0.7003
 8808TIP3   OH226364   1.488   0.235   4.795  0.5164 -0.2963 -0.1078
 8808TIP3    H126365   1.578   0.209   4.813 -0.2085 -2.2945  0.9333
 8808TIP3    H226366   1.446   0.156   4.761 -0.6222  0.8569 -1.5701
 8809TIP3   OH226367   8.070   2.353   2.165 -0.2573 -0.6026 -0.3401
 8809TIP3    H126368   8.032   2.441   2.155  1.4522  0.0224 -2.0458
 8809TIP3    H226369   8.099   2.350   2.256  0.7319  1.0963 -0.5492
 8810TIP3   OH226370   7.750   2.506   5.886  0.1438  0.2167  0.4734
 8810TIP3    H126371   7.689   2.579   5.894 -0.6515 -0.4194  0.3748
 8810TIP3    H226372   7.793   2.500   5.972  0.6093  1.1310  0.3078
 8811TIP3   OH226373   6.598   6.449   4.781 -0.4299 -0.2755  0.1949
 8811TIP3    H126374   6.691   6.471   4.789 -0.0444 -1.8438  0.4409
 8811TIP3    H226375   6.576   6.471   4.690 -0.0396  0.8608  0.3676
 8812TIP3   OH226376   2.277   2.437   6.747  0.5924  0.4633 -0.1882
 8812TIP3    H126377   2.243   2.435   6.657  0.6925 -2.1014 -0.2313
 8812TIP3    H226378   2.352   2.496   6.743  3.1216 -2.5880 -2.8252
 8813TIP3   OH226379   3.553   6.113   3.185 -0.4857  0.3211  0.3998
 8813TIP3    H126380   3.513   6.027   3.172  1.0019 -0.3633  0.1557
 8813TIP3    H226381   3.641   6.095   3.217 -0.4956  1.7941  1.4085
 8814TIP3   OH226382   0.472   4.893   2.203 -0.5196 -0.1619 -0.5094
 8814TIP3    H126383   0.495   4.900   2.110  0.2091  0.7677 -0.2794
 8814TIP3    H226384   0.489   4.980   2.238 -0.7977 -0.5019  0.5006
 8815TIP3   OH226385   3.638   0.107   3.226 -0.8566  0.5502 -0.3931
 8815TIP3    H126386   3.610   0.144   3.142 -1.4708 -3.3342 -2.1204
 8815TIP3    H226387   3.691   0.031   3.202 -1.3024 -0.8927  2.7352
 8816TIP3   OH226388   6.548   0.810   6.681  0.4468 -0.1027  0.0954
 8816TIP3    H126389   6.469   0.762   6.659  0.4211 -0.1849  0.3633
 8816TIP3    H226390   6.557   0.875   6.612  0.8390 -0.9090 -0.6391
 8817TIP3   OH226391   5.329   4.108   6.748  0.1292 -0.0061 -0.4236
 8817TIP3    H126392   5.413   4.078   6.714  0.1430 -0.3303 -0.1169
 8817TIP3    H226393   5.273   4.117   6.671  1.4952  3.8624 -1.1321
 8818TIP3   OH226394   1.396   7.612   4.235  0.2021 -0.6642 -0.3723
 8818TIP3    H126395   1.315   7.592   4.282  0.3457 -1.4358 -0.4417
 8818TIP3    H226396   1.457   7.640   4.304 -0.4422  1.0341 -0.4452
 8819TIP3   OH226397   2.852   6.377   0.874 -0.1054  0.1084 -0.1150
 8819TIP3    H126398   2.806   6.360   0.792 -0.7208 -1.1107  0.4624
 8819TIP3    H226399   2.814   6.459   0.906 -0.1733  0.3618 -0.8233
 8820TIP3   OH226400   6.466   5.010   4.438  0.0435 -0.2323 -0.1873
 8820TIP3    H126401   6.393   4.984   4.494  0.4638  0.4831  0.7225
 8820TIP3    H226402   6.464   4.948   4.365  1.2094 -3.0343  1.9974
 8821TIP3   OH226403   3.680   3.883   5.505 -0.4615 -0.3490 -0.3315
 8821TIP3    H126404   3.600   3.835   5.526 -0.4999 -0.7001 -1.1988
 8821TIP3    H226405   3.725   3.894   5.588 -0.6500 -1.5481 -0.0498
 8822TIP3   OH226406   7.038   2.365   1.704 -0.6295  0.2330 -0.0037
 8822TIP3    H126407   6.956   2.317   1.689 -1.6810  2.3890 -1.9139
 8822TIP3    H226408   7.037   2.434   1.637  1.9539  1.3920  1.0298
 8823TIP3   OH226409   7.644   0.593   1.613  0.0924  0.4036 -0.4067
 8823TIP3    H126410   7.572   0.657   1.617 -0.2819  0.1460 -2.2277
 8823TIP3    H226411   7.600   0.509   1.608  0.5648  0.1222  0.0953
 8824TIP3   OH226412   0.232   2.175   5.804  0.2976 -0.2868 -0.6348
 8824TIP3    H126413   0.305   2.144   5.858 -1.0598  0.8571  2.0551
 8824TIP3    H226414   0.184   2.095   5.782  3.4839 -1.4576 -4.6685
 8825TIP3   OH226415   1.056   2.854   5.558  0.3191  0.1815 -0.0372
 8825TIP3    H126416   1.144   2.853   5.596  0.4056 -3.6853  0.1175
 8825TIP3    H226417   1.060   2.788   5.488 -2.6976 -0.9567  0.7267
 8826TIP3   OH226418   3.170   6.693   3.152 -0.8484  0.2056  0.3098
 8826TIP3    H126419   3.084   6.688   3.194 -1.7714  3.0906 -0.9538
 8826TIP3    H226420   3.150   6.715   3.061  1.2287  1.3256  0.0710
 8827TIP3   OH226421   5.296   2.539   5.877  0.1691 -0.4346 -0.3292
 8827TIP3    H126422   5.258   2.582   5.801 -0.6376 -0.4844  0.0249
 8827TIP3    H226423   5.390   2.550   5.868  0.0521 -0.0327 -1.0856
 8828TIP3   OH226424   4.424   6.217   2.956 -0.5686  0.5652  0.5923
 8828TIP3    H126425   4.435   6.134   3.003  0.0525  0.5150  0.3722
 8828TIP3    H226426   4.394   6.278   3.023  0.9448  0.6555  1.2193
 8829TIP3   OH226427   0.314   0.325   5.083  0.0822  0.2458  0.3810
 8829TIP3    H126428   0.291   0.398   5.141 -2.0038  0.8448 -1.0922
 8829TIP3    H226429   0.401   0.346   5.052  1.2445 -0.0339  3.1124
 8830TIP3   OH226430   7.260   1.418   2.568  0.2316 -0.3999  0.7148
 8830TIP3    H126431   7.213   1.419   2.651 -1.3406  0.8403 -0.1342
 8830TIP3    H226432   7.288   1.509   2.556  0.0010 -0.4629 -0.3403
 8831TIP3   OH226433   0.255   4.856   4.291 -0.8291  0.1653  0.0160
 8831TIP3    H126434   0.326   4.890   4.345 -0.8351  0.0730  0.0822
 8831TIP3    H226435   0.261   4.906   4.209 -0.8522  0.3402  0.1210
 8832TIP3   OH226436   2.181   5.520   2.582  0.2032  0.5063 -1.0215
 8832TIP3    H126437   2.171   5.427   2.601 -0.6214  0.5363 -1.2613
 8832TIP3    H226438   2.247   5.523   2.512  1.0192  0.1903 -0.2859
 8833TIP3   OH226439   7.479   1.966   5.059 -0.0561 -0.3054 -0.2651
 8833TIP3    H126440   7.525   1.932   4.982  0.6030  0.4314 -0.2036
 8833TIP3    H226441   7.548   2.005   5.113 -0.3945 -1.4151  1.0391
 8834TIP3   OH226442   3.795   4.532   5.964  0.4851 -0.2732  0.2061
 8834TIP3    H126443   3.720   4.473   5.952  0.6391 -0.7008  1.2329
 8834TIP3    H226444   3.773   4.610   5.913  0.4604 -1.3593 -1.5569
 8835TIP3   OH226445   2.881   5.353   0.337 -0.5280  0.0471 -0.0272
 8835TIP3    H126446   2.946   5.325   0.271 -1.1006 -0.4777 -0.3804
 8835TIP3    H226447   2.799   5.314   0.307 -1.2863  1.7932 -0.2987
 8836TIP3   OH226448   0.481   7.244   6.760  0.0973 -0.5075 -0.0535
 8836TIP3    H126449   0.518   7.278   6.678 -1.8977  2.8717  0.2578
 8836TIP3    H226450   0.548   7.262   6.826  0.0348  0.6883 -0.3027
 8837TIP3   OH226451   0.618   2.876   2.434 -0.3587  0.0890 -0.1145
 8837TIP3    H126452   0.653   2.852   2.348 -3.1262 -0.4745 -1.2033
 8837TIP3    H226453   0.562   2.952   2.416  0.4593  1.1442  1.5668
 8838TIP3   OH226454   1.352   7.917   6.106  0.1227 -0.3800 -0.1404
 8838TIP3    H126455   1.423   7.958   6.057  0.6194  1.7642  2.1476
 8838TIP3    H226456   1.302   7.869   6.041  2.4224 -0.1914 -2.1908
 8839TIP3   OH226457   4.558   1.413   5.773  1.1428  0.6260 -0.1588
 8839TIP3    H126458   4.469   1.391   5.748  0.7952  1.1384  0.5880
 8839TIP3    H226459   4.581   1.349   5.840  1.2756  0.6024 -0.2252
 8840TIP3   OH226460   3.847   6.097   0.568  0.5847 -0.3958  0.0027
 8840TIP3    H126461   3.800   6.021   0.603  0.2057  0.8155  2.3258
 8840TIP3    H226462   3.910   6.120   0.637 -1.7222  3.4722  1.1174
 8841TIP3   OH226463   3.595   7.752   0.601  0.3666 -0.0695  0.3114
 8841TIP3    H126464   3.499   7.757   0.600  0.2640  2.5681  4.1695
 8841TIP3    H226465   3.615   7.696   0.676  1.9108 -0.8282 -0.6154
 8842TIP3   OH226466   1.853   5.860   2.841  0.1808  0.2591 -0.4173
 8842TIP3    H126467   1.844   5.898   2.754 -0.5522  0.3258 -0.3126
 8842TIP3    H226468   1.797   5.913   2.897  2.3413  1.6730  0.5615
 8843TIP3   OH226469   0.482   4.123   5.940 -0.3946 -0.5493  0.1953
 8843TIP3    H126470   0.455   4.128   6.032 -0.6477 -2.7590  0.2914
 8843TIP3    H226471   0.404   4.093   5.894 -0.1288  0.0637 -0.6764
 8844TIP3   OH226472   1.455   1.702   5.331 -0.3610  0.1322 -0.0402
 8844TIP3    H126473   1.538   1.665   5.301  1.1429  0.9595  2.7439
 8844TIP3    H226474   1.441   1.779   5.276  2.1073  1.4420  1.0042
 8845TIP3   OH226475   2.174   3.656   6.672 -0.0505  0.3498  0.4091
 8845TIP3    H126476   2.191   3.722   6.605  0.3004 -0.5541 -0.4084
 8845TIP3    H226477   2.138   3.706   6.745  1.9681  1.7501  0.5559
 8846TIP3   OH226478   0.463   5.644   1.330  0.6331  0.4990 -0.5386
 8846TIP3    H126479   0.462   5.734   1.365  1.4382  0.7060 -1.0149
 8846TIP3    H226480   0.459   5.654   1.235  0.1504  0.0024 -0.5760
 8847TIP3   OH226481   4.676   1.977   4.840  0.2049  0.0467 -0.2424
 8847TIP3    H126482   4.709   1.938   4.759  1.1068  2.8973 -1.4011
 8847TIP3    H226483   4.739   1.950   4.907  1.5659  0.5451 -1.2646
 8848TIP3   OH226484   4.050   4.174   3.438  0.0193  0.5149 -0.2955
 8848TIP3    H126485   4.076   4.176   3.346 -0.2937  1.4094 -0.3687
 8848TIP3    H226486   4.062   4.263   3.469 -1.1290  0.5232  0.1778
 8849TIP3   OH226487   7.960   7.416   1.898  0.3268  0.1718  0.1379
 8849TIP3    H126488   8.040   7.378   1.860 -0.9140 -2.1889 -0.2669
 8849TIP3    H226489   7.894   7.405   1.830 -1.2892 -1.5875  1.8859
 8850TIP3   OH226490   1.537   4.099   6.881 -0.4828  0.4147  0.8738
 8850TIP3    H126491   1.470   4.066   6.821 -1.8288  3.9209  0.2383
 8850TIP3    H226492   1.599   4.144   6.825 -0.9538  2.4617  1.9137
 8851TIP3   OH226493   4.025   2.315   5.316  0.2524 -0.2195 -0.3760
 8851TIP3    H126494   4.033   2.410   5.319 -0.1648 -0.1461 -1.1625
 8851TIP3    H226495   3.981   2.292   5.398 -2.2215  0.5797 -1.3911
 8852TIP3   OH226496   3.827   3.025   0.746 -0.1228  0.3568  0.2379
 8852TIP3    H126497   3.751   2.986   0.789  1.8399 -1.5776  2.2777
 8852TIP3    H226498   3.871   3.074   0.815  0.9626  0.6374 -0.6258
 8853TIP3   OH226499   3.376   5.150   0.155  0.5139 -0.2807 -0.0546
 8853TIP3    H126500   3.291   5.193   0.140  0.2306  0.0488  2.1278
 8853TIP3    H226501   3.360   5.059   0.132  0.0816  0.1079 -1.3540
 8854TIP3   OH226502   6.834   4.858   0.856 -0.7250 -0.2209  0.2468
 8854TIP3    H126503   6.814   4.929   0.918  0.4992  0.0819  0.3144
 8854TIP3    H226504   6.750   4.838   0.815 -1.2560  0.6673  0.8605
 8855TIP3   OH226505   2.077   3.816   5.598  0.2506  0.0755 -0.3475
 8855TIP3    H126506   2.001   3.873   5.589  0.8075  1.2860  1.8767
 8855TIP3    H226507   2.141   3.851   5.536 -0.7174 -0.5675 -1.7770
 8856TIP3   OH226508   6.868   5.559   1.215  0.6878 -0.3532 -0.5062
 8856TIP3    H126509   6.835   5.600   1.295  1.0967  0.6506 -0.8487
 8856TIP3    H226510   6.962   5.578   1.214  0.7576 -0.6812 -1.0422
 8857TIP3   OH226511   4.263   7.117   6.620 -0.0966 -1.1769 -0.0346
 8857TIP3    H126512   4.184   7.116   6.566 -0.9013  2.1665  0.8512
 8857TIP3    H226513   4.234   7.085   6.705  0.0131 -1.8612 -0.2490
 8858TIP3   OH226514   4.859   5.010   2.414 -0.4040  0.2387 -0.8755
 8858TIP3    H126515   4.899   5.096   2.431 -1.4120  0.5557 -0.0255
 8858TIP3    H226516   4.923   4.965   2.358  0.7469  1.0342 -0.2394
 8859TIP3   OH226517   8.043   0.962   2.222 -0.0185 -0.1658  0.6088
 8859TIP3    H126518   8.122   0.952   2.274 -0.3415 -1.1079  0.9435
 8859TIP3    H226519   7.989   0.887   2.246 -0.9572  0.3901  0.2870
 8860TIP3   OH226520   5.590   5.850   0.963  0.0881  0.2367 -0.1144
 8860TIP3    H126521   5.631   5.844   0.877 -1.6996 -0.9677 -0.9522
 8860TIP3    H226522   5.615   5.768   1.007 -1.6434 -0.6942 -0.7839
 8861TIP3   OH226523   3.572   4.760   3.436  0.3914  0.1925  0.0065
 8861TIP3    H126524   3.510   4.810   3.488  0.8646  0.3909  0.3933
 8861TIP3    H226525   3.647   4.818   3.425  1.7117 -1.0032  1.9899
 8862TIP3   OH226526   4.792   3.742   1.699  0.1568 -0.0718  0.2894
 8862TIP3    H126527   4.823   3.788   1.776 -1.2581 -0.7577  1.3137
 8862TIP3    H226528   4.731   3.676   1.733 -1.2432  0.2321 -1.4725
 8863TIP3   OH226529   3.173   6.115   6.231 -0.3557 -0.7097 -0.0102
 8863TIP3    H126530   3.238   6.155   6.173 -0.3957 -0.9503 -0.2224
 8863TIP3    H226531   3.184   6.160   6.315 -0.2441 -0.4145 -0.1829
 8864TIP3   OH226532   0.468   7.031   5.475 -0.1861 -0.4744 -0.4897
 8864TIP3    H126533   0.458   7.003   5.566  0.3767 -0.6346 -0.4762
 8864TIP3    H226534   0.410   6.973   5.425 -0.1230 -0.7032 -0.2927
 8865TIP3   OH226535   1.199   7.794   4.845  0.5566 -0.0797 -0.1064
 8865TIP3    H126536   1.107   7.801   4.870  0.0603 -0.8411 -1.5605
 8865TIP3    H226537   1.245   7.854   4.903 -0.7815 -0.1014  1.0217
 8866TIP3   OH226538   1.093   1.686   5.893 -0.1201 -0.1411  0.6124
 8866TIP3    H126539   1.180   1.644   5.889  0.9072  1.8281  0.9592
 8866TIP3    H226540   1.074   1.692   5.986 -0.6225 -0.5566  0.5345
 8867TIP3   OH226541   3.399   2.696   4.662  0.2059 -0.1936  0.8295
 8867TIP3    H126542   3.369   2.757   4.729 -0.1640 -0.7956  1.2140
 8867TIP3    H226543   3.351   2.615   4.679 -0.3235 -0.1891 -0.5035
 8868TIP3   OH226544   7.993   4.610   5.997  0.0541 -0.5922  0.1000
 8868TIP3    H126545   7.916   4.643   5.950 -0.6648 -2.6894 -0.2642
 8868TIP3    H226546   7.993   4.516   5.981  1.7771 -0.8749  1.4735
 8869TIP3   OH226547   0.892   4.145   2.823 -0.2615  0.7098 -0.2739
 8869TIP3    H126548   0.892   4.161   2.918 -1.2264  1.5007 -0.3896
 8869TIP3    H226549   0.849   4.222   2.786 -0.6573  0.0133 -1.2930
 8870TIP3   OH226550   6.554   0.143   5.180 -0.2448 -0.7871 -0.6352
 8870TIP3    H126551   6.585   0.182   5.262 -3.3281  0.7704 -0.0552
 8870TIP3    H226552   6.490   0.206   5.147 -1.4933 -2.9291 -2.5610
 8871TIP3   OH226553   6.725   1.078   0.484  0.3991  0.3917 -0.6513
 8871TIP3    H126554   6.757   1.049   0.399  1.2085 -0.4457 -0.0783
 8871TIP3    H226555   6.728   1.000   0.540 -0.6738  0.7820  0.0032
 8872TIP3   OH226556   3.172   6.020   5.793  0.0853  0.2792 -0.1549
 8872TIP3    H126557   3.182   6.078   5.718 -0.5434 -0.0561 -0.5032
 8872TIP3    H226558   3.144   6.078   5.864 -0.9016  0.3656 -0.5941
 8873TIP3   OH226559   2.123   1.479   2.254 -0.1611 -0.1560  0.3874
 8873TIP3    H126560   2.047   1.530   2.227 -0.6412 -2.1821 -2.4536
 8873TIP3    H226561   2.186   1.545   2.284 -1.5376  1.9039 -0.9864
 8874TIP3   OH226562   7.906   4.355   0.263 -0.0475 -0.3549  0.1155
 8874TIP3    H126563   7.926   4.300   0.339  1.2705 -0.1228 -0.0429
 8874TIP3    H226564   7.965   4.430   0.271  0.1238 -0.3333 -1.1328
 8875TIP3   OH226565   2.380   0.429   2.198  0.2252 -0.6805  0.4624
 8875TIP3    H126566   2.288   0.433   2.223  0.2286 -0.7490  0.4856
 8875TIP3    H226567   2.427   0.430   2.281  0.3186  1.2250  0.4216
 8876TIP3   OH226568   7.144   3.159   2.800  0.0983  0.2454 -1.0152
 8876TIP3    H126569   7.204   3.227   2.829  0.9714 -0.8369 -0.1698
 8876TIP3    H226570   7.156   3.088   2.863 -2.2105  0.0472 -0.7411
 8877TIP3   OH226571   0.114   7.367   4.037  0.5948 -0.4353 -0.3661
 8877TIP3    H126572   0.150   7.346   4.123  0.6431  1.6360  0.1703
 8877TIP3    H226573   0.191   7.379   3.981  0.5828 -0.8781 -0.4845
 8878TIP3   OH226574   0.481   3.822   2.744  0.1770 -0.0954 -0.2542
 8878TIP3    H126575   0.547   3.892   2.752 -0.3661  0.3535  0.4066
 8878TIP3    H226576   0.474   3.787   2.833 -0.8578  0.2216 -0.1976
 8879TIP3   OH226577   7.123   5.551   3.631  0.3720 -0.0141 -0.0691
 8879TIP3    H126578   7.098   5.535   3.540  0.1868  2.1415 -0.4469
 8879TIP3    H226579   7.218   5.537   3.632  0.5860  1.1580 -0.9362
 8880TIP3   OH226580   3.856   5.123   5.073 -0.3579 -0.1089 -0.1443
 8880TIP3    H126581   3.837   5.158   4.986 -0.8688  0.4879  0.2008
 8880TIP3    H226582   3.835   5.029   5.066 -1.4523  0.1358 -0.3638
 8881TIP3   OH226583   7.797   4.368   6.736 -0.2039 -0.3449 -0.2336
 8881TIP3    H126584   7.858   4.411   6.797 -1.4862 -0.0169  0.8895
 8881TIP3    H226585   7.851   4.306   6.688  1.3065  1.0153 -0.3922
 8882TIP3   OH226586   8.114   3.199   3.533  0.5677  0.0484 -0.4064
 8882TIP3    H126587   8.045   3.228   3.474  0.4237 -0.0391 -0.2801
 8882TIP3    H226588   8.082   3.117   3.570  1.9289 -1.5156 -2.4851
 8883TIP3   OH226589   4.861   2.764   3.275  0.3153  0.2580 -0.2558
 8883TIP3    H126590   4.878   2.838   3.334  0.3179 -2.1719  3.0921
 8883TIP3    H226591   4.947   2.734   3.248  0.4222  0.2029  0.1388
 8884TIP3   OH226592   2.688   3.819   4.831 -0.2118  0.1191  0.1731
 8884TIP3    H126593   2.765   3.769   4.859 -0.4946 -0.4515 -0.0532
 8884TIP3    H226594   2.707   3.844   4.740 -0.0898  0.3833  0.2714
 8885TIP3   OH226595   5.934   3.871   5.124  0.4564 -0.1717 -0.2270
 8885TIP3    H126596   5.995   3.904   5.057  0.3094  0.6527  0.0402
 8885TIP3    H226597   5.936   3.776   5.112  1.1016 -0.0969 -0.8267
 8886TIP3   OH226598   7.723   3.167   3.037 -0.3610 -0.2895 -0.0373
 8886TIP3    H126599   7.792   3.115   3.078 -0.8545  0.0015  1.2052
 8886TIP3    H226600   7.713   3.243   3.095 -1.2886 -0.0233 -0.5342
 8887TIP3   OH226601   3.925   7.200   0.784  0.0442 -0.0216  0.4383
 8887TIP3    H126602   3.851   7.202   0.845 -0.2559  0.8067  0.0694
 8887TIP3    H226603   3.915   7.118   0.736 -0.5752  0.0273  0.4781
 8888TIP3   OH226604   6.362   0.443   1.065 -0.4200 -0.2849 -0.0247
 8888TIP3    H126605   6.365   0.445   0.970  0.0742 -1.2355 -0.0396
 8888TIP3    H226606   6.420   0.371   1.090  0.3950  0.6972  1.0426
 8889TIP3   OH226607   7.743   3.353   2.559 -0.5515 -0.2085  0.0833
 8889TIP3    H126608   7.731   3.359   2.464 -0.1128  1.2713  0.0922
 8889TIP3    H226609   7.753   3.444   2.588  0.0146 -0.6714  1.4552
 8890TIP3   OH226610   6.732   6.915   0.474  0.0129  0.7380 -0.2334
 8890TIP3    H126611   6.811   6.952   0.512  0.4877  0.0124 -0.5010
 8890TIP3    H226612   6.661   6.957   0.522  0.5589  1.2921  0.1015
 8891TIP3   OH226613   6.906   7.623   3.440  0.0645  0.2460  0.2919
 8891TIP3    H126614   6.941   7.556   3.499 -0.2203 -0.4710 -0.3212
 8891TIP3    H226615   6.835   7.663   3.489 -1.0893 -1.2960 -0.0331
 8892TIP3   OH226616   6.191   2.538   6.595 -0.5355 -0.4366  0.1921
 8892TIP3    H126617   6.134   2.519   6.670  1.0191 -1.2413  1.2396
 8892TIP3    H226618   6.197   2.633   6.593 -0.9036 -0.3937  0.8570
 8893TIP3   OH226619   4.676   1.714   3.655 -0.2836 -0.1902 -0.3309
 8893TIP3    H126620   4.744   1.664   3.700  1.0750 -0.2430 -2.3062
 8893TIP3    H226621   4.688   1.804   3.684 -0.4183 -0.4520  0.5434
 8894TIP3   OH226622   6.020   4.862   3.631  0.0252 -0.1064  0.3433
 8894TIP3    H126623   5.963   4.791   3.661  0.8943 -1.2523 -0.6420
 8894TIP3    H226624   6.106   4.823   3.624  0.9834  1.5903  1.7727
 8895TIP3   OH226625   8.134   5.088   6.825 -0.3258  0.2373  0.0676
 8895TIP3    H126626   8.229   5.093   6.828 -0.2098 -1.6821  0.4005
 8895TIP3    H226627   8.109   5.039   6.903 -1.4459 -0.7532 -0.8612
 8896TIP3   OH226628   5.428   7.436   5.914  0.5849 -0.0701 -0.3101
 8896TIP3    H126629   5.467   7.358   5.875 -1.2773  0.3370 -3.2087
 8896TIP3    H226630   5.379   7.403   5.989  2.5155 -1.1737  0.5520
 8897TIP3   OH226631   7.419   6.485   2.409 -0.1459 -0.2783  0.6000
 8897TIP3    H126632   7.400   6.579   2.411 -0.3999 -0.3213  0.3929
 8897TIP3    H226633   7.343   6.447   2.364 -0.0954 -0.5937  0.7819
 8898TIP3   OH226634   1.129   7.596   3.198 -0.1750  0.1849  0.5969
 8898TIP3    H126635   1.221   7.597   3.175 -0.1183 -0.0427  0.8097
 8898TIP3    H226636   1.126   7.559   3.286 -0.5054 -0.2160  0.4235
 8899TIP3   OH226637   1.069   4.737   4.007 -0.2752  0.4037 -0.3075
 8899TIP3    H126638   1.060   4.813   4.064  2.0073  0.4719  0.0511
 8899TIP3    H226639   1.090   4.665   4.067  0.0413  0.0170 -0.8748
 8900TIP3   OH226640   5.560   7.272   5.030 -0.1202 -0.2247 -0.4355
 8900TIP3    H126641   5.642   7.225   5.017 -0.5557 -1.3430  0.5654
 8900TIP3    H226642   5.500   7.233   4.965 -0.5415 -1.2540  0.5382
 8901TIP3   OH226643   5.725   3.729   6.170  0.0339  0.1282 -0.1428
 8901TIP3    H126644   5.819   3.725   6.152  0.0614 -0.1732  0.0555
 8901TIP3    H226645   5.718   3.792   6.242  0.1761 -0.4631  0.4045
 8902TIP3   OH226646   5.914   1.931   2.577  0.2402 -0.5452 -0.4448
 8902TIP3    H126647   5.991   1.920   2.632 -0.8239 -0.7497  1.0728
 8902TIP3    H226648   5.901   2.026   2.572 -0.7964 -0.5330  1.4104
 8903TIP3   OH226649   0.472   5.439   0.833  0.0306 -0.0589  0.1429
 8903TIP3    H126650   0.464   5.530   0.805  1.0795  0.4187  1.3010
 8903TIP3    H226651   0.468   5.388   0.752 -1.0886  0.9655 -0.4726
 8904TIP3   OH226652   3.256   0.937   2.792  0.1089  0.3105  0.5026
 8904TIP3    H126653   3.187   0.996   2.825  0.4520  1.5023 -0.8196
 8904TIP3    H226654   3.330   0.995   2.773  1.2162 -0.8484  1.1367
 8905TIP3   OH226655   5.451   7.371   3.298  0.1315  0.4027 -0.3094
 8905TIP3    H126656   5.398   7.305   3.252  1.4435 -0.0372 -1.2653
 8905TIP3    H226657   5.541   7.339   3.289  0.5351  0.8716  1.6892
 8906TIP3   OH226658   5.855   5.761   5.874 -0.3100  0.3933  0.1362
 8906TIP3    H126659   5.864   5.698   5.802  0.4519 -0.3721  0.8848
 8906TIP3    H226660   5.770   5.802   5.858 -0.2244  0.1461 -1.1258
 8907TIP3   OH226661   2.786  -0.010   3.797 -0.4031  0.8080  0.2363
 8907TIP3    H126662   2.845   0.056   3.832 -0.3045  0.6122  0.4401
 8907TIP3    H226663   2.699   0.030   3.802 -0.2964  1.0833 -0.0296
 8908TIP3   OH226664   4.883   7.218   6.229 -0.0926 -0.4875 -0.2563
 8908TIP3    H126665   4.796   7.217   6.191 -0.9300 -0.7755  1.5644
 8908TIP3    H226666   4.914   7.128   6.221  0.4231 -0.2232 -1.6327
 8909TIP3   OH226667   8.066   4.008   1.654 -0.0152  0.4024 -0.3239
 8909TIP3    H126668   8.153   3.968   1.660 -0.0093  0.4372 -0.1867
 8909TIP3    H226669   8.073   4.088   1.706  0.1696  0.9282 -1.1347
 8910TIP3   OH226670   3.005   0.286   6.663 -0.0909 -0.1336 -0.5221
 8910TIP3    H126671   3.005   0.260   6.571  2.6174  0.4583 -0.7794
 8910TIP3    H226672   3.017   0.381   6.661 -2.5503  0.2821  0.4820
 8911TIP3   OH226673   4.901   3.569   4.539 -0.4433  0.3643  0.1211
 8911TIP3    H126674   4.956   3.495   4.568  0.6734  1.1312  0.0187
 8911TIP3    H226675   4.873   3.611   4.620  1.7312  1.8184  0.2117
 8912TIP3   OH226676   3.248   6.582   0.356 -0.3350 -0.2242 -0.0652
 8912TIP3    H126677   3.202   6.603   0.275  1.6332  2.2315 -0.6799
 8912TIP3    H226678   3.302   6.506   0.333 -1.1752 -0.7143 -0.4694
 8913TIP3   OH226679   5.090   0.525   1.632  0.0819  0.2901  0.1200
 8913TIP3    H126680   5.027   0.542   1.702  0.6907 -1.9470  1.3102
 8913TIP3    H226681   5.175   0.522   1.675  0.7473  0.9808 -1.0825
 8914TIP3   OH226682   2.242   1.841   6.349  0.1388 -0.2203 -0.6266
 8914TIP3    H126683   2.324   1.832   6.301  0.3445  0.6877 -0.4482
 8914TIP3    H226684   2.250   1.780   6.422  2.1179  2.2455  1.3964
 8915TIP3   OH226685   1.263   5.527   6.691  0.3604  0.1584  0.0233
 8915TIP3    H126686   1.309   5.481   6.621  0.4611  2.9241 -1.8716
 8915TIP3    H226687   1.325   5.593   6.722 -1.5906  2.8914 -1.4682
 8916TIP3   OH226688   1.049   1.376   2.670  0.5842  0.0521  0.0817
 8916TIP3    H126689   1.140   1.356   2.689  0.6132 -0.5664 -0.6617
 8916TIP3    H226690   1.000   1.301   2.704  0.5712 -0.7092 -1.5116
 8917TIP3   OH226691   4.474   2.981   4.795 -0.1227 -0.3231  0.3536
 8917TIP3    H126692   4.491   2.889   4.777  0.7126  0.0128 -0.7123
 8917TIP3    H226693   4.405   3.005   4.733  0.9438  0.2011 -0.6740
 8918TIP3   OH226694   5.923   7.794   2.718 -0.2016  0.2787 -0.3975
 8918TIP3    H126695   5.892   7.710   2.685  0.2384  0.4256 -1.1969
 8918TIP3    H226696   5.857   7.819   2.783  0.5248 -1.4689  1.0990
 8919TIP3   OH226697   7.860   2.516   6.882  0.3777 -0.1534  0.3499
 8919TIP3    H126698   7.938   2.561   6.851 -0.4903  2.3302  1.4499
 8919TIP3    H226699   7.820   2.480   6.803  0.3923  2.3535 -0.9072
 8920TIP3   OH226700   8.074   2.303   6.405 -0.0776 -0.4140  0.2188
 8920TIP3    H126701   8.013   2.362   6.361 -1.0464 -0.8483  0.9112
 8920TIP3    H226702   8.155   2.352   6.413  0.0704 -0.2688 -1.8464
 8921TIP3   OH226703   5.875   4.582   2.634  0.3857 -0.0150  0.0107
 8921TIP3    H126704   5.858   4.495   2.597  1.0553 -0.0404 -0.2595
 8921TIP3    H226705   5.967   4.599   2.613  0.8678 -0.1299  1.8469
 8922TIP3   OH226706   6.204   5.217   6.454  0.5108 -0.5381  0.4368
 8922TIP3    H126707   6.221   5.285   6.520 -0.9181 -0.6419  0.9614
 8922TIP3    H226708   6.193   5.265   6.372 -0.1670 -0.1569  0.7448
 8923TIP3   OH226709   7.753   6.017   2.956  0.0553 -0.7195  0.4930
 8923TIP3    H126710   7.698   5.941   2.974  1.1289 -1.3360  1.2685
 8923TIP3    H226711   7.833   6.002   3.007  1.7675 -0.7612 -2.0039
 8924TIP3   OH226712   5.018   2.949   1.407 -0.3896  0.0271  0.2447
 8924TIP3    H126713   5.106   2.985   1.416  0.3132 -1.9912  2.4500
 8924TIP3    H226714   4.965   2.997   1.470 -1.0130  1.4059 -1.2469
 8925TIP3   OH226715   0.203   0.076   3.404  0.4920 -0.0926 -0.5609
 8925TIP3    H126716   0.213   0.148   3.466 -1.7388  1.0954 -1.4761
 8925TIP3    H226717   0.290   0.037   3.399  1.1997  0.9485  1.8444
 8926TIP3   OH226718   2.195   7.022   2.398 -0.6173 -0.5756  0.1041
 8926TIP3    H126719   2.267   6.999   2.456 -0.0379  0.7526 -0.0627
 8926TIP3    H226720   2.236   7.032   2.312 -0.5519  2.2179  0.3627
 8927TIP3   OH226721   5.650   5.601   1.084 -0.4954  0.6833  0.5824
 8927TIP3    H126722   5.732   5.600   1.133 -0.6489  0.3243  0.8337
 8927TIP3    H226723   5.582   5.585   1.149 -0.5741 -1.6179  0.0175
 8928TIP3   OH226724   6.712   2.340   2.735 -0.0812  0.4398 -0.1345
 8928TIP3    H126725   6.771   2.381   2.797 -0.3278 -0.8034  0.9631
 8928TIP3    H226726   6.766   2.273   2.691 -0.4253 -0.0884  0.2342
 8929TIP3   OH226727   2.794   3.027   5.803  0.2804  0.1494  0.4671
 8929TIP3    H126728   2.752   3.102   5.761 -0.4625 -0.2467  0.4936
 8929TIP3    H226729   2.830   3.063   5.884  0.9409  0.7242 -0.0664
 8930TIP3   OH226730   1.085   4.735   6.235 -0.0757 -0.3132 -0.4230
 8930TIP3    H126731   0.989   4.735   6.237 -0.0781 -0.4153 -0.5168
 8930TIP3    H226732   1.107   4.806   6.174 -0.0555  0.8969  0.9337
 8931TIP3   OH226733   4.112   6.882   1.443 -0.4896 -0.1236  0.5850
 8931TIP3    H126734   4.026   6.884   1.487 -0.3271  1.5884  0.8642
 8931TIP3    H226735   4.103   6.942   1.369  0.2375 -0.5578  0.1298
 8932TIP3   OH226736   6.427   6.727   5.129  0.0290 -0.3247  0.2656
 8932TIP3    H126737   6.458   6.814   5.151  2.5180 -1.2232  0.6759
 8932TIP3    H226738   6.398   6.690   5.212 -0.8648  0.0366  0.1206
 8933TIP3   OH226739   5.223   0.255   6.440  0.2734 -0.2563 -0.2099
 8933TIP3    H126740   5.312   0.287   6.450 -0.4059  1.2566  1.4506
 8933TIP3    H226741   5.206   0.205   6.520 -0.7898  0.6102  0.1321
 8934TIP3   OH226742   2.549   3.910   4.438  0.4683 -0.6517  0.2078
 8934TIP3    H126743   2.645   3.910   4.439  0.4926  1.2163  1.4863
 8934TIP3    H226744   2.525   3.825   4.476  1.5656 -1.6218 -1.1504
 8935TIP3   OH226745   0.414   3.461   1.343  0.0182  0.3772  0.2117
 8935TIP3    H126746   0.447   3.452   1.254  1.3856  0.5884  0.6768
 8935TIP3    H226747   0.344   3.525   1.336 -0.0143  0.2547 -0.7340
 8936TIP3   OH226748   1.547   0.419   6.602 -0.2304  0.2067 -0.2179
 8936TIP3    H126749   1.578   0.390   6.516  0.5404  0.4242 -0.0204
 8936TIP3    H226750   1.549   0.340   6.656  1.6225  0.5153  0.2494
 8937TIP3   OH226751   6.613   1.440   2.319  0.1630  0.2409  0.2184
 8937TIP3    H126752   6.519   1.425   2.306  0.4003 -1.9996  0.6963
 8937TIP3    H226753   6.622   1.456   2.413  0.3339 -0.3302  0.3025
 8938TIP3   OH226754   4.092   1.153   6.388  0.2193  0.9628  0.0694
 8938TIP3    H126755   4.047   1.068   6.387  0.8362  0.6258 -0.1457
 8938TIP3    H226756   4.120   1.164   6.479  1.2071  0.3356 -0.1372
 8939TIP3   OH226757   0.647   1.707   3.896  0.3239 -0.0780  0.8601
 8939TIP3    H126758   0.584   1.763   3.941 -0.5384  0.4263 -0.8822
 8939TIP3    H226759   0.715   1.767   3.866 -1.3705  0.4352 -2.3689
 8940TIP3   OH226760   3.339   6.806   3.332  0.1569  0.4270 -0.4800
 8940TIP3    H126761   3.280   6.771   3.266  1.3448 -1.1539 -0.7691
 8940TIP3    H226762   3.346   6.737   3.398  1.2878  0.7689 -0.2081
 8941TIP3   OH226763   0.705   5.946   6.058  0.0878 -0.4591  0.6654
 8941TIP3    H126764   0.652   5.997   6.120  0.9997  0.3052  0.8507
 8941TIP3    H226765   0.642   5.896   6.007 -0.7820  0.1251  1.1463
 8942TIP3   OH226766   6.841   4.454   3.282  0.5359  0.2989 -0.0767
 8942TIP3    H126767   6.869   4.363   3.282  1.7346  0.6363  1.1238
 8942TIP3    H226768   6.794   4.465   3.199  1.3937 -1.0913 -0.7845
 8943TIP3   OH226769   5.557   0.510   2.779 -0.6826 -0.5210  0.1839
 8943TIP3    H126770   5.637   0.484   2.732 -0.5123 -0.3019  0.3528
 8943TIP3    H226771   5.587   0.570   2.847 -0.9810 -0.5145  0.3118
 8944TIP3   OH226772   3.386   0.262   1.330  0.4823 -0.0204 -0.5341
 8944TIP3    H126773   3.373   0.356   1.336 -1.2600 -0.1998 -1.1130
 8944TIP3    H226774   3.480   0.252   1.314  0.6029  1.6334 -1.0088
 8945TIP3   OH226775   8.090   2.664   5.046  0.0376  0.1852 -0.3397
 8945TIP3    H126776   8.072   2.584   5.095 -1.6100 -0.1477 -1.3979
 8945TIP3    H226777   8.173   2.647   5.001 -1.0310 -1.6118 -1.7811
 8946TIP3   OH226778   7.321   7.427   2.653  0.1356 -0.4860  0.3632
 8946TIP3    H126779   7.309   7.511   2.697 -0.7533 -1.8259  2.8758
 8946TIP3    H226780   7.254   7.426   2.585  0.2512  0.8719  0.2002
 8947TIP3   OH226781   2.508   5.476   6.026 -0.1074  0.7090 -0.4021
 8947TIP3    H126782   2.564   5.518   6.090 -0.7994  2.1159 -0.6845
 8947TIP3    H226783   2.547   5.389   6.013  1.2220  1.1656  0.3681
 8948TIP3   OH226784   0.255   3.324   4.769 -0.4649 -0.2324  0.5359
 8948TIP3    H126785   0.347   3.302   4.783 -0.5541 -0.7042  0.4073
 8948TIP3    H226786   0.210   3.239   4.772 -1.0295  0.0906  1.6156
 8949TIP3   OH226787   3.638   2.787   2.855 -0.8725 -0.0864 -0.0147
 8949TIP3    H126788   3.634   2.812   2.948 -0.1373 -0.8870  0.2389
 8949TIP3    H226789   3.730   2.770   2.839 -0.8943  0.7424 -1.0946
 8950TIP3   OH226790   8.038   3.255   6.049 -0.0112  0.2118  0.1201
 8950TIP3    H126791   8.024   3.346   6.021 -0.5336  0.2885  0.6072
 8950TIP3    H226792   7.988   3.247   6.130  1.4877  0.0059  1.0712
 8951TIP3   OH226793   1.654   7.872   3.160 -0.4557 -0.0804  0.0480
 8951TIP3    H126794   1.685   7.880   3.251 -0.7067  0.9936  0.0477
 8951TIP3    H226795   1.667   7.779   3.139  1.3886  0.0276  0.5350
 8952TIP3   OH226796   6.263   6.702   6.161 -0.4564 -0.0065  0.2121
 8952TIP3    H126797   6.180   6.683   6.116 -0.9609  0.8493  0.7509
 8952TIP3    H226798   6.329   6.700   6.092 -0.6136 -2.4914  0.0292
 8953TIP3   OH226799   4.579   6.548   3.443 -0.0066 -0.5228  0.2550
 8953TIP3    H126800   4.488   6.523   3.427  0.0700  0.0451 -1.1606
 8953TIP3    H226801   4.573   6.638   3.476  0.0567 -0.3222 -0.2705
 8954TIP3   OH226802   4.154   5.457   3.141 -0.1763 -0.1161 -0.0062
 8954TIP3    H126803   4.208   5.491   3.070 -0.0371 -0.3062  0.0089
 8954TIP3    H226804   4.209   5.392   3.185 -0.4204 -0.3248 -0.0041
 8955TIP3   OH226805   1.953   0.999   0.188  0.1477  0.1974  0.2270
 8955TIP3    H126806   1.905   0.942   0.248  0.6309 -1.0357 -0.5200
 8955TIP3    H226807   2.043   0.968   0.191  0.6202  1.5122  0.4691
 8956TIP3   OH226808   2.754   0.389   2.518 -0.2376  0.0725 -0.4442
 8956TIP3    H126809   2.810   0.347   2.453 -0.2053 -0.3370 -0.1544
 8956TIP3    H226810   2.800   0.470   2.541  1.4241 -1.3217  1.4795
 8957TIP3   OH226811   1.939   4.913   6.326  0.1110  0.1712  0.5293
 8957TIP3    H126812   1.987   4.836   6.357  0.5069 -2.0782 -4.7040
 8957TIP3    H226813   2.007   4.981   6.318  0.3593  0.1824  2.2438
 8958TIP3   OH226814   2.638   2.927   2.231  0.5710 -0.1804 -0.4571
 8958TIP3    H126815   2.572   2.996   2.234 -1.7356 -2.2449  0.3219
 8958TIP3    H226816   2.652   2.904   2.323  2.0023 -0.1777 -0.6476
 8959TIP3   OH226817   7.044   1.122   1.241 -0.4501  0.1961  0.0367
 8959TIP3    H126818   7.109   1.191   1.254  0.6990 -0.9056  0.3958
 8959TIP3    H226819   6.959   1.166   1.248  0.2462  1.7813 -1.0250
 8960TIP3   OH226820   3.432   5.559   3.746 -0.2371  0.1165 -0.4320
 8960TIP3    H126821   3.514   5.595   3.711  0.1398 -1.3878 -1.1762
 8960TIP3    H226822   3.369   5.630   3.737  0.4112  0.5236 -2.1234
 8961TIP3   OH226823   0.537   6.525   3.643  0.1106 -0.1616 -0.1506
 8961TIP3    H126824   0.448   6.546   3.672  1.1528  2.3170  1.6136
 8961TIP3    H226825   0.576   6.479   3.718  1.2777  1.7775  0.5117
 8962TIP3   OH226826   6.998   1.046   2.152 -0.4576  0.2632  0.2316
 8962TIP3    H126827   6.917   1.096   2.148  0.2886  1.5249  0.3442
 8962TIP3    H226828   7.006   1.006   2.065 -2.1149 -1.4426  0.7966
 8963TIP3   OH226829   6.157   6.134   3.211 -0.5091  0.3508 -0.5392
 8963TIP3    H126830   6.107   6.061   3.175  0.7494 -0.4225 -0.7456
 8963TIP3    H226831   6.205   6.169   3.136  2.6896 -1.7057  0.3606
 8964TIP3   OH226832   6.403   3.244   2.191 -0.3037  0.5331  1.0800
 8964TIP3    H126833   6.466   3.266   2.260  1.8036 -0.2311 -0.4747
 8964TIP3    H226834   6.422   3.153   2.169 -1.0718  0.6773 -0.3335
 8965TIP3   OH226835   6.469   2.662   6.355 -0.3494  0.3618 -0.2713
 8965TIP3    H126836   6.553   2.689   6.318 -0.6501 -0.4854 -1.6517
 8965TIP3    H226837   6.403   2.701   6.297 -0.8287 -1.4552 -1.0173
 8966TIP3   OH226838   1.253   4.903   2.838 -0.5639  0.1894  0.2285
 8966TIP3    H126839   1.278   4.994   2.854  0.9168  0.1266 -1.3837
 8966TIP3    H226840   1.168   4.909   2.794 -0.3037  0.8379 -0.2061
 8967TIP3   OH226841   7.118   5.091   6.208 -0.5234 -0.5178  0.0223
 8967TIP3    H126842   7.125   5.147   6.285 -1.7561 -0.9758  0.5011
 8967TIP3    H226843   7.167   5.012   6.231  0.2754 -0.1034 -0.2191
 8968TIP3   OH226844   0.282   3.944   2.036 -0.3691  0.5928  0.0873
 8968TIP3    H126845   0.260   4.029   1.996  0.4554  1.3957  1.2769
 8968TIP3    H226846   0.322   3.967   2.120  2.3679 -0.8658 -0.7081
 8969TIP3   OH226847   1.182   2.874   0.683  0.3579  0.6332 -0.2682
 8969TIP3    H126848   1.174   2.963   0.648 -0.1578  0.2956 -1.0268
 8969TIP3    H226849   1.222   2.824   0.612  1.2771  0.3958  0.3998
 8970TIP3   OH226850   6.714   3.030   3.672 -0.4134  0.1873  0.5942
 8970TIP3    H126851   6.729   2.937   3.653 -1.2293 -0.3453  2.2906
 8970TIP3    H226852   6.632   3.050   3.627  0.6702  0.6131 -1.2587
 8971TIP3   OH226853   5.591   1.550   0.645 -0.3401  0.0240  0.1701
 8971TIP3    H126854   5.657   1.555   0.714 -0.7738 -0.8848  0.6752
 8971TIP3    H226855   5.513   1.592   0.682  0.5733  3.2678 -1.2767
 8972TIP3   OH226856   5.217   6.913   5.679  0.4695 -0.6224 -0.1080
 8972TIP3    H126857   5.241   7.004   5.694 -0.0670 -0.2035 -1.5629
 8972TIP3    H226858   5.176   6.884   5.761 -0.8806  0.9798 -0.1700
 8973TIP3   OH226859   0.585   3.295   3.162  0.3665  0.3270 -0.1931
 8973TIP3    H126860   0.510   3.238   3.146  0.1956  0.3795  0.3921
 8973TIP3    H226861   0.661   3.238   3.147  0.1975 -0.0241  0.2305
 8974TIP3   OH226862   0.977   5.285   5.728 -0.5779 -0.6268  0.3509
 8974TIP3    H126863   0.993   5.237   5.647 -0.7090  0.5444 -0.3818
 8974TIP3    H226864   1.064   5.296   5.767 -0.1619  1.0694 -0.9567
 8975TIP3   OH226865   4.681   4.098   5.701 -0.3565 -0.1449 -0.2889
 8975TIP3    H126866   4.717   4.017   5.665 -1.8329 -1.3107  0.7787
 8975TIP3    H226867   4.652   4.147   5.624 -1.2752 -1.5313 -0.8530
 8976TIP3   OH226868   1.034   0.598   1.657 -0.6911 -0.3270  0.3998
 8976TIP3    H126869   0.941   0.600   1.680 -0.3846 -2.0890  2.1079
 8976TIP3    H226870   1.074   0.662   1.716 -1.0011  2.0701 -1.8202
 8977TIP3   OH226871   7.311   6.891   6.591 -0.5010  0.2351 -0.3230
 8977TIP3    H126872   7.279   6.916   6.678  0.8688  1.1145 -0.0530
 8977TIP3    H226873   7.261   6.947   6.531  1.2193  2.4274  0.1646
 8978TIP3   OH226874   2.073   3.923   1.160 -0.3774 -0.7269 -0.0747
 8978TIP3    H126875   2.048   3.882   1.243 -1.5331  1.1164  0.5566
 8978TIP3    H226876   2.168   3.915   1.157 -0.2926 -0.6731  1.5440
 8979TIP3   OH226877   6.225   4.531   4.412 -0.8862 -0.1942  0.1886
 8979TIP3    H126878   6.279   4.551   4.489 -0.0769 -0.3905 -0.3235
 8979TIP3    H226879   6.135   4.549   4.441 -0.5377  0.3079  0.9936
 8980TIP3   OH226880   8.321   3.678   5.624 -0.3545  0.0752 -0.4372
 8980TIP3    H126881   8.282   3.600   5.584 -1.7250  0.7159 -0.4064
 8980TIP3    H226882   8.281   3.751   5.577 -0.2587  0.7944  0.5660
 8981TIP3   OH226883   8.350   2.521   1.670  0.3028  0.9500  0.3683
 8981TIP3    H126884   8.410   2.457   1.709 -1.0136 -1.0481 -0.6676
 8981TIP3    H226885   8.398   2.603   1.672  2.5062 -0.2564  0.8727
 8982TIP3   OH226886   5.715   6.962   5.744 -0.4462  0.8153  0.1443
 8982TIP3    H126887   5.662   7.010   5.807 -0.3900  1.1767 -0.0766
 8982TIP3    H226888   5.803   7.000   5.752 -0.4720  0.9705 -0.2508
 8983TIP3   OH226889   6.009   4.939   3.032 -0.7100 -0.0414 -0.5288
 8983TIP3    H126890   6.045   4.900   3.112 -0.5232 -0.9156 -1.0302
 8983TIP3    H226891   6.046   4.888   2.961  0.5061  1.8186 -1.3052
 8984TIP3   OH226892   6.736   6.352   1.891 -0.4017 -0.4840 -0.2286
 8984TIP3    H126893   6.771   6.348   1.980 -0.1904  1.4371 -0.1754
 8984TIP3    H226894   6.711   6.262   1.871  0.9635 -1.2277  1.1905
 8985TIP3   OH226895   0.117   6.116   4.829 -0.1000 -0.6333 -0.4007
 8985TIP3    H126896   0.207   6.106   4.860 -0.5241 -1.5458  0.5692
 8985TIP3    H226897   0.127   6.127   4.734  0.9998 -1.5735 -0.4312
 8986TIP3   OH226898   1.553   4.249   6.173 -0.4462 -0.3468 -0.2712
 8986TIP3    H126899   1.609   4.300   6.114 -0.1639  0.2217  0.4754
 8986TIP3    H226900   1.615   4.199   6.227 -0.6413  0.3590  0.6252
 8987TIP3   OH226901   5.319   0.874   2.447  0.4069 -0.3105  0.2197
 8987TIP3    H126902   5.345   0.782   2.452  1.6410 -0.1007 -1.5137
 8987TIP3    H226903   5.397   0.922   2.476  0.0394  0.2204  0.3407
 8988TIP3   OH226904   1.936   1.898   2.114  0.2035 -0.6773 -0.3197
 8988TIP3    H126905   1.871   1.943   2.060  0.5311 -1.1272 -1.1009
 8988TIP3    H226906   2.020   1.933   2.086  0.5576 -2.4885 -1.6957
 8989TIP3   OH226907   3.311   1.579   6.426  0.4618  0.1943  0.1549
 8989TIP3    H126908   3.296   1.536   6.342  0.1366  2.5468 -1.0685
 8989TIP3    H226909   3.224   1.595   6.461  0.4778  1.8161 -0.4875
 8990TIP3   OH226910   4.847   3.703   5.349 -0.0510  0.0482 -0.0332
 8990TIP3    H126911   4.843   3.702   5.445 -2.0519 -1.0060 -0.0662
 8990TIP3    H226912   4.804   3.784   5.324  1.0069  0.6169 -0.0519
 8991TIP3   OH226913   1.155   3.574   5.374  0.5605 -0.3448  0.3793
 8991TIP3    H126914   1.154   3.479   5.386 -0.1600 -0.6567 -1.7159
 8991TIP3    H226915   1.243   3.600   5.400  0.3869 -1.3920  2.1591
 8992TIP3   OH226916   7.253   1.274   5.067 -0.3250  0.1310  0.6871
 8992TIP3    H126917   7.325   1.289   5.005  1.2643  1.0989  2.6251
 8992TIP3    H226918   7.180   1.324   5.032  0.2377 -0.0994 -0.8752
 8993TIP3   OH226919   7.261   3.622   2.654 -0.2472  0.1975  0.6751
 8993TIP3    H126920   7.329   3.609   2.720  1.7713  1.3315 -1.0648
 8993TIP3    H226921   7.297   3.581   2.575 -0.6612  2.5059 -0.7951
 8994TIP3   OH226922   6.837   2.478   2.908 -0.1905 -0.9827  0.1923
 8994TIP3    H126923   6.889   2.555   2.888 -0.5712 -0.8218 -0.2079
 8994TIP3    H226924   6.824   2.480   3.003  2.2094 -2.1026  0.6385
 8995TIP3   OH226925   0.507   7.638   0.603  0.2561  0.1299 -0.0694
 8995TIP3    H126926   0.545   7.635   0.516  0.8435  1.1404  0.1415
 8995TIP3    H226927   0.575   7.603   0.661  0.4053  0.7827  0.1546
 8996TIP3   OH226928   4.317   6.389   3.431 -0.4315 -0.3236 -0.2057
 8996TIP3    H126929   4.259   6.458   3.399  0.7278  0.5704 -0.4417
 8996TIP3    H226930   4.286   6.372   3.520 -0.0011  1.3944  0.3257
 8997TIP3   OH226931   7.133   2.676   5.942 -0.0228  0.4731  0.3434
 8997TIP3    H126932   7.147   2.723   6.024 -0.8278 -0.4451  1.0304
 8997TIP3    H226933   7.066   2.727   5.896  1.9504  2.2034 -0.7827
 8998TIP3   OH226934   7.784   4.276   0.672  0.0760  0.1659  0.1619
 8998TIP3    H126935   7.768   4.272   0.766  1.6256  1.3227  0.5192
 8998TIP3    H226936   7.858   4.218   0.657  1.5349  1.9248  0.1396
 8999TIP3   OH226937   1.270   3.955   6.485  0.0126  0.4356  0.3559
 8999TIP3    H126938   1.230   4.028   6.437 -1.1248 -0.3763  0.0582
 8999TIP3    H226939   1.364   3.963   6.464  0.0234  2.1956  0.8624
 9000TIP3   OH226940   3.722   4.208   2.709 -0.0475 -0.0627 -0.0536
 9000TIP3    H126941   3.806   4.162   2.703 -0.0156 -0.0165  0.0309
 9000TIP3    H226942   3.707   4.217   2.803  0.4718  1.0728 -0.0728
 9001TIP3   OH226943   5.953   6.076   4.697 -0.2596 -0.4213 -0.3130
 9001TIP3    H126944   5.958   5.983   4.721 -0.5896  0.1487  2.2493
 9001TIP3    H226945   6.027   6.116   4.743 -0.6383  0.7424 -0.6946
 9002TIP3   OH226946   1.187   7.603   0.775 -0.1836 -0.1741  0.6074
 9002TIP3    H126947   1.239   7.524   0.794  0.4167  0.2636  0.8267
 9002TIP3    H226948   1.157   7.591   0.685 -1.8514 -1.6140  1.3102
 9003TIP3   OH226949   2.936   1.308   2.947 -0.2962 -0.2429 -0.2143
 9003TIP3    H126950   2.864   1.251   2.975  0.4856 -1.2674 -0.2235
 9003TIP3    H226951   2.897   1.395   2.941 -1.3593 -0.6501  0.4829
 9004TIP3   OH226952   6.194   3.253   6.264  0.0819 -0.1770  0.1640
 9004TIP3    H126953   6.263   3.316   6.284 -0.5855  0.7876 -0.4674
 9004TIP3    H226954   6.227   3.204   6.189  0.5479 -0.4866  0.5703
 9005TIP3   OH226955   6.681   0.541   5.441 -0.3938 -0.0887  0.2043
 9005TIP3    H126956   6.729   0.520   5.362 -1.5088 -3.0050  0.1836
 9005TIP3    H226957   6.739   0.517   5.513 -0.1421  0.6920  0.2767
 9006TIP3   OH226958   3.362   6.724   2.879 -0.3990  0.6005  0.1061
 9006TIP3    H126959   3.411   6.642   2.883 -1.1483  0.1834  1.0621
 9006TIP3    H226960   3.390   6.773   2.956  1.4986  2.1374 -1.4433
 9007TIP3   OH226961   4.770   7.734   2.014 -0.3840  0.0920 -0.5747
 9007TIP3    H126962   4.679   7.747   1.989 -0.1670  0.3175 -1.2871
 9007TIP3    H226963   4.805   7.822   2.028 -0.6396 -0.0541  1.1013
 9008TIP3   OH226964   4.877   4.835   2.050  0.5420 -0.0756 -0.0789
 9008TIP3    H126965   4.874   4.908   1.989  0.8570  1.2110  1.3912
 9008TIP3    H226966   4.787   4.804   2.056  0.4383  0.0656 -0.8356
 9009TIP3   OH226967   6.993   0.804   1.224 -0.4090 -0.2953 -0.5434
 9009TIP3    H126968   6.920   0.866   1.224 -0.6232 -0.5010  0.9746
 9009TIP3    H226969   6.966   0.736   1.286  0.0441 -1.6525 -1.7905
 9010TIP3   OH226970   4.225   0.344   5.230  0.1598 -0.0305  0.5766
 9010TIP3    H126971   4.221   0.336   5.325  0.0392  1.5828  0.7267
 9010TIP3    H226972   4.182   0.427   5.210 -0.2629 -0.5758 -0.9387
 9011TIP3   OH226973   7.935   1.140   2.764 -0.0253 -0.1774  0.2850
 9011TIP3    H126974   7.996   1.109   2.697 -0.6330 -0.6012 -0.0878
 9011TIP3    H226975   7.860   1.173   2.715  0.7530  2.3326  0.6440
 9012TIP3   OH226976   7.791   6.997   6.384  0.0636 -0.3584  0.5146
 9012TIP3    H126977   7.868   6.991   6.328  0.0803 -1.2340  0.6215
 9012TIP3    H226978   7.798   7.084   6.425  0.2113  0.1654 -0.5770
 9013TIP3   OH226979   1.621   6.516   1.735 -0.1945  0.2138  0.0353
 9013TIP3    H126980   1.681   6.485   1.804  1.6686 -0.5476 -1.8192
 9013TIP3    H226981   1.597   6.605   1.762  1.9341  0.6112  0.8027
 9014TIP3   OH226982   0.989   3.347   4.953 -0.5651 -0.2972 -0.1102
 9014TIP3    H126983   1.078   3.351   4.917 -0.6863 -1.5988 -0.5768
 9014TIP3    H226984   1.001   3.347   5.048 -0.0731 -0.3273 -0.1716
 9015TIP3   OH226985   4.869   3.427   3.903 -0.1991  0.6751  0.1291
 9015TIP3    H126986   4.813   3.489   3.949  0.5760  1.5758 -0.1040
 9015TIP3    H226987   4.956   3.466   3.907  0.3400 -0.4947  0.1263
 9016TIP3   OH226988   2.331   6.448   1.777 -0.1059  0.2894 -0.0282
 9016TIP3    H126989   2.308   6.484   1.862 -0.8159  0.2929 -0.2141
 9016TIP3    H226990   2.408   6.497   1.750  1.5380 -1.2138  1.6077
 9017TIP3   OH226991   6.777   4.085   1.606 -0.1608  0.1172  0.2127
 9017TIP3    H126992   6.702   4.127   1.565 -1.0112  0.2482  1.8521
 9017TIP3    H226993   6.853   4.132   1.571 -0.7900 -0.0526 -1.4962
 9018TIP3   OH226994   5.059   2.793   1.146 -0.1153 -0.3012 -0.0917
 9018TIP3    H126995   5.052   2.885   1.122  4.6809  0.2484 -0.4095
 9018TIP3    H226996   5.023   2.789   1.235 -2.2284  1.3287 -0.7758
 9019TIP3   OH226997   0.255   6.247   3.637  0.4443  0.1246  0.3628
 9019TIP3    H126998   0.227   6.156   3.647  2.6052 -0.8829 -1.7723
 9019TIP3    H226999   0.270   6.277   3.727  1.3845 -2.2266  1.0833
 9020TIP3   OH227000   3.796   0.194   2.829  0.0530  0.6602  0.0533
 9020TIP3    H127001   3.856   0.239   2.770 -0.0113 -0.4093 -0.8797
 9020TIP3    H227002   3.827   0.215   2.917  0.2336  2.1859 -0.3570
 9021TIP3   OH227003   2.956   3.867   2.369 -0.1578 -0.1301 -0.0336
 9021TIP3    H127004   3.004   3.789   2.343 -2.0421 -1.0394 -0.9250
 9021TIP3    H227005   2.903   3.840   2.443 -0.5149  0.4227 -0.0787
 9022TIP3   OH227006   3.186   7.772   6.815 -0.0331 -0.9167  0.3818
 9022TIP3    H127007   3.172   7.845   6.756 -1.0805 -2.4001 -1.3207
 9022TIP3    H227008   3.218   7.701   6.759 -0.9356 -2.3443  1.5738
 9023TIP3   OH227009   3.016   1.607   5.551  0.4562  0.1528 -0.1336
 9023TIP3    H127010   3.050   1.518   5.545  1.0061  0.3357  0.2498
 9023TIP3    H227011   3.040   1.637   5.638 -0.2569  0.4643 -0.0347
 9024TIP3   OH227012   6.735   6.223   6.699 -0.3919 -0.1958 -0.4639
 9024TIP3    H127013   6.655   6.195   6.745 -0.5983  0.8649 -0.1460
 9024TIP3    H227014   6.724   6.190   6.610 -2.1095  1.5208 -0.9726
 9025TIP3   OH227015   5.049   0.329   0.752  0.5604 -0.0683  0.4884
 9025TIP3    H127016   5.086   0.336   0.664 -1.7637 -1.6602 -0.7335
 9025TIP3    H227017   5.103   0.263   0.795  1.5802  0.5542  0.2026
 9026TIP3   OH227018   1.788   7.877   4.579  0.2468  0.1130 -0.1532
 9026TIP3    H127019   1.738   7.938   4.633  0.7893  1.3703 -1.0240
 9026TIP3    H227020   1.734   7.798   4.576  0.4265 -0.2161  2.5960
 9027TIP3   OH227021   5.776   2.010   2.269 -0.3129  0.0419  0.0670
 9027TIP3    H127022   5.865   2.042   2.261 -0.1460 -0.3392  0.3392
 9027TIP3    H227023   5.741   2.054   2.347 -0.6758  0.8943 -0.5690
 9028TIP3   OH227024   6.640   2.132   0.670 -0.5606 -0.1557  0.2034
 9028TIP3    H127025   6.621   2.180   0.751 -0.5582  1.0073 -0.4645
 9028TIP3    H227026   6.734   2.145   0.656 -0.4582 -0.7919  0.2855
 9029TIP3   OH227027   0.630   1.799   5.014  0.2878 -0.0860  0.0583
 9029TIP3    H127028   0.706   1.742   5.003 -0.1913 -0.6542 -0.3787
 9029TIP3    H227029   0.665   1.880   5.052  0.9245 -0.8115  1.0490
 9030TIP3   OH227030   4.967   5.768   6.682 -0.0701  0.1267  0.6047
 9030TIP3    H127031   5.049   5.808   6.710 -0.8595  1.7174  0.7274
 9030TIP3    H227032   4.955   5.797   6.592  0.3462 -1.5354 -0.0180
 9031TIP3   OH227033   5.527   7.147   0.506  0.0770  0.5081 -0.1668
 9031TIP3    H127034   5.510   7.148   0.600 -0.2450  1.7519 -0.2206
 9031TIP3    H227035   5.525   7.239   0.480 -1.3244  0.1121 -1.6489
 9032TIP3   OH227036   6.123   0.167   2.486  0.1139 -0.2560  0.5623
 9032TIP3    H127037   6.064   0.092   2.490 -0.0849 -0.1012  0.5032
 9032TIP3    H227038   6.125   0.200   2.576  2.0332 -1.7467  1.1577
 9033TIP3   OH227039   6.770   3.272   3.429 -0.5672  0.2641 -0.2732
 9033TIP3    H127040   6.796   3.307   3.344  0.9863  0.5245  0.2783
 9033TIP3    H227041   6.675   3.262   3.423 -0.6808  1.7073 -1.5058
 9034TIP3   OH227042   3.141   1.460   1.500  0.1919 -0.9074 -0.2756
 9034TIP3    H127043   3.086   1.383   1.511  0.0134 -0.9967 -1.6605
 9034TIP3    H227044   3.224   1.427   1.465 -0.1023 -0.4410 -1.4847
 9035TIP3   OH227045   6.536   1.582   2.033  0.2193 -0.5655 -0.1058
 9035TIP3    H127046   6.620   1.539   2.018 -0.2983 -2.3234  1.6649
 9035TIP3    H227047   6.475   1.511   2.050 -1.0976  0.7697  1.0440
 9036TIP3   OH227048   6.819   0.047   2.337  0.6130  0.7454  0.3225
 9036TIP3    H127049   6.903   0.064   2.380  0.9207 -1.2751  0.6313
 9036TIP3    H227050   6.828  -0.041   2.300 -0.8977  1.0323 -0.8409
 9037TIP3   OH227051   0.958   1.085   2.646  0.1215  0.0580  0.3866
 9037TIP3    H127052   0.921   1.061   2.561 -0.9601 -0.4940  0.9910
 9037TIP3    H227053   1.037   1.031   2.654  0.5663  0.5511 -0.5082
 9038TIP3   OH227054   2.314   1.535   3.143 -0.4118 -0.2716 -0.1713
 9038TIP3    H127055   2.390   1.580   3.105  0.0326 -0.4208  0.5207
 9038TIP3    H227056   2.262   1.605   3.183  0.0451 -0.3109  0.5049
 9039TIP3   OH227057   4.330   7.291   3.924 -0.0146 -0.1224  0.4869
 9039TIP3    H127058   4.269   7.297   3.850 -1.1606 -0.1423  1.4046
 9039TIP3    H227059   4.280   7.323   3.999  1.6070  1.3137  1.0170
 9040TIP3   OH227060   8.322   2.578   0.296  0.2277  0.4107 -1.1628
 9040TIP3    H127061   8.403   2.531   0.277 -0.3250 -0.9337 -0.3723
 9040TIP3    H227062   8.277   2.523   0.360 -0.8404  1.6403 -0.8079
 9041TIP3   OH227063   3.934   4.571   2.475 -0.2483  0.3051  0.3979
 9041TIP3    H127064   3.941   4.667   2.479  1.7782  0.2911 -0.9995
 9041TIP3    H227065   3.982   4.540   2.551 -0.6316  0.3839  0.6755
 9042TIP3   OH227066   1.496   1.592   3.165  0.2492 -0.1941  0.1485
 9042TIP3    H127067   1.554   1.556   3.232  0.9293  0.5930  0.0030
 9042TIP3    H227068   1.442   1.656   3.211  0.4710  0.0884  0.0230
 9043TIP3   OH227069   6.711   4.125   6.749 -0.3047  0.2464  0.9439
 9043TIP3    H127070   6.625   4.097   6.780  0.0688 -0.2626  1.5468
 9043TIP3    H227071   6.700   4.136   6.655 -1.2128  0.8821  1.1053
 9044TIP3   OH227072   6.254   6.764   4.798 -0.5288  0.3182  0.3809
 9044TIP3    H127073   6.233   6.791   4.887  1.6371 -0.5679  1.2269
 9044TIP3    H227074   6.311   6.833   4.764  2.7094 -1.5041  1.5591
 9045TIP3   OH227075   7.428   5.271   3.462 -0.3391  0.2440  0.2069
 9045TIP3    H127076   7.351   5.273   3.405 -0.6148 -0.7534  0.5151
 9045TIP3    H227077   7.469   5.187   3.442 -1.2654 -0.8437  2.5111
 9046TIP3   OH227078   1.210   0.410   0.543 -0.3069 -0.2334  0.0518
 9046TIP3    H127079   1.299   0.422   0.577 -0.5064  0.7392  0.2678
 9046TIP3    H227080   1.200   0.315   0.534  0.4611 -0.4001  0.8123
 9047TIP3   OH227081   3.683   3.239   4.356  0.7029  0.1825  1.0409
 9047TIP3    H127082   3.670   3.261   4.264 -2.4912 -1.1884  1.0398
 9047TIP3    H227083   3.674   3.323   4.402 -1.0098  0.4441  0.2993
 9048TIP3   OH227084   4.735   7.319   4.841  0.2752 -0.0183  0.0771
 9048TIP3    H127085   4.671   7.315   4.770  1.0369 -0.1078 -0.6219
 9048TIP3    H227086   4.791   7.393   4.819  1.7636 -1.2784 -0.5164
 9049TIP3   OH227087   6.721   7.872   0.922  0.1427 -0.6321 -0.0010
 9049TIP3    H127088   6.757   7.925   0.993 -3.0127  0.1110  1.2290
 9049TIP3    H227089   6.773   7.792   0.923  0.3196 -0.6057  3.1501
 9050TIP3   OH227090   2.939   4.995   3.929  0.1218  0.0160  0.0286
 9050TIP3    H127091   2.877   4.935   3.970 -0.6346 -0.5120 -1.7925
 9050TIP3    H227092   2.885   5.064   3.892  0.4881 -0.7797 -2.1302
 9051TIP3   OH227093   4.850   3.083   0.335 -0.2195 -0.7151  0.2542
 9051TIP3    H127094   4.882   2.993   0.343  1.2190 -0.2578 -0.1183
 9051TIP3    H227095   4.824   3.090   0.243  2.2764  0.0325 -0.4618
 9052TIP3   OH227096   6.082   1.445   0.408 -0.2876 -0.2281 -0.3454
 9052TIP3    H127097   6.125   1.469   0.490 -0.8611 -0.2680 -0.0250
 9052TIP3    H227098   6.108   1.355   0.392 -0.3856 -0.3032 -0.0721
 9053TIP3   OH227099   3.648   5.676   6.717  0.1000 -0.4082  0.4568
 9053TIP3    H127100   3.590   5.600   6.712 -0.2451 -0.0727 -1.1287
 9053TIP3    H227101   3.727   5.643   6.761 -0.0781 -1.6627 -0.1337
 9054TIP3   OH227102   2.786   1.770   2.246 -0.4065 -0.3259 -0.3116
 9054TIP3    H127103   2.861   1.768   2.305 -0.8515 -1.3097  0.2433
 9054TIP3    H227104   2.794   1.853   2.200  0.8402 -0.2747 -0.0305
 9055TIP3   OH227105   7.390   7.530   6.683  0.1107 -0.0230 -0.2051
 9055TIP3    H127106   7.354   7.443   6.698 -0.3496  0.4082  1.3180
 9055TIP3    H227107   7.427   7.525   6.594  0.1288 -1.7662 -0.1423
 9056TIP3   OH227108   7.336   3.237   3.216  0.5172  0.4928 -0.0644
 9056TIP3    H127109   7.247   3.202   3.221  0.0875  1.4511 -0.7950
 9056TIP3    H227110   7.364   3.242   3.307 -0.2657  0.4002  0.1920
 9057TIP3   OH227111   3.748   6.717   1.835 -0.8565  0.7740 -0.2681
 9057TIP3    H127112   3.687   6.726   1.763 -1.9295 -0.1226  0.4997
 9057TIP3    H227113   3.727   6.632   1.875  1.6758 -0.1421 -0.7032
 9058TIP3   OH227114   4.783   4.195   1.151  0.1272 -0.0950 -0.0571
 9058TIP3    H127115   4.694   4.232   1.157  0.4727  0.7359  0.0815
 9058TIP3    H227116   4.770   4.101   1.157 -0.7407  0.0226  0.0823
 9059TIP3   OH227117   2.869   3.966   0.175 -0.6192  0.0308  0.3482
 9059TIP3    H127118   2.885   3.872   0.184 -1.5818 -0.1769 -0.0361
 9059TIP3    H227119   2.774   3.974   0.169 -0.5092  0.9608 -0.4162
 9060TIP3   OH227120   7.663   6.845   4.743 -0.2554 -0.2542  0.5043
 9060TIP3    H127121   7.740   6.794   4.768 -1.0028 -1.1025  1.1658
 9060TIP3    H227122   7.592   6.808   4.796 -1.1147  0.5104 -0.0831
 9061TIP3   OH227123   7.375   5.942   4.066  0.5765 -0.1512  0.2314
 9061TIP3    H127124   7.354   5.901   3.982 -0.1553  0.2843  0.1955
 9061TIP3    H227125   7.469   5.957   4.062  0.6211 -0.5401 -0.3265
 9062TIP3   OH227126   0.135   3.088   4.832  0.3159 -0.3256  0.5123
 9062TIP3    H127127   0.216   3.056   4.872  0.7174 -0.1475 -0.1496
 9062TIP3    H227128   0.101   3.012   4.784  0.8460 -0.0091 -0.3892
 9063TIP3   OH227129   6.782   6.184   1.450  0.1990  0.4834 -0.1351
 9063TIP3    H127130   6.710   6.244   1.431  0.0579 -0.2012 -1.9763
 9063TIP3    H227131   6.802   6.144   1.366 -0.2898 -2.6823  1.1082
 9064TIP3   OH227132   7.647   6.066   3.515  0.0178  0.1269  0.4313
 9064TIP3    H127133   7.692   6.113   3.586  0.7290  1.6716 -0.9748
 9064TIP3    H227134   7.682   5.977   3.519  2.1889  0.9147  0.2878
 9065TIP3   OH227135   6.768   5.099   0.952 -0.8419  0.0369 -0.2243
 9065TIP3    H127136   6.770   5.155   1.030 -0.0444 -0.5657  0.2006
 9065TIP3    H227137   6.837   5.134   0.896  1.8367 -2.3212  1.3624
 9066TIP3   OH227138   0.013   7.888   0.238  0.0418  0.5018 -0.1513
 9066TIP3    H127139   0.060   7.971   0.245 -1.0941  1.1674 -0.1876
 9066TIP3    H227140  -0.044   7.887   0.315 -0.1170 -0.1387 -0.2757
 9067TIP3   OH227141   5.610   5.617   1.773  0.0062  0.0783 -0.7655
 9067TIP3    H127142   5.561   5.680   1.826 -1.7815 -2.3886  0.7527
 9067TIP3    H227143   5.621   5.661   1.688 -1.7345  2.1450 -0.0198
 9068TIP3   OH227144   3.792   6.998   4.469 -0.7856  0.0236  0.2633
 9068TIP3    H127145   3.759   6.995   4.559  1.5429 -0.5443  1.1765
 9068TIP3    H227146   3.846   7.077   4.466  0.0261 -0.5445 -0.3192
 9069TIP3   OH227147   8.242   7.452   0.087 -0.1670  0.0532  0.7339
 9069TIP3    H127148   8.208   7.454  -0.002 -1.2279 -0.5215  1.1098
 9069TIP3    H227149   8.316   7.392   0.084  0.4642  0.8360  0.0381
 9070TIP3   OH227150   0.319   1.927   0.838  0.2063  0.0586 -0.3089
 9070TIP3    H127151   0.251   1.994   0.830  0.8551  0.7173 -0.3569
 9070TIP3    H227152   0.401   1.972   0.819  0.6643 -0.7369 -0.2954
 9071TIP3   OH227153   3.554   7.882   3.670 -0.2065 -0.0054 -0.4879
 9071TIP3    H127154   3.548   7.787   3.672 -1.5915  0.0662  1.2630
 9071TIP3    H227155   3.546   7.909   3.762  0.4342  1.7994 -0.9086
 9072TIP3   OH227156   5.003   0.691   2.028  0.4229 -0.4660  0.3101
 9072TIP3    H127157   5.043   0.621   2.078 -2.5955 -1.5279  1.4721
 9072TIP3    H227158   4.955   0.743   2.093  0.5749  1.2176 -0.8520
 9073TIP3   OH227159   0.940   0.385   0.581  0.3821 -0.1168  0.1243
 9073TIP3    H127160   0.918   0.374   0.489  1.2125 -2.4813  0.1263
 9073TIP3    H227161   1.031   0.415   0.580  0.9032 -1.6237  0.1403
 9074TIP3   OH227162   4.691   2.660   4.339  0.0805 -0.1737  0.0328
 9074TIP3    H127163   4.690   2.565   4.346  0.3817 -0.1093  1.0171
 9074TIP3    H227164   4.666   2.677   4.248  1.4079 -1.2325 -0.5663
 9075TIP3   OH227165   4.561   6.572   1.246  0.4907 -0.0840  0.0342
 9075TIP3    H127166   4.476   6.613   1.228 -0.6672 -2.1670  0.4428
 9075TIP3    H227167   4.603   6.632   1.308 -0.0818  1.6515 -1.1692
 9076TIP3   OH227168   7.015   0.925   6.200 -0.6072  1.2091  0.2191
 9076TIP3    H127169   7.054   0.907   6.115 -1.4896  2.4253 -0.4730
 9076TIP3    H227170   6.920   0.927   6.184 -0.7374  2.8075  0.9185
 9077TIP3   OH227171   1.094   1.689   6.169  1.0575  0.5970  0.2200
 9077TIP3    H127172   1.037   1.715   6.241 -1.6881 -0.1165 -1.5403
 9077TIP3    H227173   1.168   1.645   6.212 -0.5790 -0.0614  2.5923
 9078TIP3   OH227174   7.045   4.303   5.950  0.2436  0.6232  0.0539
 9078TIP3    H127175   7.022   4.333   5.862  1.1299 -1.6622 -1.0495
 9078TIP3    H227176   7.117   4.361   5.977  0.5953  0.7797 -1.1417
 9079TIP3   OH227177   4.011   3.704   2.489  0.0458  0.0012  0.0078
 9079TIP3    H127178   3.930   3.755   2.496 -1.0817 -1.6581 -0.6030
 9079TIP3    H227179   4.003   3.636   2.555  1.8672  0.9639  1.3169
 9080TIP3   OH227180   3.168   3.867   0.316  0.0734  0.4120  0.2508
 9080TIP3    H127181   3.148   3.947   0.365  1.1296  0.2204  1.0352
 9080TIP3    H227182   3.261   3.851   0.334 -0.0433 -0.8047 -0.1604
 9081TIP3   OH227183   0.382   4.596   2.224 -0.2552 -0.1227  0.7899
 9081TIP3    H127184   0.305   4.605   2.280  0.0342  0.4854  1.0973
 9081TIP3    H227185   0.422   4.683   2.223 -0.7494  0.1261 -1.0882
 9082TIP3   OH227186   0.667   2.627   6.537  0.5466  0.5337  0.0041
 9082TIP3    H127187   0.658   2.720   6.514 -0.2725  0.1861 -1.1563
 9082TIP3    H227188   0.761   2.610   6.529  0.4743  0.7902 -1.7629
 9083TIP3   OH227189   2.501   4.557   3.471 -0.4615  0.7113 -0.3789
 9083TIP3    H127190   2.521   4.535   3.562 -0.7031  0.0674 -0.4798
 9083TIP3    H227191   2.575   4.611   3.444  0.8102 -0.9980 -0.4954
 9084TIP3   OH227192   5.662   7.426   0.611  0.0151 -0.5958 -0.2155
 9084TIP3    H127193   5.705   7.385   0.536 -1.3410 -0.5931 -1.0315
 9084TIP3    H227194   5.573   7.445   0.580  0.4223  2.6670  0.1891
 9085TIP3   OH227195   0.394   6.134   4.870 -0.4104  0.5531 -0.7154
 9085TIP3    H127196   0.446   6.055   4.857 -0.3892  0.6588 -1.3067
 9085TIP3    H227197   0.439   6.181   4.941 -1.2592 -0.6604  0.6614
 9086TIP3   OH227198   2.758   0.820   6.224 -0.3947 -0.0488 -0.3083
 9086TIP3    H127199   2.801   0.746   6.180 -0.9619 -0.4769 -0.1625
 9086TIP3    H227200   2.802   0.897   6.190 -0.1585 -0.4267 -0.8829
 9087TIP3   OH227201   0.624   6.363   5.832  0.0293  0.0299  0.0954
 9087TIP3    H127202   0.629   6.335   5.740  1.7301  0.5588 -0.0082
 9087TIP3    H227203   0.608   6.458   5.826  1.4979  0.3060  0.2986
 9088TIP3   OH227204   7.075   6.463   2.056 -0.3098  0.0612  0.2889
 9088TIP3    H127205   7.011   6.521   2.096  0.8727 -0.5538  3.3339
 9088TIP3    H227206   7.077   6.489   1.964 -2.0417  2.7133  0.8929
 9089TIP3   OH227207   5.691   5.930   6.784  0.0272  0.4024 -0.4328
 9089TIP3    H127208   5.628   5.914   6.855 -1.4074  1.4075 -1.4372
 9089TIP3    H227209   5.726   5.843   6.765 -2.0595 -0.4507 -0.7319
 9090TIP3   OH227210   5.832   3.452   4.571  0.5468  0.1273  0.0530
 9090TIP3    H127211   5.762   3.507   4.606  0.5629  0.1005  0.1254
 9090TIP3    H227212   5.876   3.416   4.648 -0.7811 -1.6967  0.0106
 9091TIP3   OH227213   1.586   5.772   2.967 -0.1403 -0.5330 -1.0454
 9091TIP3    H127214   1.643   5.722   2.908 -0.8510 -0.6390 -1.6626
 9091TIP3    H227215   1.538   5.705   3.015  0.6289 -0.4505 -0.1285
 9092TIP3   OH227216   1.645  -0.007   2.844 -0.4049  0.0877 -0.0914
 9092TIP3    H127217   1.691   0.063   2.890  0.4568  0.3327 -1.2774
 9092TIP3    H227218   1.582   0.038   2.788  0.2073 -0.0504 -0.9176
 9093TIP3   OH227219   4.350   3.321   0.196 -0.1041  0.1782 -0.4006
 9093TIP3    H127220   4.377   3.291   0.283 -0.9634  0.5887  0.0254
 9093TIP3    H227221   4.277   3.264   0.173  1.2608 -1.1141 -1.6656
 9094TIP3   OH227222   6.453   6.856   3.084 -0.0328 -0.1799  0.0783
 9094TIP3    H127223   6.442   6.944   3.046  1.3030 -0.9406 -2.2814
 9094TIP3    H227224   6.444   6.870   3.178 -0.4260  2.3917 -0.2476
 9095TIP3   OH227225   4.498   1.428   3.296  0.4404  0.3511  0.4644
 9095TIP3    H127226   4.470   1.368   3.226  1.3677  0.6492 -0.1837
 9095TIP3    H227227   4.419   1.478   3.317  0.3740  0.9850 -1.1207
 9096TIP3   OH227228   5.389   3.439   1.154  0.0086 -0.0478 -0.2828
 9096TIP3    H127229   5.350   3.500   1.092 -1.0500 -0.6412 -0.2171
 9096TIP3    H227230   5.318   3.415   1.213  1.2940  1.6267  2.1102
 9097TIP3   OH227231   6.031   4.798   4.485  0.1412  0.0353 -0.2953
 9097TIP3    H127232   6.083   4.793   4.565 -0.4278  0.7452  0.1214
 9097TIP3    H227233   6.055   4.881   4.445 -1.9849  1.2761  0.8392
 9098TIP3   OH227234   6.636   4.374   2.652  0.2102 -0.1728  0.2788
 9098TIP3    H127235   6.679   4.373   2.567  2.7571  0.5237  1.4424
 9098TIP3    H227236   6.700   4.334   2.711  0.0036  2.3597  2.4223
 9099TIP3   OH227237   3.527   6.559   3.229 -0.3193 -0.1450  0.2908
 9099TIP3    H127238   3.469   6.567   3.305  0.2800 -2.1879  1.0492
 9099TIP3    H227239   3.473   6.517   3.162  0.0414 -1.4381  0.7737
 9100TIP3   OH227240   6.243   6.853   4.006  0.0615 -0.1578 -0.2559
 9100TIP3    H127241   6.277   6.942   4.010  1.0806 -0.4722 -1.5613
 9100TIP3    H227242   6.253   6.827   3.915  0.4234 -1.8660  0.2344
 9101TIP3   OH227243   1.495   5.372   4.278 -0.1512 -0.7896  0.1491
 9101TIP3    H127244   1.489   5.459   4.238 -0.1061 -0.3058  1.1754
 9101TIP3    H227245   1.589   5.353   4.280 -0.0001  0.0304  1.7760
 9102TIP3   OH227246   0.945   4.040   0.266 -0.0870  0.1646  0.0180
 9102TIP3    H127247   0.889   4.002   0.334 -0.1644 -1.7155 -1.0349
 9102TIP3    H227248   0.888   4.099   0.218 -0.5512  0.0274  0.3933
 9103TIP3   OH227249   6.219   3.763   1.416 -0.0528  0.0643 -0.5076
 9103TIP3    H127250   6.227   3.800   1.328  0.7826 -0.2296 -0.5579
 9103TIP3    H227251   6.129   3.784   1.442 -0.1100  0.7007 -1.1805
 9104TIP3   OH227252   1.592   0.153   3.236 -0.0545  0.4081  0.1270
 9104TIP3    H127253   1.646   0.132   3.312 -0.5310 -0.1677  0.3135
 9104TIP3    H227254   1.634   0.106   3.164 -0.9829 -1.0765  0.5014
 9105TIP3   OH227255   2.447   3.672   5.659 -0.5542 -0.1598  0.7896
 9105TIP3    H127256   2.397   3.742   5.700 -1.0044  0.2198 -0.3779
 9105TIP3    H227257   2.383   3.625   5.605  0.4972  0.9938 -1.6074
 9106TIP3   OH227258   0.996   6.142   4.269  0.4564 -0.0722  0.4365
 9106TIP3    H127259   0.902   6.139   4.288  0.3548  0.0119 -0.0391
 9106TIP3    H227260   1.020   6.050   4.253 -0.1404  0.1338 -2.1868
 9107TIP3   OH227261   1.366   4.022   3.269  0.3705 -0.4754  0.5937
 9107TIP3    H127262   1.441   4.073   3.301  0.4433 -0.2328  0.0454
 9107TIP3    H227263   1.340   4.066   3.188 -0.0756 -0.8347  0.5401
 9108TIP3   OH227264   2.096   0.538   6.314  0.2791  0.0559 -0.0480
 9108TIP3    H127265   2.013   0.503   6.349  0.6136  0.8261  1.6258
 9108TIP3    H227266   2.151   0.549   6.391  1.1045  1.8017 -0.8353
 9109TIP3   OH227267   0.561   1.729   0.460 -0.5925 -0.0614 -0.0283
 9109TIP3    H127268   0.499   1.690   0.522  0.8264  1.2361  2.3560
 9109TIP3    H227269   0.506   1.785   0.405 -1.7974 -0.4508  0.7218
 9110TIP3   OH227270   0.393   0.468   3.364 -0.4466 -0.1537 -0.0722
 9110TIP3    H127271   0.387   0.517   3.282  4.1451 -1.6535 -1.6002
 9110TIP3    H227272   0.433   0.529   3.426 -1.6320  0.2193  0.3479
 9111TIP3   OH227273   1.304   1.995   0.032  0.5444 -0.6097  0.0439
 9111TIP3    H127274   1.363   2.032   0.098 -0.6014 -2.6078  2.3349
 9111TIP3    H227275   1.348   1.915   0.004  1.4944  0.6869 -2.5052
 9112TIP3   OH227276   0.965   7.050   5.156  0.6585  0.0654 -0.0281
 9112TIP3    H127277   1.046   7.001   5.149  1.1157  0.2365  2.7235
 9112TIP3    H227278   0.992   7.142   5.155  0.5510  0.1230  1.0017
 9113TIP3   OH227279   4.934   1.136   2.363 -0.1235  0.3897 -0.4424
 9113TIP3    H127280   4.976   1.221   2.368 -0.6315  0.6425 -0.4051
 9113TIP3    H227281   5.000   1.074   2.394  0.7415  0.5945 -1.8356
 9114TIP3   OH227282   7.388   3.473   5.728  0.3826 -0.2839  0.3680
 9114TIP3    H127283   7.443   3.485   5.651 -1.3369 -0.2217 -0.9171
 9114TIP3    H227284   7.421   3.393   5.769  0.1763 -1.3888 -1.5033
 9115TIP3   OH227285   3.246   5.446   6.483 -0.1161 -0.2184 -0.0396
 9115TIP3    H127286   3.264   5.364   6.438 -0.7717 -0.4614  0.1314
 9115TIP3    H227287   3.323   5.462   6.537 -0.2384 -1.0311  0.3838
 9116TIP3   OH227288   5.282   3.817   0.896 -0.2426 -0.0636  0.3704
 9116TIP3    H127289   5.259   3.736   0.941 -0.8725 -0.0915  0.0071
 9116TIP3    H227290   5.360   3.795   0.845 -0.3036 -0.3941  0.4197
 9117TIP3   OH227291   0.713   0.979   3.308  0.5636 -0.1640  0.1011
 9117TIP3    H127292   0.700   0.905   3.249  0.9969 -0.1007 -0.0796
 9117TIP3    H227293   0.711   0.941   3.396  1.1387 -0.4486 -0.0036
 9118TIP3   OH227294   4.406   0.253   1.383  0.0746 -0.7420 -0.3926
 9118TIP3    H127295   4.478   0.204   1.341  0.7139 -0.4344  0.3206
 9118TIP3    H227296   4.331   0.193   1.379  1.3921 -2.8647  2.6100
 9119TIP3   OH227297   1.472   5.507   3.504  0.0960 -0.0894 -0.1118
 9119TIP3    H127298   1.527   5.446   3.456  0.0737 -0.3972  0.2447
 9119TIP3    H227299   1.483   5.590   3.459  0.2035 -0.3330 -0.5450
 9120TIP3   OH227300   1.412   2.662   2.724 -0.3657 -0.4129  0.4117
 9120TIP3    H127301   1.375   2.714   2.795  1.4903 -0.1072  1.2095
 9120TIP3    H227302   1.483   2.613   2.764 -0.0491 -1.1640 -0.9987
 9121TIP3   OH227303   7.953   1.310   3.132  0.4459 -0.0091 -0.1422
 9121TIP3    H127304   7.989   1.397   3.149  0.7691 -0.3254  0.9163
 9121TIP3    H227305   7.931   1.276   3.219 -0.0858 -0.8130 -0.5762
 9122TIP3   OH227306   0.057   5.234   6.558 -0.3810  0.2170 -0.9060
 9122TIP3    H127307   0.058   5.297   6.486  1.1070  1.9401  0.5330
 9122TIP3    H227308   0.003   5.275   6.625  1.7061  0.7071  0.5875
 9123TIP3   OH227309   3.613   4.526   3.657  0.1397  0.1860 -0.3429
 9123TIP3    H127310   3.534   4.489   3.617  0.6104  0.4760 -1.5707
 9123TIP3    H227311   3.642   4.593   3.596  0.6382  0.9592  0.7114
 9124TIP3   OH227312   6.367   1.783   2.163 -0.4142 -0.1457  0.1072
 9124TIP3    H127313   6.432   1.836   2.117 -1.0147  1.6224  1.2303
 9124TIP3    H227314   6.372   1.697   2.120  1.8885  0.2418 -0.5320
 9125TIP3   OH227315   2.750   4.459   0.580 -0.2151  0.0048 -0.3649
 9125TIP3    H127316   2.733   4.522   0.651 -1.1751  0.3252 -0.8629
 9125TIP3    H227317   2.786   4.513   0.509 -1.8198  0.1792 -1.1002
 9126TIP3   OH227318   7.517   3.909   4.562  0.0742  0.4749  0.6596
 9126TIP3    H127319   7.455   3.980   4.576 -1.9698 -0.9177 -0.7820
 9126TIP3    H227320   7.575   3.913   4.638 -1.6695  1.9559  2.0059
 9127TIP3   OH227321   3.546   1.358   2.801  0.3010 -0.6104 -0.1942
 9127TIP3    H127322   3.451   1.361   2.793 -0.0369  3.4093  2.3412
 9127TIP3    H227323   3.578   1.411   2.728  0.6671 -1.9683 -1.0522
 9128TIP3   OH227324   0.547   6.971   0.032  0.4054  0.2033 -0.3474
 9128TIP3    H127325   0.536   6.882   0.067  1.6078  0.4622  0.7974
 9128TIP3    H227326   0.633   6.970  -0.010  0.8304  1.0447  0.4655
 9129TIP3   OH227327   1.883   2.542   0.817 -0.0114 -0.5193 -0.4353
 9129TIP3    H127328   1.873   2.628   0.857  2.8412  1.1246 -2.8054
 9129TIP3    H227329   1.899   2.482   0.890  0.6335  1.4688  1.1358
 9130TIP3   OH227330   1.157   2.572   2.624 -0.2090 -0.3196  0.9051
 9130TIP3    H127331   1.144   2.513   2.698 -0.5213  0.1351  1.2164
 9130TIP3    H227332   1.247   2.604   2.635 -1.0466  1.6783  2.5273
 9131TIP3   OH227333   2.643   5.041   3.661 -0.1311 -0.0837  0.1390
 9131TIP3    H127334   2.695   5.054   3.740  0.7205  0.3082 -0.4722
 9131TIP3    H227335   2.572   5.106   3.667  1.1132  1.3777 -0.3890
 9132TIP3   OH227336   1.318   6.257   5.229 -0.0842  0.2002  0.5330
 9132TIP3    H127337   1.247   6.196   5.210  1.1367 -1.0527 -0.1492
 9132TIP3    H227338   1.300   6.288   5.317 -1.2316 -0.4337  0.5371
 9133TIP3   OH227339   7.179   5.968   0.669  0.4162 -0.2775 -0.2905
 9133TIP3    H127340   7.272   5.946   0.663  0.9286  0.9353  2.0541
 9133TIP3    H227341   7.157   5.952   0.761 -1.3560  0.7517 -0.5014
 9134TIP3   OH227342   3.985   2.179   1.207 -0.9844  0.3520 -0.6698
 9134TIP3    H127343   4.048   2.249   1.188 -0.5736  0.0578 -0.4117
 9134TIP3    H227344   3.959   2.195   1.298 -2.1526  1.1384 -1.1086
 9135TIP3   OH227345   4.528   5.769   2.832  0.2964  0.0145  0.3633
 9135TIP3    H127346   4.437   5.740   2.826  0.3651 -0.1051 -0.1640
 9135TIP3    H227347   4.524   5.849   2.885 -0.2208  0.4606 -0.3246
 9136TIP3   OH227348   8.044   0.688   0.139  0.2563  0.6679  0.2892
 9136TIP3    H127349   7.992   0.630   0.083 -0.6806  2.2257 -0.5162
 9136TIP3    H227350   8.110   0.724   0.080  0.6021  0.7009  0.6984
 9137TIP3   OH227351   0.425   7.620   3.636  0.6205 -0.4548  0.3188
 9137TIP3    H127352   0.360   7.677   3.675 -0.4192 -2.3967  1.6009
 9137TIP3    H227353   0.472   7.675   3.573 -1.6932  1.2107 -0.0466
 9138TIP3   OH227354   7.371   7.692   5.763 -0.2638  0.3914 -0.5041
 9138TIP3    H127355   7.388   7.706   5.669 -1.2010 -2.0174 -1.0968
 9138TIP3    H227356   7.457   7.698   5.804  0.2343  0.9855 -1.5799
 9139TIP3   OH227357   3.307   2.767   5.922  0.1908  0.1063 -0.3224
 9139TIP3    H127358   3.304   2.720   6.006 -0.4618 -0.3953 -0.6151
 9139TIP3    H227359   3.226   2.819   5.921  1.3331  2.0182  0.4159
 9140TIP3   OH227360   0.544   4.512   5.377  0.0437 -0.1533 -0.1476
 9140TIP3    H127361   0.490   4.509   5.298  1.0617 -0.2323 -0.8558
 9140TIP3    H227362   0.622   4.461   5.355  1.2027  1.3700  0.2248
 9141TIP3   OH227363   8.038   5.074   4.250  0.4008 -0.2887  0.0324
 9141TIP3    H127364   8.092   5.152   4.266  0.3306 -0.2743  0.2108
 9141TIP3    H227365   8.076   5.033   4.173 -1.5206  1.7057 -2.1432
 9142TIP3   OH227366   2.669   4.724   6.866  0.0789 -0.0746  0.3241
 9142TIP3    H127367   2.745   4.772   6.898 -0.5579  0.3747  1.2312
 9142TIP3    H227368   2.698   4.682   6.785  1.4941 -0.4764  1.0097
 9143TIP3   OH227369   5.005   6.386   1.612 -0.1024 -0.0048 -0.0825
 9143TIP3    H127370   4.940   6.354   1.550 -1.2843 -0.8594  1.5154
 9143TIP3    H227371   5.038   6.467   1.573 -2.0188  0.3781 -1.0229
 9144TIP3   OH227372   2.040   3.431   5.684  0.2376  0.0842 -0.1172
 9144TIP3    H127373   2.117   3.381   5.659  1.9504  2.9578 -1.0619
 9144TIP3    H227374   2.052   3.449   5.778  0.2615 -0.1911 -0.0677
 9145TIP3   OH227375   2.243   1.289   6.411  0.0840 -0.0745 -0.0627
 9145TIP3    H127376   2.224   1.241   6.492 -0.2392  0.7100  0.3289
 9145TIP3    H227377   2.207   1.233   6.342  0.3887 -0.7641  0.3258
 9146TIP3   OH227378   0.274   0.808   0.766  0.2025 -0.2419 -0.5485
 9146TIP3    H127379   0.226   0.889   0.784 -0.1978 -0.0645 -2.2068
 9146TIP3    H227380   0.213   0.755   0.714  1.1959 -0.7299 -1.2584
 9147TIP3   OH227381   0.686   3.664   2.596  0.4078 -0.2416 -0.3945
 9147TIP3    H127382   0.684   3.724   2.522 -1.1860  1.4697  0.9334
 9147TIP3    H227383   0.603   3.679   2.641  0.5578 -2.4943  0.7779
 9148TIP3   OH227384   1.096   5.335   3.815  0.4952  0.2651 -0.0940
 9148TIP3    H127385   1.022   5.327   3.755 -0.9883  3.4139  1.0797
 9148TIP3    H227386   1.088   5.259   3.874 -0.2230 -0.8219 -1.5312
 9149TIP3   OH227387   4.725   0.217   4.216  0.0790 -0.2845 -0.2148
 9149TIP3    H127388   4.789   0.288   4.225 -0.1310 -0.1862  0.6687
 9149TIP3    H227389   4.658   0.253   4.159 -0.5491  0.6462  1.0403
 9150TIP3   OH227390   6.303   7.348   4.921  0.2235 -0.5058 -0.0775
 9150TIP3    H127391   6.341   7.393   4.845  2.0634 -1.3540  0.2806
 9150TIP3    H227392   6.231   7.405   4.949 -0.1409  0.1257 -2.0811
 9151TIP3   OH227393   1.994   2.837   2.610 -1.3529 -0.7320 -0.3761
 9151TIP3    H127394   2.064   2.771   2.616  0.5194  1.0766 -1.2944
 9151TIP3    H227395   1.978   2.847   2.516 -0.0593  1.5673 -0.4323
 9152TIP3   OH227396   4.407   5.187   5.868 -0.7236 -0.0711  0.1758
 9152TIP3    H127397   4.464   5.111   5.861  0.2466  0.5908  0.6955
 9152TIP3    H227398   4.366   5.179   5.954 -0.8491 -0.1632  0.1073
 9153TIP3   OH227399   0.592   0.561   3.981 -0.1289  0.1453  0.3116
 9153TIP3    H127400   0.667   0.607   3.944 -0.4452 -0.6479 -1.4023
 9153TIP3    H227401   0.628   0.478   4.011 -0.4526 -0.6714 -1.4517
 9154TIP3   OH227402   2.389   5.318   1.589 -0.2062 -0.0585 -0.0592
 9154TIP3    H127403   2.335   5.322   1.509 -0.0196  0.6465 -0.1537
 9154TIP3    H227404   2.436   5.401   1.590  0.4288 -0.4204  0.3479
 9155TIP3   OH227405   3.299   0.542   6.634 -0.1037  0.5266  0.6354
 9155TIP3    H127406   3.336   0.628   6.613 -0.7802  0.8277  0.6708
 9155TIP3    H227407   3.223   0.561   6.688 -2.3346  0.1414 -2.1434
 9156TIP3   OH227408   5.837   3.206   2.946 -0.0614 -0.4726  0.1981
 9156TIP3    H127409   5.748   3.241   2.941  0.8853  1.9732 -1.1497
 9156TIP3    H227410   5.870   3.238   3.030 -0.4204 -1.4533  0.7390
 9157TIP3   OH227411   1.507   2.211   2.210  0.3352 -0.5090  0.2250
 9157TIP3    H127412   1.581   2.252   2.167 -1.8327  1.8794 -1.5342
 9157TIP3    H227413   1.448   2.283   2.230 -0.6775 -2.0526  3.4569
 9158TIP3   OH227414   7.381   1.750   3.618  0.0348  0.1310  0.4741
 9158TIP3    H127415   7.296   1.737   3.660  0.7883 -1.2571  1.6413
 9158TIP3    H227416   7.379   1.842   3.590 -1.2331  0.5858  1.8755
 9159TIP3   OH227417   1.976   4.278   4.862 -0.0429  0.3342  0.0591
 9159TIP3    H127418   2.005   4.210   4.801 -0.0898  0.5855 -0.2425
 9159TIP3    H227419   2.028   4.262   4.941 -0.5846 -0.5113  0.2557
 9160TIP3   OH227420   2.905   6.821   5.447  0.4629  0.3153 -0.3925
 9160TIP3    H127421   2.926   6.911   5.425  0.6508  0.4589  0.3465
 9160TIP3    H227422   2.938   6.770   5.373  1.2678  0.7587 -0.3502
 9161TIP3   OH227423   0.014   2.710   2.960  0.0065 -0.0992  0.2175
 9161TIP3    H127424  -0.022   2.707   2.871 -1.0714  0.9522  0.5887
 9161TIP3    H227425   0.099   2.753   2.950  1.1464 -2.3923 -0.6425
 9162TIP3   OH227426   2.485   1.221   0.363 -0.1621 -0.2351 -0.6155
 9162TIP3    H127427   2.534   1.269   0.430 -1.5014 -0.5880  0.6905
 9162TIP3    H227428   2.413   1.279   0.339 -1.4666 -1.2704  0.5633
 9163TIP3   OH227429   3.755   2.820   3.711  0.4051  0.5893 -0.3711
 9163TIP3    H127430   3.778   2.748   3.652  0.4264 -0.5165  0.9657
 9163TIP3    H227431   3.813   2.810   3.786 -1.9994 -0.2257  1.5251
 9164TIP3   OH227432   5.545   1.249   0.843  0.0680  0.2774 -0.7390
 9164TIP3    H127433   5.565   1.156   0.832  0.8989  0.3475  0.0190
 9164TIP3    H227434   5.511   1.255   0.932 -1.3316  0.4994 -1.2751
 9165TIP3   OH227435   0.534   4.379   5.806 -0.4392  0.4979 -0.0667
 9165TIP3    H127436   0.529   4.285   5.828  0.2673  0.3939 -0.3244
 9165TIP3    H227437   0.443   4.404   5.791 -0.4939 -0.6139 -1.8915
 9166TIP3   OH227438   2.703   1.608   5.026 -0.5586 -0.2790  0.2226
 9166TIP3    H127439   2.684   1.701   5.018 -1.1194 -0.4253 -0.1402
 9166TIP3    H227440   2.768   1.603   5.097 -0.9133  0.3368  0.5969
 9167TIP3   OH227441   2.115   0.511   4.042  0.3628  0.1271 -0.2536
 9167TIP3    H127442   2.035   0.506   4.094 -0.8706 -0.1990 -2.0958
 9167TIP3    H227443   2.165   0.582   4.082 -0.0665 -0.7314  1.9430
 9168TIP3   OH227444   4.977   1.786   5.865 -0.1073  0.2772 -0.2431
 9168TIP3    H127445   5.038   1.847   5.825 -0.8887  1.0169 -0.3436
 9168TIP3    H227446   4.946   1.732   5.792 -0.9191  1.0922 -0.5203
 9169TIP3   OH227447   4.489   1.011   5.915  0.1738 -0.5547 -0.7942
 9169TIP3    H127448   4.398   0.985   5.928 -0.1849  0.7166 -0.6446
 9169TIP3    H227449   4.487   1.107   5.919  1.3647 -0.4689 -1.7333
 9170TIP3   OH227450   8.132   5.249   4.738 -0.4856  0.3310 -0.3871
 9170TIP3    H127451   8.046   5.252   4.780 -0.8775  0.6208 -1.1870
 9170TIP3    H227452   8.129   5.319   4.672  1.0556  1.6611  0.8647
 9171TIP3   OH227453   4.931   3.341   4.317  0.3871  0.1376 -0.5859
 9171TIP3    H127454   4.939   3.391   4.398 -1.6486 -1.3025  0.5955
 9171TIP3    H227455   4.941   3.406   4.247 -1.4435  2.1172  0.8517
 9172TIP3   OH227456   3.069   1.404   4.893  0.5729 -0.0023  0.6053
 9172TIP3    H127457   3.066   1.373   4.803  1.6275 -1.0817  0.9292
 9172TIP3    H227458   3.076   1.500   4.885 -0.8359  0.0392 -0.4173
 9173TIP3   OH227459   0.529   1.505   1.834 -0.1369 -0.5666  0.2471
 9173TIP3    H127460   0.531   1.490   1.929 -1.3205  1.0972  0.5857
 9173TIP3    H227461   0.614   1.547   1.815  0.6972 -2.1602  0.2830
 9174TIP3   OH227462   5.824   5.280   4.155 -0.5972 -0.1313  0.1950
 9174TIP3    H127463   5.812   5.203   4.101 -1.1639 -0.4239  0.7303
 9174TIP3    H227464   5.877   5.339   4.101 -0.3715 -0.7865 -0.3116
 9175TIP3   OH227465   0.477   6.832   1.493 -0.4818  0.1157  0.3255
 9175TIP3    H127466   0.427   6.760   1.454 -0.3551 -0.0314  0.4366
 9175TIP3    H227467   0.497   6.890   1.419  0.0037 -0.3048  0.1195
 9176TIP3   OH227468   0.347   2.890   5.331 -0.4170 -0.5815  0.0510
 9176TIP3    H127469   0.426   2.917   5.284 -0.5656  0.4508  0.3820
 9176TIP3    H227470   0.377   2.826   5.395 -0.5840 -4.6159 -3.4586
 9177TIP3   OH227471   4.075   3.178   4.952  0.3026  0.4864 -0.0513
 9177TIP3    H127472   4.155   3.210   4.994  0.0529 -0.0509  0.8814
 9177TIP3    H227473   4.012   3.249   4.963  0.7486  1.0697 -1.1377
 9178TIP3   OH227474   6.142   4.443   5.016  0.4262  0.0354 -0.0681
 9178TIP3    H127475   6.142   4.515   5.079  0.2485  0.1632 -0.2173
 9178TIP3    H227476   6.184   4.371   5.064  1.9802  0.6597 -0.4097
 9179TIP3   OH227477   5.990   3.802   6.053 -0.8692  0.5009 -0.1710
 9179TIP3    H127478   6.025   3.886   6.081 -1.8754  0.1558  2.3866
 9179TIP3    H227479   6.067   3.749   6.032 -0.1778  1.6255 -0.5432
 9180TIP3   OH227480   3.194   1.477   4.489 -0.5985 -0.4813 -0.2528
 9180TIP3    H127481   3.140   1.495   4.413 -2.0631 -1.2163  0.5618
 9180TIP3    H227482   3.266   1.423   4.456 -1.0065 -0.4824 -1.1553
 9181TIP3   OH227483   7.420   5.026   3.849  0.1609  0.6328  0.1889
 9181TIP3    H127484   7.331   4.991   3.852  0.8364 -1.2140  3.3626
 9181TIP3    H227485   7.465   4.973   3.784 -0.4781 -0.0641  0.3037
 9182TIP3   OH227486   0.247   5.883   4.558  0.4315  0.5624 -0.3549
 9182TIP3    H127487   0.241   5.977   4.541  1.0951  0.5109 -0.9503
 9182TIP3    H227488   0.162   5.848   4.532 -0.7949  1.3185  2.3112
 9183TIP3   OH227489   1.824   4.914   0.208 -0.1008  0.0041  0.6970
 9183TIP3    H127490   1.882   4.960   0.269 -0.5279 -1.2274  2.0955
 9183TIP3    H227491   1.877   4.841   0.175 -0.3355 -0.1836  0.7301
 9184TIP3   OH227492   0.246   0.441   0.341 -0.4626  0.1512  0.6089
 9184TIP3    H127493   0.289   0.526   0.349 -0.0993 -0.0948  1.3612
 9184TIP3    H227494   0.193   0.434   0.421  1.7394 -1.5420  2.0404
 9185TIP3   OH227495   1.390   7.540   3.166  0.1967 -0.0376 -0.0722
 9185TIP3    H127496   1.371   7.447   3.169 -1.2025  0.2063 -0.4613
 9185TIP3    H227497   1.467   7.551   3.220  1.2051 -1.6115 -1.1038
 9186TIP3   OH227498   8.335   6.241   6.840 -0.4457  0.6169 -0.0176
 9186TIP3    H127499   8.303   6.202   6.758  0.3880 -1.4133  0.5628
 9186TIP3    H227500   8.318   6.174   6.906  0.0667  1.7020  1.2377
 9187TIP3   OH227501   4.424   3.273   6.491 -0.3348 -0.0382  0.3370
 9187TIP3    H127502   4.373   3.192   6.491  0.6405 -0.6730  0.0158
 9187TIP3    H227503   4.435   3.293   6.398 -3.0650  2.1326  0.3418
 9188TIP3   OH227504   2.200   5.828   6.222 -0.6162 -0.3533  0.2367
 9188TIP3    H127505   2.132   5.856   6.283 -0.5262 -1.4422  0.8686
 9188TIP3    H227506   2.155   5.766   6.164 -0.3406 -0.5230  0.2039
 9189TIP3   OH227507   5.265   5.405   1.161 -0.3448  0.4623 -0.1437
 9189TIP3    H127508   5.304   5.435   1.243 -0.0102  0.7551 -0.4064
 9189TIP3    H227509   5.280   5.477   1.100  0.5451 -0.2585 -0.8066
 9190TIP3   OH227510   2.804   7.828   6.768  0.0849 -0.0201  0.7593
 9190TIP3    H127511   2.799   7.733   6.777  2.0110 -0.3333 -0.7173
 9190TIP3    H227512   2.853   7.856   6.846  2.4642 -0.7063 -0.3937
 9191TIP3   OH227513   7.243   2.907   4.318 -0.2755 -0.1655 -0.3034
 9191TIP3    H127514   7.336   2.924   4.332 -0.5361 -0.7823  2.8042
 9191TIP3    H227515   7.239   2.867   4.231  2.4270 -0.5564 -0.3271
 9192TIP3   OH227516   4.303   1.752   5.360 -0.1954 -0.4569  0.5737
 9192TIP3    H127517   4.360   1.687   5.318 -0.9038  0.3832 -1.8725
 9192TIP3    H227518   4.364   1.819   5.393  0.3716 -0.3986 -0.5160
 9193TIP3   OH227519   4.631   7.305   1.672 -0.0520  1.0403  0.4770
 9193TIP3    H127520   4.673   7.219   1.682 -1.8677 -0.1642 -1.2765
 9193TIP3    H227521   4.662   7.337   1.587 -0.1809  1.6591  0.6571
 9194TIP3   OH227522   6.659   1.912   5.557 -0.7067 -0.5852 -0.1475
 9194TIP3    H127523   6.718   1.930   5.630  0.4739  1.4530 -1.5153
 9194TIP3    H227524   6.656   1.816   5.551 -0.2982 -0.7835  2.1039
 9195TIP3   OH227525   6.590   1.732   5.295 -0.3583  0.3911 -0.2298
 9195TIP3    H127526   6.589   1.644   5.258 -0.6994  0.6947 -0.9589
 9195TIP3    H227527   6.513   1.735   5.352  2.1049 -1.3155  3.5760
 9196TIP3   OH227528   2.129   7.242   3.120 -0.0863 -0.4146  0.0255
 9196TIP3    H127529   2.119   7.197   3.036 -0.9862 -0.6054  0.2253
 9196TIP3    H227530   2.119   7.173   3.185  0.2202 -0.1995  0.3029
 9197TIP3   OH227531   2.891   7.003   1.612  0.2169  0.0491  0.3473
 9197TIP3    H127532   2.933   7.075   1.563  0.3578 -0.4458 -0.2690
 9197TIP3    H227533   2.799   7.027   1.615 -0.8959 -2.2816 -4.7276
 9198TIP3   OH227534   8.139   3.872   4.733  0.1608 -0.0177 -0.1412
 9198TIP3    H127535   8.138   3.839   4.644  1.1236  1.6191 -0.8013
 9198TIP3    H227536   8.074   3.942   4.735 -1.4881 -1.4943  1.0944
 9199TIP3   OH227537   3.047   0.956   3.763 -0.3889  0.4843 -0.1233
 9199TIP3    H127538   3.135   0.991   3.751 -0.2480 -0.3780 -2.0205
 9199TIP3    H227539   3.059   0.862   3.770 -1.0656  0.4663  0.9529
 9200TIP3   OH227540   2.701   3.962   6.375  0.4936  0.0968  0.6885
 9200TIP3    H127541   2.634   3.921   6.320 -0.2980  0.3309  1.4636
 9200TIP3    H227542   2.665   3.959   6.463  0.9959  1.2711  0.9502
 9201TIP3   OH227543   0.963   5.881   3.806  0.1208 -0.2164 -0.6307
 9201TIP3    H127544   0.997   5.804   3.760  0.3680 -0.1561 -0.5492
 9201TIP3    H227545   1.039   5.938   3.816 -0.3705  0.7187 -2.0640
 9202TIP3   OH227546   4.497   2.565   3.752 -0.1082 -0.0314 -1.0180
 9202TIP3    H127547   4.580   2.611   3.739  0.6196 -1.2761 -0.9175
 9202TIP3    H227548   4.518   2.492   3.809 -0.8137 -1.6389 -2.7331
 9203TIP3   OH227549   8.230   5.470   6.446  0.5198  0.5024  0.4525
 9203TIP3    H127550   8.302   5.438   6.390  1.0093  3.7811 -1.0015
 9203TIP3    H227551   8.261   5.456   6.535  2.8440  1.4138 -0.1420
 9204TIP3   OH227552   1.010   6.780   0.483 -0.0666  0.2923 -0.0766
 9204TIP3    H127553   0.927   6.749   0.447  0.6184 -3.0571  0.9441
 9204TIP3    H227554   1.067   6.790   0.406 -0.8945  1.1253 -0.6192
 9205TIP3   OH227555   4.700   4.214   6.831  0.3068 -0.7216 -0.8984
 9205TIP3    H127556   4.739   4.274   6.767  0.9165 -1.1952 -0.9710
 9205TIP3    H227557   4.770   4.154   6.854 -0.4326 -1.7085 -1.1725
 9206TIP3   OH227558   0.917   4.544   6.448 -0.2902  0.1859 -0.6083
 9206TIP3    H127559   0.966   4.622   6.474  0.8292 -0.6730 -0.0365
 9206TIP3    H227560   0.894   4.501   6.530 -0.7829 -0.1588 -0.9182
 9207TIP3   OH227561   3.951   1.509   6.653 -1.1259 -0.0228  0.1208
 9207TIP3    H127562   4.006   1.586   6.639 -0.1913 -1.1525 -3.0874
 9207TIP3    H227563   3.993   1.463   6.725  0.2996  0.7365 -0.1899
 9208TIP3   OH227564   0.492   6.237   0.136  0.1885 -0.5988 -0.1144
 9208TIP3    H127565   0.470   6.148   0.161 -0.8378 -0.6910 -1.2750
 9208TIP3    H227566   0.574   6.230   0.087 -0.7926 -1.1589 -1.7389
 9209TIP3   OH227567   0.639   4.208   0.945  0.1762  0.0292  0.0834
 9209TIP3    H127568   0.582   4.176   0.875  1.0859 -1.3518 -0.0545
 9209TIP3    H227569   0.727   4.207   0.908  1.0517 -3.0563  1.8931
 9210TIP3   OH227570   5.027   5.536   5.137  0.4582  0.4677 -0.0844
 9210TIP3    H127571   4.944   5.520   5.182  0.1415  1.1245 -0.4154
 9210TIP3    H227572   5.021   5.627   5.108  0.2785 -0.1754 -2.2002
 9211TIP3   OH227573   8.146   5.355   2.799 -0.2524 -0.1554  0.0678
 9211TIP3    H127574   8.112   5.413   2.731  0.0201 -0.2503 -0.1509
 9211TIP3    H227575   8.097   5.379   2.878 -0.2546  0.2575 -0.0596
 9212TIP3   OH227576   1.469   6.050   3.274  0.0835 -0.7314  0.9254
 9212TIP3    H127577   1.549   6.006   3.304  0.5385  0.2833  1.2189
 9212TIP3    H227578   1.453   6.012   3.188  1.1510 -0.6147  0.6558
 9213TIP3   OH227579   1.700   7.646   1.749  0.5436  0.0786 -0.6225
 9213TIP3    H127580   1.762   7.593   1.698  0.4797 -0.9775  0.3536
 9213TIP3    H227581   1.733   7.735   1.741  3.5895 -0.6781  1.6972
 9214TIP3   OH227582   7.074   1.835   0.187 -0.0071 -0.3474  0.7451
 9214TIP3    H127583   7.151   1.888   0.166 -1.3104  1.5607  0.5531
 9214TIP3    H227584   7.042   1.872   0.269 -0.7793 -1.0645  0.7736
 9215TIP3   OH227585   0.030   7.605   6.353  0.2925  0.1357  0.6251
 9215TIP3    H127586  -0.059   7.573   6.367 -0.2057 -0.0833 -2.3701
 9215TIP3    H227587   0.065   7.549   6.284  2.0100  1.5666  0.2686
 9216TIP3   OH227588   1.270   7.310   0.811  0.0743  0.7600 -0.1774
 9216TIP3    H127589   1.229   7.317   0.725 -0.1809 -1.9151 -0.3668
 9216TIP3    H227590   1.349   7.258   0.796 -1.5565 -2.5151  1.5391
 9217TIP3   OH227591   5.091   3.974   2.237 -0.0267  0.0985  0.0934
 9217TIP3    H127592   5.082   4.067   2.255 -0.1239  0.0320  0.4013
 9217TIP3    H227593   5.008   3.936   2.266 -0.2193 -0.0058 -0.5658
 9218TIP3   OH227594   1.708   1.782   4.399  0.2784 -0.3118  0.2510
 9218TIP3    H127595   1.787   1.820   4.438 -0.4935 -0.1820  1.7655
 9218TIP3    H227596   1.735   1.695   4.369  0.5992 -1.0445  2.4835
 9219TIP3   OH227597   3.826   2.709   4.886  0.4349  0.2928 -0.2137
 9219TIP3    H127598   3.762   2.669   4.827  0.5052 -0.3685  0.1433
 9219TIP3    H227599   3.909   2.704   4.838  0.3929  0.2604 -0.2828
 9220TIP3   OH227600   4.631   2.720   5.291  0.0479  0.3940 -0.1430
 9220TIP3    H127601   4.539   2.745   5.302  0.1729  1.2271 -0.8616
 9220TIP3    H227602   4.628   2.632   5.254 -0.4253 -0.2588  1.3868
 9221TIP3   OH227603   3.367   0.664   4.556 -0.5757  0.0795 -0.7155
 9221TIP3    H127604   3.460   0.690   4.552 -0.9050  1.1449 -2.0281
 9221TIP3    H227605   3.367   0.585   4.609  1.1972 -0.4125 -1.3744
 9222TIP3   OH227606   7.092   7.161   5.737 -0.0707 -0.0568 -0.2592
 9222TIP3    H127607   7.130   7.236   5.783 -0.5256 -1.2063  2.1510
 9222TIP3    H227608   7.011   7.195   5.698 -0.7082  0.5521  1.5119
 9223TIP3   OH227609   1.013   4.945   0.168  0.3644 -0.0752 -0.0788
 9223TIP3    H127610   0.961   5.025   0.172  0.2607 -0.1684  0.5272
 9223TIP3    H227611   0.963   4.887   0.111  0.8444  0.5722 -1.1926
 9224TIP3   OH227612   1.405   6.415   3.935 -0.5371 -0.4925 -0.4235
 9224TIP3    H127613   1.331   6.356   3.949 -0.2586 -0.6655  0.3365
 9224TIP3    H227614   1.431   6.399   3.844 -0.5443 -1.4351 -0.2608
 9225TIP3   OH227615   2.159   6.226   2.281  0.7796  0.3784  0.2219
 9225TIP3    H127616   2.133   6.291   2.216 -0.3923 -0.2192  0.0708
 9225TIP3    H227617   2.209   6.161   2.231 -1.6378 -1.0375 -0.5228
 9226TIP3   OH227618   6.709   0.261   3.006 -0.4315 -0.5989  0.2930
 9226TIP3    H127619   6.712   0.299   2.918 -0.3052 -0.9640  0.1406
 9226TIP3    H227620   6.797   0.274   3.040 -0.8482  0.8530  0.9264
 9227TIP3   OH227621   2.122   7.156   1.083 -0.4792 -0.3587  0.1616
 9227TIP3    H127622   2.099   7.104   1.007  0.3010 -1.1025  0.4217
 9227TIP3    H227623   2.137   7.092   1.153  0.8789  0.1600  0.3850
 9228TIP3   OH227624   2.158   5.937   1.256 -0.0617  0.1643  0.2671
 9228TIP3    H127625   2.174   5.924   1.162 -1.1905  0.0918  0.0711
 9228TIP3    H227626   2.146   5.848   1.290  0.9703  0.1386  0.6230
 9229TIP3   OH227627   0.697   1.538   0.294 -0.2595 -0.5859  0.8387
 9229TIP3    H127628   0.791   1.545   0.275 -0.8262  0.8458 -1.9805
 9229TIP3    H227629   0.678   1.612   0.351  0.2761 -0.7604  1.2483
 9230TIP3   OH227630   6.605   6.757   2.556  0.1518 -0.5688 -0.0856
 9230TIP3    H127631   6.648   6.811   2.490 -0.4528  0.0123 -0.0114
 9230TIP3    H227632   6.654   6.773   2.636 -1.5092  1.8818  0.5559
 9231TIP3   OH227633   0.579   4.389   3.895 -0.1881 -0.3761  0.2147
 9231TIP3    H127634   0.535   4.400   3.810 -0.5617 -0.4109  0.4008
 9231TIP3    H227635   0.672   4.400   3.875 -0.1319 -1.7993 -0.4589
 9232TIP3   OH227636   1.123   2.799   4.763 -0.1334  0.6535 -0.3707
 9232TIP3    H127637   1.180   2.727   4.735 -1.2319  0.0787 -1.2159
 9232TIP3    H227638   1.160   2.827   4.847  0.0323 -1.2505  0.2497
 9233TIP3   OH227639   2.389   5.287   2.205  0.5183  0.1394 -0.1512
 9233TIP3    H127640   2.297   5.292   2.180  0.3608  0.6229  0.5060
 9233TIP3    H227641   2.403   5.364   2.261  1.3536  0.1489 -0.3597
 9234TIP3   OH227642   0.023   5.092   4.117 -0.1090  0.5493 -0.1229
 9234TIP3    H127643   0.105   5.051   4.090 -0.0878  1.2304 -1.1150
 9234TIP3    H227644  -0.042   5.021   4.110  0.1220  0.3949 -0.7716
 9235TIP3   OH227645   3.147   4.141   5.212  0.7646 -0.3608 -0.0263
 9235TIP3    H127646   3.104   4.058   5.235 -0.0444  0.1322  0.2649
 9235TIP3    H227647   3.169   4.132   5.120 -3.2109  0.7125 -1.2474
 9236TIP3   OH227648   4.493   0.763   5.366 -0.3451  0.5205  0.3796
 9236TIP3    H127649   4.442   0.839   5.339 -1.1279  0.4119  1.4556
 9236TIP3    H227650   4.435   0.716   5.427  0.8350  0.0801  1.1999
 9237TIP3   OH227651   7.542   6.494   3.286 -0.0929  0.6033  0.4596
 9237TIP3    H127652   7.484   6.493   3.210 -1.1016 -0.7535  1.2197
 9237TIP3    H227653   7.583   6.408   3.287  0.6644  0.9495  0.9195
 9238TIP3   OH227654   2.919   0.194   3.911 -0.1573 -0.0011 -0.1290
 9238TIP3    H127655   3.001   0.144   3.914 -0.3084 -0.2164  1.0314
 9238TIP3    H227656   2.881   0.181   3.998 -0.6729  1.3466 -0.1334
 9239TIP3   OH227657   1.562   0.527   1.964  0.0718  0.1858  0.7657
 9239TIP3    H127658   1.588   0.474   1.889  0.1909 -0.0537  0.9743
 9239TIP3    H227659   1.489   0.479   2.003 -1.9713  1.7595 -0.8828
 9240TIP3   OH227660   4.623   6.984   6.154 -0.5226 -0.0861  0.0524
 9240TIP3    H127661   4.550   6.932   6.120 -1.7984  0.7047  1.4415
 9240TIP3    H227662   4.671   6.924   6.211  0.2492 -0.7483 -1.2406
 9241TIP3   OH227663   5.172   6.512   3.027  0.1085  0.5905  0.5060
 9241TIP3    H127664   5.245   6.560   3.067 -0.8825  0.1850  3.0156
 9241TIP3    H227665   5.133   6.463   3.100 -1.3349 -0.9357 -1.1872
 9242TIP3   OH227666   3.635   5.404   0.579 -0.1925 -0.1341  0.0535
 9242TIP3    H127667   3.593   5.361   0.505 -0.1843 -0.3026  0.1465
 9242TIP3    H227668   3.704   5.343   0.606  0.2898  0.2651 -0.2705
 9243TIP3   OH227669   2.389   3.315   5.855 -0.1795 -0.2252  0.5281
 9243TIP3    H127670   2.361   3.286   5.768  3.1388  1.1497 -1.1804
 9243TIP3    H227671   2.311   3.354   5.894 -2.5108 -3.3444 -0.5711
 9244TIP3   OH227672   5.824   0.680   2.625  0.6677 -0.1659  0.1466
 9244TIP3    H127673   5.778   0.759   2.653  0.4860  0.5888 -2.1037
 9244TIP3    H227674   5.899   0.712   2.575  0.5498 -1.4122 -0.8748
 9245TIP3   OH227675   8.207   5.255   5.884  0.0743  0.3027 -0.0170
 9245TIP3    H127676   8.222   5.330   5.941  0.2240 -1.5339  2.5152
 9245TIP3    H227677   8.114   5.234   5.894  0.7089 -1.9643  2.2749
 9246TIP3   OH227678   8.157   7.472   3.513  0.2850  0.3645 -0.0100
 9246TIP3    H127679   8.206   7.431   3.583 -0.6150  0.7420  0.8655
 9246TIP3    H227680   8.194   7.560   3.505 -1.7229  1.5458  2.3109
 9247TIP3   OH227681   2.355   0.808   4.375  0.8656 -0.4547  0.9042
 9247TIP3    H127682   2.378   0.901   4.370 -0.2584 -0.2271 -1.2148
 9247TIP3    H227683   2.281   0.806   4.436  1.8020 -0.1926  2.0864
 9248TIP3   OH227684   4.223   0.779   2.179 -0.6371  0.2684 -0.0077
 9248TIP3    H127685   4.163   0.758   2.107  0.1451  0.8155 -0.8468
 9248TIP3    H227686   4.169   0.826   2.242 -0.7124  2.6028 -1.6749
 9249TIP3   OH227687   0.911   6.861   2.267 -0.5519 -0.5758  0.2304
 9249TIP3    H127688   0.964   6.934   2.299 -1.9844  1.3130 -1.4201
 9249TIP3    H227689   0.958   6.830   2.189  0.1274 -1.5550  1.0079
 9250TIP3   OH227690   4.802   4.318   6.606 -0.4369  0.1098  0.0458
 9250TIP3    H127691   4.829   4.406   6.578  1.0867 -0.0009  1.0493
 9250TIP3    H227692   4.812   4.264   6.528  0.1587  0.5345 -0.1807
 9251TIP3   OH227693   6.185   3.153   0.301 -0.0743  0.3615 -0.1488
 9251TIP3    H127694   6.095   3.134   0.273 -0.1171  0.7664 -0.2916
 9251TIP3    H227695   6.177   3.176   0.394 -0.2017  1.0268 -0.3259
 9252TIP3   OH227696   3.692   4.605   5.105 -1.2563  0.0426 -0.1332
 9252TIP3    H127697   3.656   4.663   5.038  0.2506 -1.5764 -2.4689
 9252TIP3    H227698   3.771   4.568   5.066 -1.2853 -2.4009  1.8333
 9253TIP3   OH227699   0.669   5.948   5.134 -0.1130 -0.3810  0.1950
 9253TIP3    H127700   0.577   5.924   5.119  0.2018 -1.0938 -0.6596
 9253TIP3    H227701   0.666   6.006   5.210 -0.9999 -2.5576  1.9405
 9254TIP3   OH227702   0.650   7.257   1.320 -0.1496  0.0852  0.1683
 9254TIP3    H127703   0.558   7.241   1.298 -0.1587 -1.0960  0.9804
 9254TIP3    H227704   0.662   7.212   1.404  1.1376  0.3484  0.1351
 9255TIP3   OH227705   0.095   2.373   4.413  0.3530 -0.0355 -0.1128
 9255TIP3    H127706   0.119   2.283   4.435 -2.5499 -0.6075  1.1805
 9255TIP3    H227707   0.109   2.422   4.494  1.8783  0.7214 -0.7996
 9256TIP3   OH227708   2.800   3.422   4.068 -0.3748  0.2046 -0.4070
 9256TIP3    H127709   2.748   3.341   4.066 -0.2572  0.1375 -1.8672
 9256TIP3    H227710   2.759   3.478   4.002 -0.2236  1.1979  0.3292
 9257TIP3   OH227711   3.762   3.413   1.371  0.5168  0.2321 -0.7912
 9257TIP3    H127712   3.787   3.421   1.279  2.6976  0.3456 -0.2554
 9257TIP3    H227713   3.714   3.494   1.390 -1.2962 -0.4655 -2.1561
 9258TIP3   OH227714   6.545   6.711   4.615 -0.0023  0.3615 -0.2205
 9258TIP3    H127715   6.512   6.773   4.680 -0.2565  2.1167 -1.9223
 9258TIP3    H227716   6.591   6.766   4.551 -1.9734 -0.8757 -2.8927
 9259TIP3   OH227717   1.105   0.414   5.132 -0.4284 -0.8911  0.3644
 9259TIP3    H127718   1.194   0.398   5.101 -0.6941  0.0088 -0.9176
 9259TIP3    H227719   1.053   0.343   5.095 -0.8583  0.5078 -1.8971
 9260TIP3   OH227720   5.097   0.398   6.780 -0.2358  0.4721  0.1801
 9260TIP3    H127721   5.091   0.308   6.813 -0.9258  0.2062 -0.6104
 9260TIP3    H227722   5.135   0.448   6.851  1.0222 -0.6257  0.3193
 9261TIP3   OH227723   5.374   7.130   3.147  0.3130 -0.1844  0.6272
 9261TIP3    H127724   5.283   7.160   3.137  0.7059  0.6178 -0.7990
 9261TIP3    H227725   5.412   7.141   3.060  1.7294 -0.7079  1.1619
 9262TIP3   OH227726   2.503   0.972   1.091  0.2962  0.0714 -0.1574
 9262TIP3    H127727   2.508   0.877   1.078 -1.2465 -0.0133 -0.4022
 9262TIP3    H227728   2.553   0.988   1.171 -0.8366 -1.2032  0.8604
 9263TIP3   OH227729   2.785   4.675   2.095 -0.0579  0.0010 -0.4499
 9263TIP3    H127730   2.838   4.600   2.123  0.3440 -0.1026 -1.4630
 9263TIP3    H227731   2.810   4.746   2.155  2.2662  0.3606 -1.7469
 9264TIP3   OH227732   5.617   3.445   3.951 -0.1401 -0.2161  0.1925
 9264TIP3    H127733   5.548   3.415   3.892  0.4169 -1.7159  0.2711
 9264TIP3    H227734   5.572   3.503   4.012 -1.2153 -0.6880 -0.1204
 9265TIP3   OH227735   5.250   7.331   4.932  0.2177 -0.1128  0.1277
 9265TIP3    H127736   5.220   7.289   4.852  2.6160 -0.3030 -0.7464
 9265TIP3    H227737   5.278   7.418   4.905  0.6092 -0.0059  0.8417
 9266TIP3   OH227738   7.980   3.454   3.102 -0.1939  0.6691  0.1038
 9266TIP3    H127739   7.927   3.523   3.063  0.9335  1.3875 -0.2170
 9266TIP3    H227740   8.049   3.501   3.150  0.2328 -0.2237  0.3927
 9267TIP3   OH227741   0.065   1.549   1.682 -0.2056 -0.2504 -0.2740
 9267TIP3    H127742   0.092   1.574   1.594  1.1083 -0.8110 -0.0429
 9267TIP3    H227743   0.140   1.503   1.719 -1.0586 -0.8155  0.8245
 9268TIP3   OH227744   4.011   1.331   5.693 -0.2689  0.0178  0.1290
 9268TIP3    H127745   4.053   1.278   5.626  1.0533  0.2178  0.7590
 9268TIP3    H227746   4.007   1.419   5.656  2.0346  0.5063  0.9135
 9269TIP3   OH227747   3.563   6.192   4.043 -0.4903 -0.2149 -0.0425
 9269TIP3    H127748   3.531   6.109   4.008 -0.7684  0.0728 -0.4783
 9269TIP3    H227749   3.503   6.211   4.116  0.4355 -1.0982  0.9920
 9270TIP3   OH227750   6.557   0.730   0.815 -0.0938  0.3896  0.7722
 9270TIP3    H127751   6.592   0.789   0.882 -1.4622  1.7177  0.3985
 9270TIP3    H227752   6.462   0.740   0.824 -0.3053  0.7162 -1.4303
 9271TIP3   OH227753   5.509   4.124   2.936  0.1573  0.5615  0.4393
 9271TIP3    H127754   5.457   4.196   2.899 -1.1075  0.3694  1.7381
 9271TIP3    H227755   5.444   4.057   2.956  1.0018  0.0626  1.5814
 9272TIP3   OH227756   5.011   0.535   4.638 -0.0844 -0.0370 -0.1883
 9272TIP3    H127757   4.943   0.564   4.578  0.2448  0.4468 -0.3274
 9272TIP3    H227758   5.003   0.439   4.639 -2.0679  0.0877  1.3052
 9273TIP3   OH227759   3.140   1.111   4.055  0.0984  0.0863  0.1769
 9273TIP3    H127760   3.213   1.171   4.073  1.5526 -1.6461  0.4341
 9273TIP3    H227761   3.144   1.098   3.960  1.9416 -2.0497  0.4572
 9274TIP3   OH227762   7.338   5.521   2.694  0.8643  0.4361  0.6399
 9274TIP3    H127763   7.311   5.591   2.634  0.5930 -0.4739 -0.3166
 9274TIP3    H227764   7.421   5.552   2.731  0.4672  1.5134  0.6600
 9275TIP3   OH227765   5.317   0.871   5.466 -0.1396 -0.1745 -0.3693
 9275TIP3    H127766   5.406   0.898   5.445  0.6962 -0.6955  2.1122
 9275TIP3    H227767   5.325   0.778   5.489 -1.5888 -0.5914 -1.4172
 9276TIP3   OH227768   1.331   4.486   3.297  0.0088 -0.2664  0.4327
 9276TIP3    H127769   1.405   4.433   3.324  0.3289  0.2016  0.4773
 9276TIP3    H227770   1.322   4.552   3.366  1.3427  1.4432 -0.9535
 9277TIP3   OH227771   3.937   2.965   3.539 -0.3033 -0.1239 -1.0395
 9277TIP3    H127772   3.874   3.021   3.583  2.1393  2.2458 -0.2709
 9277TIP3    H227773   3.953   2.893   3.600 -0.7172  0.3994 -0.2998
 9278TIP3   OH227774   0.944   0.976   2.382 -0.0919 -0.1152 -0.0049
 9278TIP3    H127775   0.901   1.057   2.356 -0.6742 -0.2707  0.4468
 9278TIP3    H227776   1.038   0.996   2.380 -0.2631  1.0064  1.4664
 9279TIP3   OH227777   1.724   7.826   3.432  0.0123 -0.1310 -0.3340
 9279TIP3    H127778   1.705   7.736   3.458 -0.5897  0.1793  0.3140
 9279TIP3    H227779   1.656   7.879   3.473  0.8032  0.7115 -0.0635
 9280TIP3   OH227780   5.145   0.547   4.310  0.1864  0.2879  0.2382
 9280TIP3    H127781   5.086   0.617   4.283  0.2633 -0.0445 -0.8548
 9280TIP3    H227782   5.198   0.585   4.380 -0.0744  1.1704 -0.0306
 9281TIP3   OH227783   5.852   1.082   2.501 -0.2445 -0.2116 -0.0312
 9281TIP3    H127784   5.789   1.094   2.431 -1.0491  1.3625  0.9153
 9281TIP3    H227785   5.905   1.162   2.499  1.8740 -1.5367 -0.8884
 9282TIP3   OH227786   3.454   0.555   0.015  0.1045 -0.2987  0.2576
 9282TIP3    H127787   3.462   0.460   0.023  0.8212 -0.3133 -0.3907
 9282TIP3    H227788   3.364   0.570  -0.011  1.0269 -1.2369 -4.3863
 9283TIP3   OH227789   8.295   5.429   6.072  0.3828  0.3283  0.0116
 9283TIP3    H127790   8.359   5.358   6.074 -0.0882 -0.1955 -1.5309
 9283TIP3    H227791   8.345   5.505   6.044  0.3659 -0.0897 -1.2329
 9284TIP3   OH227792   2.652   5.141   2.211 -0.0938 -0.3191 -0.3280
 9284TIP3    H127793   2.638   5.050   2.185 -2.2926  0.1220 -0.8319
 9284TIP3    H227794   2.564   5.177   2.225  0.7096  1.7708 -0.2528
 9285TIP3   OH227795   6.181   2.324   5.418  0.1532  0.1238 -0.0054
 9285TIP3    H127796   6.120   2.328   5.344  1.9018 -0.6331 -1.5745
 9285TIP3    H227797   6.228   2.408   5.415 -1.5055  1.2171  1.9266
 9286TIP3   OH227798   2.207   4.828   5.946 -0.5347  0.2134  0.4688
 9286TIP3    H127799   2.189   4.921   5.961 -0.5011  0.0522  1.5924
 9286TIP3    H227800   2.207   4.819   5.850 -0.4264  1.3860  0.3379
 9287TIP3   OH227801   0.542   7.227   1.793  0.4833  0.7992  0.4491
 9287TIP3    H127802   0.495   7.237   1.711  1.5410  2.0047 -0.0417
 9287TIP3    H227803   0.475   7.206   1.857 -0.4674  0.6775 -0.5584
 9288TIP3   OH227804   6.122   1.157   1.999  0.4032 -0.1514 -0.1443
 9288TIP3    H127805   6.130   1.070   2.036  0.6535  0.3008  0.9039
 9288TIP3    H227806   6.055   1.201   2.052 -0.2500  0.0748 -1.1133
 9289TIP3   OH227807   1.143   5.473   2.476  0.4060  0.1167  0.2933
 9289TIP3    H127808   1.058   5.514   2.458 -0.0843  0.7485  3.4408
 9289TIP3    H227809   1.206   5.544   2.471  0.7818 -0.2987 -1.7523
 9290TIP3   OH227810   1.188   6.447   1.785  0.3370  0.2035  0.0878
 9290TIP3    H127811   1.224   6.436   1.697 -1.8748 -0.8694 -0.7500
 9290TIP3    H227812   1.181   6.357   1.818  0.3050  0.5427  1.0094
 9291TIP3   OH227813   8.286   7.862   6.561 -0.4546 -0.2680 -0.3029
 9291TIP3    H127814   8.333   7.821   6.489 -3.0183 -0.8227 -1.7723
 9291TIP3    H227815   8.250   7.942   6.524  0.6020  0.9834  1.2428
 9292TIP3   OH227816   4.761   0.033   2.934 -0.9019  0.5986  0.1008
 9292TIP3    H127817   4.802   0.120   2.935  0.3585  0.0215  0.1770
 9292TIP3    H227818   4.668   0.051   2.923 -0.6608  1.9630  0.0978
 9293TIP3   OH227819   1.721   0.211   4.209 -0.0298 -0.0393  0.2137
 9293TIP3    H127820   1.791   0.162   4.165  0.4328  1.3510 -0.6902
 9293TIP3    H227821   1.738   0.198   4.302  0.8267 -0.5707  0.0018
 9294TIP3   OH227822   0.716   0.551   3.461  0.0710  0.0698  0.1008
 9294TIP3    H127823   0.652   0.622   3.460  0.6241  0.5869 -0.8159
 9294TIP3    H227824   0.763   0.561   3.378  0.0130 -1.5104 -0.1461
 9295TIP3   OH227825   0.020   6.732   3.483 -0.7858 -0.0502 -0.2265
 9295TIP3    H127826  -0.020   6.718   3.569 -1.6639  1.3313 -0.3842
 9295TIP3    H227827   0.087   6.664   3.477 -0.0516  0.3940  1.9477
 9296TIP3   OH227828   3.964   6.388   2.339  0.0137  0.0984 -0.4366
 9296TIP3    H127829   3.900   6.403   2.270  0.4773 -0.9742 -1.1177
 9296TIP3    H227830   4.048   6.410   2.299  0.2926 -0.5898 -0.2385
 9297TIP3   OH227831   7.489   3.610   6.805 -0.3745  0.1136 -0.2045
 9297TIP3    H127832   7.449   3.654   6.729 -0.1897  0.4804 -0.0911
 9297TIP3    H227833   7.583   3.622   6.793 -0.2628 -1.0938 -0.6764
 9298TIP3   OH227834   6.257   6.405   2.986 -0.2047 -0.7623  0.3861
 9298TIP3    H127835   6.347   6.386   2.959  0.3987  0.9149  1.1215
 9298TIP3    H227836   6.211   6.321   2.976  0.7830 -1.0508 -2.4626
 9299TIP3   OH227837   2.044   1.791   6.645  0.5348 -0.1105 -0.5391
 9299TIP3    H127838   2.119   1.742   6.612  0.1496 -0.7847 -0.4255
 9299TIP3    H227839   1.970   1.758   6.595  0.4879  1.4830 -1.5735
 9300TIP3   OH227840   3.322   1.210   0.832 -0.1954  1.0433 -0.1307
 9300TIP3    H127841   3.278   1.208   0.747  1.6260 -2.9301 -1.2179
 9300TIP3    H227842   3.312   1.121   0.867  3.4905  1.0113  1.3174
 9301TIP3   OH227843   0.871   1.231   3.426 -0.4699 -0.8187 -0.4092
 9301TIP3    H127844   0.867   1.234   3.330  0.4904  0.6632 -0.4471
 9301TIP3    H227845   0.890   1.322   3.451  1.1602 -1.5133  1.0740
 9302TIP3   OH227846   7.452   5.074   2.184  0.7291  0.0851  0.0681
 9302TIP3    H127847   7.498   5.137   2.129 -0.6427  1.1746  0.1255
 9302TIP3    H227848   7.513   5.053   2.254  0.8977  2.0748  0.5749
 9303TIP3   OH227849   2.774   7.621   0.606 -0.4287  0.2495  0.1739
 9303TIP3    H127850   2.767   7.540   0.555 -0.4819  0.4119 -0.0811
 9303TIP3    H227851   2.696   7.671   0.581  0.9526  1.5785 -1.7701
 9304TIP3   OH227852   3.030   5.546   3.855  0.2445 -0.7765  0.0498
 9304TIP3    H127853   3.028   5.642   3.854  3.0692 -0.6084  0.1337
 9304TIP3    H227854   2.985   5.522   3.936  1.4792  0.6511  1.2280
 9305TIP3   OH227855   5.279   0.413   4.841  0.3276 -0.2523  0.4730
 9305TIP3    H127856   5.304   0.330   4.882  2.9454  0.2561  0.0827
 9305TIP3    H227857   5.299   0.401   4.748  0.3389  0.6803  0.3444
 9306TIP3   OH227858   0.505   7.636   5.028 -0.3236  0.3555  0.2074
 9306TIP3    H127859   0.547   7.571   5.083 -0.1768  0.4207  0.1708
 9306TIP3    H227860   0.423   7.656   5.073 -0.3251  0.2156  0.2674
 9307TIP3   OH227861   0.854   6.756   1.468 -0.1013  0.4066  0.4705
 9307TIP3    H127862   0.806   6.673   1.464 -3.3411  2.1457 -0.6460
 9307TIP3    H227863   0.840   6.788   1.557  0.8184 -0.0334  0.7826
 9308TIP3   OH227864   8.319   2.603   6.052  0.0965 -0.1915 -0.3035
 9308TIP3    H127865   8.227   2.608   6.025  0.1191  2.1090 -0.1291
 9308TIP3    H227866   8.368   2.600   5.970 -0.0683  0.6813 -0.4402
 9309TIP3   OH227867   0.206   6.315   1.489 -0.2565 -0.5267  0.0958
 9309TIP3    H127868   0.240   6.319   1.400  0.5295  0.9847  0.4191
 9309TIP3    H227869   0.253   6.243   1.530  1.9287  0.8781  0.2404
 9310TIP3   OH227870   2.986   6.324   2.306 -0.6868 -0.0740 -0.2016
 9310TIP3    H127871   3.058   6.339   2.244  0.8921  0.2875  1.6195
 9310TIP3    H227872   2.961   6.233   2.293  0.5662 -0.4013 -0.4096
 9311TIP3   OH227873   8.249   2.798   4.185  0.6561  0.2834 -0.6943
 9311TIP3    H127874   8.287   2.756   4.107  0.5612  2.2773 -1.8675
 9311TIP3    H227875   8.259   2.732   4.254  1.8922 -1.0672 -2.0751
 9312TIP3   OH227876   4.324   6.615   2.912  0.6572  0.4890 -0.2297
 9312TIP3    H127877   4.294   6.703   2.932  0.3045  0.2346  0.3694
 9312TIP3    H227878   4.416   6.614   2.939  0.6636  0.6759 -0.2464
 9313TIP3   OH227879   6.304   6.243   6.550  0.1525  0.3617  0.0664
 9313TIP3    H127880   6.346   6.329   6.546  2.0430 -0.4385  0.9548
 9313TIP3    H227881   6.266   6.239   6.638 -1.1174  0.7664 -0.4456
 9314TIP3   OH227882   7.426   5.072   0.732 -0.2413 -0.3457  0.5066
 9314TIP3    H127883   7.505   5.124   0.749 -0.5182  0.1549  0.2732
 9314TIP3    H227884   7.446   5.024   0.652  0.6583 -1.8981  1.5850
 9315TIP3   OH227885   2.662   2.535   0.309 -0.6516  0.9943 -0.4108
 9315TIP3    H127886   2.647   2.526   0.403  2.0781  0.4937  0.0436
 9315TIP3    H227887   2.579   2.509   0.269 -1.7956  0.9666  1.8221
 9316TIP3   OH227888   3.943   4.131   2.225 -0.2599 -0.1884  0.1425
 9316TIP3    H127889   3.951   4.226   2.236  0.1503 -0.1912 -0.1133
 9316TIP3    H227890   4.033   4.102   2.207 -0.2294 -0.7447  1.1405
 9317TIP3   OH227891   1.031   0.175   3.206  0.1675  0.7271  0.5943
 9317TIP3    H127892   1.059   0.093   3.164  1.2420  1.7712 -0.8271
 9317TIP3    H227893   1.079   0.176   3.289  2.0878  1.0008 -0.4403
 9318TIP3   OH227894   0.268   4.613   3.203 -0.0098 -0.2885 -0.2717
 9318TIP3    H127895   0.202   4.621   3.134 -0.2522 -2.2805 -0.3291
 9318TIP3    H227896   0.222   4.640   3.283 -0.3717 -0.0341 -0.5601
 9319TIP3   OH227897   1.834   7.490   4.001 -0.0190 -0.3527  0.5022
 9319TIP3    H127898   1.776   7.561   3.975  0.5386 -0.2640 -0.5117
 9319TIP3    H227899   1.887   7.527   4.072 -0.5874 -0.1657  0.8400
 9320TIP3   OH227900   1.213   2.120   2.353 -0.3146  0.3279 -0.1670
 9320TIP3    H127901   1.294   2.071   2.339  0.3992  0.8445  1.8701
 9320TIP3    H227902   1.145   2.063   2.319  0.5149 -1.9933  1.8024
 9321TIP3   OH227903   6.003   1.608   6.098 -0.0777  0.3157 -0.5156
 9321TIP3    H127904   5.954   1.627   6.178  0.6144 -2.4870  0.6891
 9321TIP3    H227905   5.936   1.607   6.029 -0.7685  2.2264  0.0583
 9322TIP3   OH227906   2.328   1.179   6.051 -0.5227 -0.0523  0.5661
 9322TIP3    H127907   2.296   1.230   5.977 -0.4138  0.9487  1.1768
 9322TIP3    H227908   2.378   1.107   6.012 -2.3060 -0.8456 -0.3725
 9323TIP3   OH227909   0.778   5.640   0.600 -0.4813  0.2900  0.3404
 9323TIP3    H127910   0.745   5.672   0.684 -1.8536 -0.5976  0.1874
 9323TIP3    H227911   0.701   5.639   0.543 -0.1782 -1.6259 -0.1303
 9324TIP3   OH227912   6.711   5.933   6.840  0.2124  0.3475 -0.3992
 9324TIP3    H127913   6.645   6.002   6.839 -1.3339 -1.0441  0.0719
 9324TIP3    H227914   6.793   5.978   6.860 -0.9770  1.8821  1.4507
 9325TIP3   OH227915   4.173   2.106   0.028  0.3069 -0.2405  0.1533
 9325TIP3    H127916   4.239   2.114   0.096  0.7764 -0.1140 -0.3130
 9325TIP3    H227917   4.194   2.025  -0.018  0.6483  0.2276 -0.5309
 9326TIP3   OH227918   5.444   6.932   6.529  0.2456  0.7908  0.5201
 9326TIP3    H127919   5.439   6.966   6.439  1.9184  0.0022  0.0853
 9326TIP3    H227920   5.538   6.936   6.550 -0.1507  1.1664  2.3266
 9327TIP3   OH227921   7.850   0.133   5.348  0.1069 -0.2966 -0.0535
 9327TIP3    H127922   7.756   0.134   5.331  0.0389  1.9606  0.1770
 9327TIP3    H227923   7.861   0.069   5.418 -1.4408  0.2695  0.7554
 9328TIP3   OH227924   0.873   2.681   1.912 -0.0925 -0.4329 -0.3998
 9328TIP3    H127925   0.938   2.745   1.884  1.0094 -1.2968  0.0981
 9328TIP3    H227926   0.826   2.725   1.983 -1.0997  0.7543 -1.7554
 9329TIP3   OH227927   7.354   5.917   1.954 -0.3593  0.2020  0.0944
 9329TIP3    H127928   7.395   5.940   2.037 -0.2817  0.2555  0.0422
 9329TIP3    H227929   7.342   6.001   1.909  0.6896  0.0785 -0.4559
 9330TIP3   OH227930   1.100   7.838   5.708  0.6635  0.4980 -0.3589
 9330TIP3    H127931   1.128   7.770   5.770  0.6882  0.9841  0.1762
 9330TIP3    H227932   1.173   7.848   5.648  0.7347  0.1856 -0.3270
 9331TIP3   OH227933   1.799   5.196   1.897 -0.1802  0.6013  0.0500
 9331TIP3    H127934   1.879   5.240   1.925  0.2332  0.5774 -1.0498
 9331TIP3    H227935   1.748   5.265   1.852 -0.8319  0.6440  0.8345
 9332TIP3   OH227936   4.188   3.858   2.357 -0.2889 -0.5755  0.7111
 9332TIP3    H127937   4.115   3.811   2.395 -2.2564  2.4250  0.9861
 9332TIP3    H227938   4.251   3.866   2.428 -0.5383 -1.5183  1.0504
 9333TIP3   OH227939   2.549   0.624   2.847  0.4444  0.6521  0.0159
 9333TIP3    H127940   2.626   0.612   2.903  2.4805 -0.2984 -2.7701
 9333TIP3    H227941   2.579   0.677   2.775 -1.4749  0.0938 -1.2873
 9334TIP3   OH227942   2.033   2.834   1.760  0.1994 -0.2592  0.1920
 9334TIP3    H127943   2.024   2.741   1.736  1.5713 -0.5651  0.7636
 9334TIP3    H227944   1.995   2.840   1.847 -1.0170 -0.0109 -0.3411
 9335TIP3   OH227945   0.622   5.016   1.588  0.2580 -0.6847 -0.4046
 9335TIP3    H127946   0.534   5.025   1.550 -0.0980 -1.8268  0.0842
 9335TIP3    H227947   0.657   5.105   1.589 -0.1418 -0.4607 -2.3635
 9336TIP3   OH227948   5.849   1.474   0.861 -0.0435  0.1121  0.4561
 9336TIP3    H127949   5.857   1.417   0.937 -3.2643 -1.7954 -0.4227
 9336TIP3    H227950   5.882   1.421   0.788 -1.4322 -0.0503 -0.1006
 9337TIP3   OH227951   4.792   4.314   5.193 -0.1341  0.2560  0.0794
 9337TIP3    H127952   4.772   4.401   5.228 -0.0545  0.5233 -0.5361
 9337TIP3    H227953   4.717   4.261   5.218 -1.0521  0.9422 -1.1159
 9338TIP3   OH227954   2.040   1.224   2.708 -0.2312  0.2371  0.0325
 9338TIP3    H127955   2.061   1.219   2.615 -1.8635  1.8418 -0.4782
 9338TIP3    H227956   2.118   1.263   2.748  0.1639  0.3157 -0.7953
 9339TIP3   OH227957   2.980   3.381   5.706 -0.3804 -0.0159 -0.2921
 9339TIP3    H127958   2.899   3.341   5.674  0.5644 -1.9473 -0.3767
 9339TIP3    H227959   2.974   3.376   5.801 -0.4496  0.0323 -0.2937
 9340TIP3   OH227960   4.748   2.951   3.559 -0.3098  0.1624  0.3611
 9340TIP3    H127961   4.712   3.034   3.591 -0.4310  0.2275  0.0649
 9340TIP3    H227962   4.814   2.978   3.495 -0.7372  0.0274 -0.1455
 9341TIP3   OH227963   0.791   4.333   4.906 -0.5883  0.6580  0.8130
 9341TIP3    H127964   0.790   4.331   4.810 -0.9906 -3.8352  0.6873
 9341TIP3    H227965   0.884   4.336   4.929 -0.4235  0.4380  0.2086
 9342TIP3   OH227966   0.492   5.599   6.407 -0.0993  0.2385  0.1204
 9342TIP3    H127967   0.461   5.580   6.495 -1.0201 -1.1044 -0.4593
 9342TIP3    H227968   0.570   5.652   6.420 -0.5037  0.5067  1.7251
 9343TIP3   OH227969   4.364   6.648   4.474 -0.1432 -0.4954  0.1760
 9343TIP3    H127970   4.336   6.662   4.564  0.9616  0.3708  0.4049
 9343TIP3    H227971   4.290   6.604   4.432 -1.1542  0.2185  1.1758
 9344TIP3   OH227972   6.523   3.826   4.499  0.0596 -0.1422 -0.2550
 9344TIP3    H127973   6.506   3.751   4.443  1.6355 -0.0647 -0.8840
 9344TIP3    H227974   6.590   3.797   4.560 -1.2863 -0.0743  1.3378
 9345TIP3   OH227975   8.007   4.588   4.644  0.3115  0.3844 -0.1521
 9345TIP3    H127976   8.007   4.619   4.734  0.9972  1.8515 -0.6251
 9345TIP3    H227977   7.923   4.619   4.608 -1.0131 -2.1038  0.5366
 9346TIP3   OH227978   4.781   7.660   5.676  0.0466 -0.5157  0.6020
 9346TIP3    H127979   4.746   7.643   5.588 -0.4767  1.6391  0.3379
 9346TIP3    H227980   4.821   7.577   5.702  1.3237 -0.8936 -2.1740
 9347TIP3   OH227981   7.435   2.650   2.969  0.0430  0.4259  0.0658
 9347TIP3    H127982   7.465   2.670   3.058  1.4143  2.6615 -0.7989
 9347TIP3    H227983   7.391   2.565   2.976  3.3293 -1.2954  2.1921
 9348TIP3   OH227984   7.817   0.306   6.725  0.5108 -0.0257  0.2894
 9348TIP3    H127985   7.741   0.258   6.692  2.1027 -0.4815 -3.1236
 9348TIP3    H227986   7.858   0.247   6.788 -0.4382 -0.9475  0.0597
 9349TIP3   OH227987   2.643   4.231   1.909  0.1295  0.2459 -0.7005
 9349TIP3    H127988   2.717   4.277   1.949  1.0334 -0.2006 -1.7900
 9349TIP3    H227989   2.602   4.184   1.981  1.8108 -0.6740 -0.2879
 9350TIP3   OH227990   6.902   4.847   2.300  0.1490  0.1321 -0.7922
 9350TIP3    H127991   6.952   4.812   2.373 -1.7617 -0.1574  0.4494
 9350TIP3    H227992   6.926   4.939   2.296  0.2205  0.1691  0.2737
 9351TIP3   OH227993   6.577   1.644   6.238 -0.5063  0.0779 -0.2409
 9351TIP3    H127994   6.548   1.722   6.286 -1.0281  0.4222 -1.0784
 9351TIP3    H227995   6.571   1.573   6.301 -0.9451  0.5582  0.2754
 9352TIP3   OH227996   2.929   6.798   0.145  0.5230  0.0195  0.2986
 9352TIP3    H127997   2.891   6.766   0.227 -1.3716 -0.9974 -0.9186
 9352TIP3    H227998   3.002   6.738   0.128 -0.0977 -0.7857  0.4170
 9353TIP3   OH227999   1.170   7.091   4.335 -0.1071  0.6045  0.1715
 9353TIP3    H128000   1.095   7.131   4.380  0.0890  1.8531 -0.5768
 9353TIP3    H228001   1.133   7.052   4.257  0.0568  1.5265 -0.3779
 9354TIP3   OH228002   5.302   7.137   4.288  0.1972  0.2370 -0.0838
 9354TIP3    H128003   5.208   7.142   4.307  0.0009 -0.8637 -0.6783
 9354TIP3    H228004   5.329   7.228   4.278 -0.7188  0.5871  0.4952
 9355TIP3   OH228005   1.897   4.798   1.906  0.9068  0.1168  0.6130
 9355TIP3    H128006   1.858   4.876   1.867  0.3732 -0.5082 -0.1250
 9355TIP3    H228007   1.883   4.729   1.842 -0.4373 -1.0575  2.0647
 9356TIP3   OH228008   3.922   1.205   0.770  0.2747  0.1108  0.6184
 9356TIP3    H128009   3.829   1.206   0.749  0.2266  0.8142  0.8276
 9356TIP3    H228010   3.933   1.131   0.829 -0.4439  0.9454  1.8480
 9357TIP3   OH228011   3.457   6.246   5.647  0.1111  0.5368 -0.0672
 9357TIP3    H128012   3.508   6.278   5.572 -0.2901 -0.2885 -0.7126
 9357TIP3    H228013   3.499   6.164   5.671 -0.9460 -0.2238 -0.6900
 9358TIP3   OH228014   1.356   4.828   1.112  0.0204 -0.2938 -0.1216
 9358TIP3    H128015   1.262   4.844   1.103 -0.1832 -1.5111 -0.3686
 9358TIP3    H228016   1.363   4.769   1.187  0.6798  0.5521  0.4953
 9359TIP3   OH228017   7.062   0.751   4.842  0.0163  0.0369 -0.2276
 9359TIP3    H128018   7.094   0.732   4.930 -1.5467  1.1811  0.6327
 9359TIP3    H228019   7.137   0.790   4.797  1.0230 -1.1421  0.3598
 9360TIP3   OH228020   3.319   5.291   2.490  0.1287  0.5349  0.0310
 9360TIP3    H128021   3.270   5.326   2.415 -1.9834  1.1560  1.6175
 9360TIP3    H228022   3.265   5.219   2.522  0.7699  0.5701  1.2359
 9361TIP3   OH228023   7.100   6.955   0.616  0.4054  0.2244 -0.0319
 9361TIP3    H128024   7.091   6.872   0.569  1.0397 -0.4403  0.9773
 9361TIP3    H228025   7.155   7.009   0.559  3.2206 -1.4298  0.9218
 9362TIP3   OH228026   1.727   5.857   2.073 -0.1943  0.1711 -0.7311
 9362TIP3    H128027   1.823   5.855   2.066 -0.2116  1.3666 -1.8881
 9362TIP3    H228028   1.706   5.787   2.134  1.4019 -0.3127 -0.6719
 9363TIP3   OH228029   7.520   4.895   0.540  0.3897  0.4212  0.0017
 9363TIP3    H128030   7.500   4.825   0.478 -1.0818  0.9506 -0.1664
 9363TIP3    H228031   7.612   4.915   0.526  0.5441 -0.7244 -0.7157
 9364TIP3   OH228032   6.150   2.494   0.767  0.0979 -0.4165 -0.1586
 9364TIP3    H128033   6.241   2.466   0.777 -0.0967 -0.9403  0.1956
 9364TIP3    H228034   6.101   2.435   0.824 -0.2148  1.4323  1.5741
 9365TIP3   OH228035   7.264   0.197   3.063 -0.2949  0.2812  0.2749
 9365TIP3    H128036   7.316   0.270   3.096 -0.6104  0.3457  0.6471
 9365TIP3    H228037   7.328   0.128   3.046 -0.1379  0.1454  1.3201
 9366TIP3   OH228038   5.943   7.301   2.838  0.5579 -0.1701 -0.2061
 9366TIP3    H128039   5.890   7.253   2.901  1.1982 -0.6329 -0.0102
 9366TIP3    H228040   6.033   7.284   2.864  0.8113  0.4475 -0.6501
 9367TIP3   OH228041   5.221   5.025   1.277  0.4815  0.0715 -0.1647
 9367TIP3    H128042   5.127   5.041   1.270  0.0740 -1.2623  1.3353
 9367TIP3    H228043   5.237   4.950   1.220  0.6649  0.3988 -0.5432
 9368TIP3   OH228044   1.208   4.183   6.312 -0.2525 -1.1005 -0.2838
 9368TIP3    H128045   1.271   4.255   6.322 -1.0361 -0.3605 -0.5061
 9368TIP3    H228046   1.122   4.226   6.318 -0.7364 -1.9963 -0.6376
 9369TIP3   OH228047   1.408   3.759   2.465 -0.1383 -0.7363  0.4133
 9369TIP3    H128048   1.351   3.684   2.478 -0.7275 -0.6801 -1.5752
 9369TIP3    H228049   1.395   3.785   2.374  1.5062  0.5815  0.4882
 9370TIP3   OH228050   3.872   4.186   4.196 -0.4379  0.0493 -0.1751
 9370TIP3    H128051   3.787   4.144   4.195  0.5560 -2.1032 -1.0868
 9370TIP3    H228052   3.931   4.122   4.156  1.2494  2.2516 -1.4787
 9371TIP3   OH228053   4.286   2.026   2.061 -0.6366  0.0906  0.3932
 9371TIP3    H128054   4.340   2.089   2.108  0.2599 -0.5423  0.2537
 9371TIP3    H228055   4.336   2.007   1.981 -1.4457  0.0754 -0.1244
 9372TIP3   OH228056   2.446   7.047   4.466  0.1010  0.1684  0.0480
 9372TIP3    H128057   2.432   6.991   4.543  0.4287  0.3826  0.2673
 9372TIP3    H228058   2.487   7.126   4.501 -2.4706  1.5818  0.0900
 9373TIP3   OH228059   7.927   1.308   3.610  0.4333  0.0981  0.1225
 9373TIP3    H128060   7.981   1.357   3.548  0.3423 -0.8365 -0.7229
 9373TIP3    H228061   7.990   1.260   3.663  0.5170  1.0021  0.8601
 9374TIP3   OH228062   5.557   4.014   0.135  0.9626  0.6549 -0.3032
 9374TIP3    H128063   5.611   4.091   0.120  1.8406  0.0959 -0.0631
 9374TIP3    H228064   5.467   4.044   0.118  1.2037  1.9351  0.5724
 9375TIP3   OH228065   7.061   2.550   1.347  0.0895  0.4251  0.9642
 9375TIP3    H128066   7.072   2.456   1.332  2.2817  0.8328 -0.3889
 9375TIP3    H228067   7.140   2.577   1.393 -0.2626  1.7176  0.8527
 9376TIP3   OH228068   7.649   7.845   5.232  0.1921 -0.0545  0.0028
 9376TIP3    H128069   7.740   7.814   5.230  0.9590  2.0524 -0.8573
 9376TIP3    H228070   7.606   7.791   5.298  1.4451 -2.6949 -1.2112
 9377TIP3   OH228071   3.777   6.268   4.767 -0.5198  0.4774 -0.5797
 9377TIP3    H128072   3.842   6.200   4.751 -0.5698  0.5618 -1.1615
 9377TIP3    H228073   3.735   6.282   4.682 -1.3573  0.3678 -0.1909
 9378TIP3   OH228074   3.233   6.431   5.985  0.1644  0.5714  0.0675
 9378TIP3    H128075   3.256   6.495   6.052  2.7932 -0.5011  0.3247
 9378TIP3    H228076   3.289   6.452   5.911 -2.1672  1.2660 -1.6158
 9379TIP3   OH228077   8.296   3.099   5.920  0.3944 -0.5425  0.0973
 9379TIP3    H128078   8.320   3.159   5.990 -0.6476  0.2482 -0.1901
 9379TIP3    H228079   8.378   3.060   5.891  0.8422 -0.8507  1.7135
 9380TIP3   OH228080   0.226   2.722   2.348  0.2453  0.4843  0.4631
 9380TIP3    H128081   0.143   2.681   2.372  0.3446  0.5561  0.9467
 9380TIP3    H228082   0.281   2.710   2.426  0.9006 -0.1189 -0.0754
 9381TIP3   OH228083   2.540   2.058   6.165  0.0268 -0.1258  0.1292
 9381TIP3    H128084   2.566   2.021   6.080 -0.4814  0.8963 -0.4992
 9381TIP3    H228085   2.497   1.985   6.210 -2.2760 -0.0160 -1.6568
 9382TIP3   OH228086   7.524   0.310   2.433 -0.3315 -0.1272 -0.3951
 9382TIP3    H128087   7.588   0.370   2.394 -0.3472  0.4067  0.3901
 9382TIP3    H228088   7.464   0.366   2.481  0.1497 -0.8209  1.0672
 9383TIP3   OH228089   4.837   7.668   4.936  0.2627 -0.3772 -0.1180
 9383TIP3    H128090   4.770   7.736   4.935  0.0072 -0.5244  1.7485
 9383TIP3    H228091   4.816   7.612   4.861 -1.0238  0.2168 -0.2332
 9384TIP3   OH228092   7.514   6.820   5.164  0.8436 -0.0046 -0.0483
 9384TIP3    H128093   7.493   6.804   5.072  0.6293  0.1451 -0.0270
 9384TIP3    H228094   7.441   6.874   5.195  2.0516  1.9007 -0.3893
 9385TIP3   OH228095   2.416   5.420   2.935 -0.0478 -0.1535  0.1502
 9385TIP3    H128096   2.422   5.336   2.890 -1.9306 -1.1042  1.5530
 9385TIP3    H228097   2.388   5.399   3.024 -0.5749  1.9467  0.5501
 9386TIP3   OH228098   7.513   3.202   2.608  0.1643 -0.1126 -0.1263
 9386TIP3    H128099   7.569   3.279   2.609  2.3642 -1.6001 -1.6502
 9386TIP3    H228100   7.482   3.194   2.698  1.7717  1.2125  0.5893
 9387TIP3   OH228101   4.978   1.196   5.029  0.7070 -0.1036 -0.2325
 9387TIP3    H128102   4.913   1.210   5.098  1.0993 -1.6779  0.5001
 9387TIP3    H228103   5.062   1.215   5.070  0.7876  1.6855 -1.1081
 9388TIP3   OH228104   0.535   4.536   4.117 -0.0694  0.0074 -0.2276
 9388TIP3    H128105   0.554   4.493   4.033 -0.5332  1.5522 -1.1650
 9388TIP3    H228106   0.533   4.629   4.096 -0.4235  0.4091  1.4704
 9389TIP3   OH228107   2.725   1.269   1.415  0.1802  0.1711 -0.1964
 9389TIP3    H128108   2.711   1.324   1.492  0.9979  1.1852 -0.7476
 9389TIP3    H228109   2.814   1.234   1.426  0.6686  1.0811 -1.1227
 9390TIP3   OH228110   2.738   4.250   6.409 -0.1771 -0.6743 -0.2294
 9390TIP3    H128111   2.710   4.280   6.322  1.3257  0.9152 -0.2350
 9390TIP3    H228112   2.775   4.163   6.393  1.9436  0.3904 -1.6235
 9391TIP3   OH228113   2.860   6.658   6.661  0.0994  1.0126 -0.0685
 9391TIP3    H128114   2.850   6.592   6.729 -0.2851  1.6800  0.5302
 9391TIP3    H228115   2.858   6.741   6.707 -3.3098  1.6814 -1.1697
 9392TIP3   OH228116   1.213   0.272   4.028 -0.2274  0.1206 -0.0784
 9392TIP3    H128117   1.173   0.191   4.059 -0.6069  0.1509 -0.4739
 9392TIP3    H228118   1.226   0.324   4.107  0.9034 -0.7045  0.3099
 9393TIP3   OH228119   3.742   6.714   6.812  0.3259  0.0836 -0.0231
 9393TIP3    H128120   3.694   6.795   6.799 -1.2150 -0.5052  1.6253
 9393TIP3    H228121   3.701   6.652   6.752  0.1570  0.0266  0.1484
 9394TIP3   OH228122   7.753   4.700   5.905 -0.1268 -0.3599 -0.2322
 9394TIP3    H128123   7.731   4.777   5.958  1.6990  0.5229 -0.6702
 9394TIP3    H228124   7.669   4.671   5.869 -0.7418  2.3846 -1.2845
 9395TIP3   OH228125   6.101   0.343   6.071 -0.0725 -0.0455  0.2225
 9395TIP3    H128126   6.147   0.398   6.135  0.5322 -0.3711  0.0709
 9395TIP3    H228127   6.128   0.377   5.986  1.0124 -1.1253  0.1090
 9396TIP3   OH228128   1.879   5.466   5.567 -0.1047 -0.1186 -0.1842
 9396TIP3    H128129   1.920   5.436   5.648  1.3894 -1.6677 -1.4316
 9396TIP3    H228130   1.802   5.411   5.556 -1.1320  1.0402  0.8334
 9397TIP3   OH228131   5.789   5.978   3.353 -0.6885  0.4917 -0.2199
 9397TIP3    H128132   5.728   6.025   3.296 -0.8523  0.3679 -0.1476
 9397TIP3    H228133   5.747   5.894   3.369 -0.6966  0.5628  0.1666
 9398TIP3   OH228134   4.439   4.749   0.070  0.6253 -0.4573  0.6443
 9398TIP3    H128135   4.402   4.724  -0.015 -0.3692 -0.6298  1.1199
 9398TIP3    H228136   4.499   4.678   0.092  0.2573 -0.8263  0.4677
 9399TIP3   OH228137   0.959   0.112   5.881 -0.1250  0.0856  0.4183
 9399TIP3    H128138   0.972   0.205   5.900 -1.7421  0.1941  1.1045
 9399TIP3    H228139   1.048   0.077   5.876  0.6013  1.9603 -1.5047
 9400TIP3   OH228140   1.936   0.831   2.127 -0.1597  0.1348 -0.4264
 9400TIP3    H128141   1.946   0.752   2.073 -0.6492  0.6196 -1.2451
 9400TIP3    H228142   1.865   0.809   2.188  0.5804 -0.5127  0.2277
 9401TIP3   OH228143   2.005   2.260   0.551  1.0305  0.1220 -0.4639
 9401TIP3    H128144   2.038   2.172   0.569 -2.9689 -1.2789  1.2206
 9401TIP3    H228145   2.039   2.314   0.622  0.5064 -0.9970  0.6699
 9402TIP3   OH228146   3.957   4.762   3.604 -0.2222 -0.5565 -0.1746
 9402TIP3    H128147   3.979   4.810   3.684  3.0136 -1.0863 -0.5930
 9402TIP3    H228148   4.028   4.698   3.594 -1.2240 -1.3966 -2.7781
 9403TIP3   OH228149   3.063   3.751   0.747 -0.2793  0.1886 -0.1617
 9403TIP3    H128150   3.143   3.705   0.721  0.0911  1.6672 -1.8408
 9403TIP3    H228151   2.993   3.687   0.732  0.5117 -0.9492  0.8401
 9404TIP3   OH228152   1.247   1.225   0.348  0.1412 -0.0939  0.1982
 9404TIP3    H128153   1.228   1.294   0.412  1.6501  1.3909 -0.8489
 9404TIP3    H228154   1.262   1.147   0.400 -1.5764  0.3335  1.4409
 9405TIP3   OH228155   1.410   4.453   4.640 -0.6482 -0.2810 -0.5405
 9405TIP3    H128156   1.419   4.501   4.558  0.4115 -1.5024 -1.1657
 9405TIP3    H228157   1.489   4.474   4.690 -0.4686 -0.8877 -0.5631
 9406TIP3   OH228158   8.014   4.688   2.241  0.3688  0.5094  0.2407
 9406TIP3    H128159   8.020   4.774   2.281 -1.2383  1.1526 -0.7885
 9406TIP3    H228160   8.103   4.669   2.211  0.4309  2.6876 -1.2036
 9407TIP3   OH228161   6.779   5.771   4.593  0.2152  0.1390  1.0157
 9407TIP3    H128162   6.773   5.676   4.593 -0.9502  0.1410 -1.3433
 9407TIP3    H228163   6.692   5.801   4.618 -0.3713  0.4855 -1.1687
 9408TIP3   OH228164   6.417   3.831   4.219  0.3116  0.0197  0.5002
 9408TIP3    H128165   6.355   3.891   4.260 -0.2409  0.8033 -1.3685
 9408TIP3    H228166   6.367   3.791   4.147  1.4455 -0.7266  0.1081
 9409TIP3   OH228167   7.885   2.079   2.157 -0.0024 -0.0950 -0.1368
 9409TIP3    H128168   7.884   1.987   2.183 -1.8791 -0.0381  0.1381
 9409TIP3    H228169   7.893   2.126   2.240 -2.9838  0.0144  0.2135
 9410TIP3   OH228170   6.637   0.021   1.442 -0.5740 -0.2346  0.2103
 9410TIP3    H128171   6.559   0.055   1.399 -0.2079 -0.5851 -0.7600
 9410TIP3    H228172   6.704   0.019   1.373  0.1524 -0.3919  0.9035
 9411TIP3   OH228173   4.892   6.481   4.381 -0.2819  0.7449 -0.1793
 9411TIP3    H128174   4.967   6.507   4.327  1.0066  3.0778  2.4267
 9411TIP3    H228175   4.921   6.400   4.424  1.4131  2.2286  1.7042
 9412TIP3   OH228176   2.756   0.627   6.837 -0.1382  0.3563  0.1353
 9412TIP3    H128177   2.732   0.549   6.786 -0.1241 -0.3378  1.1574
 9412TIP3    H228178   2.808   0.680   6.776 -1.0188  0.0730 -0.9061
 9413TIP3   OH228179   6.463   7.449   5.242  0.2670 -0.4742 -0.5763
 9413TIP3    H128180   6.532   7.458   5.176  0.6534  1.8582  0.0529
 9413TIP3    H228181   6.509   7.422   5.322 -0.2037 -3.3278 -1.1461
 9414TIP3   OH228182   5.528   6.320   3.801 -0.1358 -1.1285  0.3258
 9414TIP3    H128183   5.496   6.290   3.716 -0.1191  1.2130 -0.5694
 9414TIP3    H228184   5.539   6.414   3.791 -0.6109 -0.6867  3.0822
 9415TIP3   OH228185   8.367   1.167   1.163 -0.0767 -0.2623 -0.3258
 9415TIP3    H128186   8.436   1.230   1.183  0.0679 -0.4530 -0.2185
 9415TIP3    H228187   8.311   1.212   1.101 -1.1384  0.7440  1.3084
 9416TIP3   OH228188   5.692   3.503   0.035  0.2285 -0.1287  0.5868
 9416TIP3    H128189   5.604   3.499  -0.003  0.5990  0.4740 -0.3841
 9416TIP3    H228190   5.710   3.596   0.045  1.6640 -0.1061 -1.5343
 9417TIP3   OH228191   0.617   3.971   0.074  0.6239  0.3633 -0.2063
 9417TIP3    H128192   0.553   3.953   0.005  0.0300 -0.1126  0.4567
 9417TIP3    H228193   0.585   4.052   0.115  0.0846 -0.2192  0.5363
 9418TIP3   OH228194   1.572   0.558   3.228 -0.5421 -0.5664  0.2581
 9418TIP3    H128195   1.571   0.607   3.146 -1.2503 -0.6722  0.1961
 9418TIP3    H228196   1.580   0.624   3.296 -0.1903 -0.4623  0.1201
 9419TIP3   OH228197   6.538   2.446   4.716 -0.4176 -0.2533 -0.1149
 9419TIP3    H128198   6.593   2.508   4.670 -0.3554 -1.3808 -1.6295
 9419TIP3    H228199   6.591   2.366   4.721 -1.0207 -0.6257  0.5400
 9420TIP3   OH228200   5.351   3.377   0.508 -0.3325  1.0058 -0.4213
 9420TIP3    H128201   5.412   3.392   0.435 -0.6259  0.2982 -0.8154
 9420TIP3    H228202   5.327   3.285   0.501  0.6088  0.5909  1.3231
 9421TIP3   OH228203   7.231   0.750   1.060 -0.0385  0.0098  0.1534
 9421TIP3    H128204   7.145   0.714   1.082 -0.4765  1.7952  1.5324
 9421TIP3    H228205   7.247   0.817   1.126  1.3545  1.3837 -1.4886
 9422TIP3   OH228206   1.778   5.334   5.290  0.1487 -0.5989  0.0513
 9422TIP3    H128207   1.730   5.334   5.208  0.3338 -1.1530 -0.0637
 9422TIP3    H228208   1.731   5.272   5.346  1.1802 -1.7805 -0.3493
 9423TIP3   OH228209   6.982   5.835   5.483 -0.5591  0.3518  0.2210
 9423TIP3    H128210   7.005   5.882   5.563 -0.2621 -0.6977  0.7687
 9423TIP3    H228211   7.056   5.777   5.467 -1.6900 -1.2401  0.5741
 9424TIP3   OH228212   0.358   4.890   3.287  0.3854  0.0062 -0.6719
 9424TIP3    H128213   0.295   4.910   3.218 -0.3901  0.5437  0.1673
 9424TIP3    H228214   0.361   4.794   3.290 -2.1626 -0.1093  0.7907
 9425TIP3   OH228215   5.536   7.674   5.803  0.0217  0.1951  0.1731
 9425TIP3    H128216   5.509   7.586   5.832  0.9245 -0.1036  0.1292
 9425TIP3    H228217   5.454   7.722   5.796 -0.4069 -0.3286  1.2422
 9426TIP3   OH228218   1.411   7.208   4.185 -0.3594 -0.3617 -0.8268
 9426TIP3    H128219   1.340   7.174   4.239 -1.2083  0.6568 -1.2736
 9426TIP3    H228220   1.400   7.166   4.100 -1.0472  0.5465 -1.1980
 9427TIP3   OH228221   8.219   3.854   5.401  0.0197 -0.7806  0.1820
 9427TIP3    H128222   8.197   3.947   5.389  1.5535 -0.3528  0.3440
 9427TIP3    H228223   8.157   3.807   5.346  1.2716  0.5538 -2.5788
 9428TIP3   OH228224   4.158   6.767   0.071  0.1474  0.0376 -0.6905
 9428TIP3    H128225   4.212   6.693   0.046  0.5007 -0.3558  1.0651
 9428TIP3    H228226   4.221   6.833   0.102 -0.3164 -0.1966  0.8162
 9429TIP3   OH228227   2.553   7.814   2.037 -0.1594  0.8936  0.1005
 9429TIP3    H128228   2.475   7.761   2.019  0.5846  0.2129 -1.3193
 9429TIP3    H228229   2.518   7.898   2.066 -1.3875  0.0460  1.2076
 9430TIP3   OH228230   1.340   6.381   5.871 -0.1834  0.4808  0.3922
 9430TIP3    H128231   1.367   6.290   5.885 -0.1240  0.6225  1.2652
 9430TIP3    H228232   1.247   6.375   5.850 -0.3936  0.2759  1.3360
 9431TIP3   OH228233   5.307   5.831   2.690 -0.1665 -0.9953 -0.7351
 9431TIP3    H128234   5.316   5.817   2.596  1.2607  0.4496 -0.8761
 9431TIP3    H228235   5.214   5.823   2.707 -0.5029 -0.8767 -2.3616
 9432TIP3   OH228236   4.423   1.971   6.408 -0.6204  0.8306 -0.0450
 9432TIP3    H128237   4.387   2.047   6.453 -1.9864 -0.6178  1.4722
 9432TIP3    H228238   4.411   1.899   6.471  0.5983 -0.6332 -1.4167
 9433TIP3   OH228239   4.347   6.243   5.963  0.1089 -0.6631  0.3818
 9433TIP3    H128240   4.276   6.241   5.899  0.2501  0.9788  0.1374
 9433TIP3    H228241   4.347   6.155   6.001 -1.8639 -0.8056  0.1756
 9434TIP3   OH228242   7.637   5.331   4.998 -0.7179 -0.2481  0.8659
 9434TIP3    H128243   7.711   5.383   4.966 -2.3583  1.0190 -1.0659
 9434TIP3    H228244   7.670   5.241   4.999  0.2683 -0.0230 -2.0051
 9435TIP3   OH228245   2.422   0.812   4.971  0.3395  0.9779 -0.4168
 9435TIP3    H128246   2.444   0.862   4.893 -0.4586 -1.0651 -2.0334
 9435TIP3    H228247   2.391   0.728   4.938 -0.1553  0.0814  2.1082
 9436TIP3   OH228248   0.861   3.508   4.346 -0.2025  0.1852  0.0865
 9436TIP3    H128249   0.837   3.512   4.439  0.4696 -0.4933  0.2992
 9436TIP3    H228250   0.857   3.415   4.324 -0.5208  0.3601 -0.6176
 9437TIP3   OH228251   5.114   3.362   1.596 -0.1099  0.4994  0.3311
 9437TIP3    H128252   5.191   3.343   1.648 -0.8013 -0.3409  1.0891
 9437TIP3    H228253   5.084   3.448   1.627 -0.4889  0.0255  1.3009
 9438TIP3   OH228254   5.649   4.712   5.821  0.1126 -0.1908 -0.5903
 9438TIP3    H128255   5.560   4.676   5.818 -1.4650  2.9020  2.4792
 9438TIP3    H228256   5.668   4.722   5.915  2.1615  2.6554 -1.1804
 9439TIP3   OH228257   5.757   7.880   3.794  0.3591 -0.0135 -0.0348
 9439TIP3    H128258   5.780   7.957   3.845  0.8884  0.0668 -0.3800
 9439TIP3    H228259   5.690   7.911   3.732  1.6723  0.5749 -1.2199
 9440TIP3   OH228260   1.175   3.580   4.623 -0.3835 -0.2769  0.1733
 9440TIP3    H128261   1.265   3.590   4.655  0.2048  0.0142 -1.4927
 9440TIP3    H228262   1.171   3.490   4.592 -1.0525 -0.6607  1.3069
 9441TIP3   OH228263   0.289   6.159   4.569 -0.2438  0.3359 -0.1729
 9441TIP3    H128264   0.347   6.212   4.624 -1.1928  1.1303  0.1073
 9441TIP3    H228265   0.287   6.206   4.486 -2.0311  1.4741  0.4534
 9442TIP3   OH228266   0.919   4.639   3.795 -0.1105  0.7771 -0.1846
 9442TIP3    H128267   0.969   4.628   3.876 -0.0472  2.4910  0.0420
 9442TIP3    H228268   0.980   4.613   3.726  1.9294  4.5321 -0.0748
 9443TIP3   OH228269   3.452   7.311   4.261  0.5206 -0.1413  0.1402
 9443TIP3    H128270   3.493   7.389   4.295 -1.1804  0.3455  1.1822
 9443TIP3    H228271   3.428   7.333   4.171  0.0729  0.5412  0.4235
 9444TIP3   OH228272   6.236   0.480   2.349  0.0946 -0.3340 -0.2628
 9444TIP3    H128273   6.272   0.428   2.421  1.5605  2.2783  1.0357
 9444TIP3    H228274   6.290   0.459   2.274 -0.1488 -1.5867 -0.1052
 9445TIP3   OH228275   8.001   2.160   2.408 -0.0643 -0.1339  0.1008
 9445TIP3    H128276   8.016   2.074   2.449  1.0718 -0.6982 -1.3915
 9445TIP3    H228277   7.945   2.207   2.470 -0.1958 -1.7226  1.2474
 9446TIP3   OH228278   6.991   0.138   1.269  0.5994 -0.3774 -0.3540
 9446TIP3    H128279   7.087   0.141   1.269  0.6243  2.3982 -1.3459
 9446TIP3    H228280   6.968   0.092   1.188  1.1245 -0.0898 -0.6745
 9447TIP3   OH228281   4.505   7.170   6.517  0.4126  0.0401 -0.3445
 9447TIP3    H128282   4.412   7.176   6.540  0.6025 -1.0479  0.8555
 9447TIP3    H228283   4.522   7.076   6.511  1.2809  0.2419 -1.2890
 9448TIP3   OH228284   4.867   5.780   3.177  1.1130  0.5954 -0.5109
 9448TIP3    H128285   4.826   5.722   3.113  0.4107  1.5119 -0.9083
 9448TIP3    H228286   4.794   5.819   3.225  1.4810  2.2422 -1.2156
 9449TIP3   OH228287   3.126   5.384   4.507 -0.3690 -0.0941 -0.2345
 9449TIP3    H128288   3.188   5.400   4.436  0.4081  0.1150  0.4733
 9449TIP3    H228289   3.180   5.353   4.579 -1.2469 -1.0464  0.0297
 9450TIP3   OH228290   0.159   0.490   3.864  0.1066 -0.6223  0.2107
 9450TIP3    H128291   0.158   0.496   3.959  0.3873  0.8950  0.1496
 9450TIP3    H228292   0.251   0.471   3.842  0.9869  2.9366  0.1521
 9451TIP3   OH228293   2.904   6.486   2.742  0.2778  0.3566 -0.1692
 9451TIP3    H128294   2.895   6.394   2.718 -0.4656  0.5915 -0.8618
 9451TIP3    H228295   2.846   6.497   2.818  2.1038 -0.2335  1.3669
 9452TIP3   OH228296   7.490   0.984   2.894 -0.7427 -0.5355 -0.8388
 9452TIP3    H128297   7.418   0.947   2.946 -0.2301  1.3165  1.3619
 9452TIP3    H228298   7.569   0.944   2.930 -0.3532  1.0397  0.1793
 9453TIP3   OH228299   3.343   6.419   1.245  0.2380 -0.5228 -0.2115
 9453TIP3    H128300   3.306   6.414   1.157 -1.7871  0.3379  0.5360
 9453TIP3    H228301   3.353   6.513   1.261  4.3181 -0.6425 -0.9033
 9454TIP3   OH228302   2.064   6.368   4.208 -0.0054  0.6857  0.6246
 9454TIP3    H128303   2.139   6.395   4.157 -0.1038 -2.4181 -1.4528
 9454TIP3    H228304   2.002   6.441   4.201  0.8471  1.2594 -1.9457
 9455TIP3   OH228305   7.231   1.130   0.470  0.5715  0.3293 -0.6509
 9455TIP3    H128306   7.211   1.215   0.431  0.7286  0.1820 -1.0624
 9455TIP3    H228307   7.146   1.097   0.499  0.1651 -0.2717 -2.3567
 9456TIP3   OH228308   2.909   0.537   4.575  0.4158  0.0145 -0.2267
 9456TIP3    H128309   2.899   0.448   4.544  0.0302  0.1556 -0.5044
 9456TIP3    H228310   2.953   0.583   4.504 -0.7384  0.4117 -0.7087
 9457TIP3   OH228311   1.227   7.685   0.321 -0.1838 -0.1256 -0.2875
 9457TIP3    H128312   1.240   7.778   0.300 -1.2206 -0.0136 -0.4802
 9457TIP3    H228313   1.252   7.639   0.241 -0.6255  0.0580 -0.5346
 9458TIP3   OH228314   6.499   3.423   0.078  0.2101 -0.1020  0.0213
 9458TIP3    H128315   6.532   3.360   0.142 -0.1022 -0.1618  0.1262
 9458TIP3    H228316   6.562   3.496   0.081  0.1856 -0.0950  0.4094
 9459TIP3   OH228317   6.920   1.916   5.668  0.6756  0.3980 -0.6552
 9459TIP3    H128318   6.984   1.873   5.610  1.5709  0.0351  0.5440
 9459TIP3    H228319   6.890   1.846   5.725 -0.2221  0.7448 -0.6859
 9460TIP3   OH228320   0.209   2.031   4.893 -0.3063 -0.3305  0.5723
 9460TIP3    H128321   0.276   2.054   4.829  0.2844  0.4733  1.4430
 9460TIP3    H228322   0.130   2.076   4.864 -0.6497 -1.7291 -0.7691
 9461TIP3   OH228323   0.930   5.503   6.338 -0.1144 -0.0703  0.3124
 9461TIP3    H128324   0.908   5.575   6.398 -0.9840 -1.1564  1.3276
 9461TIP3    H228325   0.898   5.532   6.253 -0.3487  0.7850  0.6787
 9462TIP3   OH228326   2.079   5.815   1.652  0.9706 -0.5150 -0.5647
 9462TIP3    H128327   2.081   5.720   1.641  1.4166 -0.4209 -1.3659
 9462TIP3    H228328   1.988   5.839   1.638  0.9227 -0.7858 -0.7243
 9463TIP3   OH228329   6.565   7.475   6.812  0.5383  0.6671  0.4560
 9463TIP3    H128330   6.483   7.521   6.828 -0.3944 -0.6507 -0.3113
 9463TIP3    H228331   6.624   7.506   6.881 -1.2093  0.1865  2.2796
 9464TIP3   OH228332   3.903   0.306   1.066 -0.2994 -0.1229  0.3399
 9464TIP3    H128333   3.951   0.304   1.149  3.0384  0.0461 -1.4425
 9464TIP3    H228334   3.882   0.214   1.048 -0.4018 -0.2321  0.9999
 9465TIP3   OH228335   4.285   6.264   1.363  0.1696  0.3952  0.2672
 9465TIP3    H128336   4.248   6.313   1.436  0.1067  0.3205  0.2870
 9465TIP3    H228337   4.257   6.173   1.379  0.0424  0.4013  0.0787
 9466TIP3   OH228338   3.200   1.038   1.361  0.3103  0.0492  0.0287
 9466TIP3    H128339   3.289   1.036   1.324 -0.3822  0.9219 -1.8410
 9466TIP3    H228340   3.143   1.020   1.286 -1.1169 -0.4244  1.1785
 9467TIP3   OH228341   4.858   2.403   0.664  0.2716  0.4110 -0.1788
 9467TIP3    H128342   4.802   2.332   0.633  0.1381  0.3426  0.2043
 9467TIP3    H228343   4.898   2.439   0.585 -0.5001  0.6256 -0.4764
 9468TIP3   OH228344   3.341   7.711   0.902  0.1582  0.2254  0.0724
 9468TIP3    H128345   3.300   7.726   0.816  0.2812 -1.0798 -0.2341
 9468TIP3    H228346   3.428   7.749   0.893 -0.8397  2.8950  0.6814
 9469TIP3   OH228347   4.168   1.494   1.810  0.0204  0.1664 -0.0250
 9469TIP3    H128348   4.246   1.506   1.756 -1.5865  2.2049 -2.0339
 9469TIP3    H228349   4.114   1.431   1.762 -0.2368 -0.1135  0.6128
 9470TIP3   OH228350   3.357   1.735   5.825 -0.3107 -0.0332 -0.6499
 9470TIP3    H128351   3.393   1.675   5.760  0.0161 -1.6215  0.9289
 9470TIP3    H228352   3.431   1.756   5.882 -0.5459  1.5000 -0.8706
 9471TIP3   OH228353   3.116   2.611   0.397  0.5161 -0.2483  0.6233
 9471TIP3    H128354   3.041   2.612   0.337 -0.0767 -0.0343  1.3571
 9471TIP3    H228355   3.189   2.581   0.343  0.1402  0.5826 -0.3829
 9472TIP3   OH228356   3.893   0.742   0.219  0.3136 -0.3114  0.0334
 9472TIP3    H128357   3.866   0.730   0.310 -0.8596  3.0564  0.2582
 9472TIP3    H228358   3.818   0.709   0.168  0.8070 -1.8315  0.2497
 9473TIP3   OH228359   5.834   6.005   3.901 -0.2104 -0.1337  0.3444
 9473TIP3    H128360   5.741   5.987   3.886 -1.3232  3.2722  2.1617
 9473TIP3    H228361   5.845   5.995   3.996  0.8721  0.9848  0.3588
 9474TIP3   OH228362   4.854   1.643   2.346 -0.0526  0.6624  0.4664
 9474TIP3    H128363   4.779   1.701   2.359  0.9076  2.6829 -2.2995
 9474TIP3    H228364   4.852   1.621   2.253  1.0197 -1.8751  0.9595
 9475TIP3   OH228365   3.355   2.020   0.495  0.3447  0.0309 -0.1271
 9475TIP3    H128366   3.326   1.975   0.416 -0.5954  1.4374 -0.6400
 9475TIP3    H228367   3.440   2.057   0.473  0.4028 -0.1675 -0.2346
 9476TIP3   OH228368   7.503   4.568   0.889  0.1269  0.0389 -0.5635
 9476TIP3    H128369   7.562   4.510   0.842 -0.0406 -1.6099  1.1297
 9476TIP3    H228370   7.416   4.545   0.857  0.0021 -1.1710  0.5601
 9477TIP3   OH228371   1.034   0.123   5.101 -0.2252 -0.0507 -0.4307
 9477TIP3    H128372   1.026   0.031   5.125 -2.5347 -0.9671 -3.9685
 9477TIP3    H228373   1.088   0.122   5.021 -1.2115  1.4809 -1.1665
 9478TIP3   OH228374   3.020   2.969   0.256 -0.1610  0.2251 -0.2563
 9478TIP3    H128375   3.100   2.999   0.298  0.2594  1.4469 -1.8237
 9478TIP3    H228376   3.032   2.875   0.245  1.0593  0.3825 -0.4214
 9479TIP3   OH228377   2.172   5.944   2.648  0.1656  0.1237 -0.4830
 9479TIP3    H128378   2.089   5.987   2.633  0.7406  2.0794  1.4423
 9479TIP3    H228379   2.148   5.856   2.679 -1.0836  0.0297 -1.6068
 9480TIP3   OH228380   5.386   4.496   1.090  0.6372  0.3775  0.4572
 9480TIP3    H128381   5.466   4.516   1.139  1.5631 -0.6505 -0.5856
 9480TIP3    H228382   5.394   4.547   1.009 -0.5064  1.4472  0.9837
 9481TIP3   OH228383   0.543   6.913   1.739  0.8612 -0.0224  0.2371
 9481TIP3    H128384   0.530   6.856   1.663  0.5437  0.3083  0.0380
 9481TIP3    H228385   0.557   6.853   1.812 -0.8307 -0.4176  0.2919
 9482TIP3   OH228386   0.929   0.444   2.648 -0.0588 -0.0529 -0.5212
 9482TIP3    H128387   0.933   0.440   2.744  1.4162  1.9033 -0.4396
 9482TIP3    H228388   0.937   0.353   2.620  0.6464 -0.5703  1.2004
 9483TIP3   OH228389   7.902   6.421   3.057 -0.1294  0.0777 -0.9463
 9483TIP3    H128390   7.934   6.382   2.975  0.7671 -3.5345  0.8877
 9483TIP3    H228391   7.836   6.360   3.088  0.6628  0.4452  1.7471
 9484TIP3   OH228392   2.597   1.764   5.892 -0.1561 -0.1840 -0.2554
 9484TIP3    H128393   2.599   1.669   5.903  1.2248 -0.2864 -1.1838
 9484TIP3    H228394   2.621   1.778   5.801 -1.3035  1.0380 -0.3964
 9485TIP3   OH228395   6.449   6.949   4.748  0.4596 -0.3570 -0.2218
 9485TIP3    H128396   6.450   7.004   4.670  0.8445  1.0254  0.7242
 9485TIP3    H228397   6.509   6.992   4.809 -0.4396 -0.9334  1.1324
 9486TIP3   OH228398   6.350   3.068   4.459 -0.1619 -0.6132 -0.3396
 9486TIP3    H128399   6.281   3.134   4.468  1.8237  1.4033  0.8957
 9486TIP3    H228400   6.332   3.005   4.528 -1.1639 -0.5312 -0.5099
 9487TIP3   OH228401   3.193   3.417   1.809  0.1476  0.2771 -0.2386
 9487TIP3    H128402   3.118   3.359   1.823  0.0188  0.1938 -1.2500
 9487TIP3    H228403   3.204   3.461   1.894  0.3830 -1.3643  0.6229
 9488TIP3   OH228404   1.290   7.145   4.686  0.1860 -0.6089  0.4484
 9488TIP3    H128405   1.349   7.137   4.761  0.2828 -0.3870  0.3948
 9488TIP3    H228406   1.284   7.239   4.670 -1.5774 -0.4831  1.5587
 9489TIP3   OH228407   2.953   6.422   4.028 -0.8302 -0.3054  0.1709
 9489TIP3    H128408   2.898   6.495   3.999  0.3844  0.7367  0.4222
 9489TIP3    H228409   2.908   6.387   4.105 -0.8935  0.8515  0.6726
 9490TIP3   OH228410   1.187   7.119   1.140 -0.2197  0.3904 -0.1787
 9490TIP3    H128411   1.171   7.208   1.110  0.7380  0.5121 -0.3572
 9490TIP3    H228412   1.101   7.087   1.166 -0.9218  0.6467 -2.0240
 9491TIP3   OH228413   3.605   6.450   1.864 -0.5728  0.3794  0.4688
 9491TIP3    H128414   3.690   6.422   1.830  0.4301  1.3037  2.0453
 9491TIP3    H228415   3.550   6.459   1.787  1.2896  1.4956 -0.8389
 9492TIP3   OH228416   6.125   5.975   2.311 -0.2490  0.0817  0.9588
 9492TIP3    H128417   6.130   6.059   2.265 -1.7345 -0.6374 -0.6045
 9492TIP3    H228418   6.074   5.994   2.390 -3.5021  0.1096 -0.9770
 9493TIP3   OH228419   5.726   7.608   1.635 -0.4732  0.5287  0.0000
 9493TIP3    H128420   5.793   7.548   1.604 -0.4643 -1.2909  3.2036
 9493TIP3    H228421   5.775   7.679   1.678 -0.5700  1.2044 -0.9678
 9494TIP3   OH228422   6.087   5.436   2.852  0.1263 -0.3353 -0.0864
 9494TIP3    H128423   6.006   5.430   2.903  0.4864  0.7694  0.6550
 9494TIP3    H228424   6.157   5.438   2.918  0.5251  3.0808 -0.4236
 9495TIP3   OH228425   4.719   5.603   5.865  0.6652  0.8729 -0.5534
 9495TIP3    H128426   4.808   5.609   5.832 -0.1392  0.8208 -2.9326
 9495TIP3    H228427   4.672   5.552   5.799 -0.8443 -0.2690  1.2904
 9496TIP3   OH228428   4.825   2.004   6.002 -0.5847 -0.0574  0.0977
 9496TIP3    H128429   4.730   2.002   5.991 -0.6330  0.2506  0.4278
 9496TIP3    H228430   4.856   1.927   5.955 -0.7461  1.2503 -2.2913
 9497TIP3   OH228431   7.994   0.546   2.088  0.4280  0.0644 -0.4958
 9497TIP3    H128432   7.937   0.469   2.089 -0.0892  0.4522  0.1459
 9497TIP3    H228433   8.083   0.510   2.093  0.2036 -0.5030 -0.5629
 9498TIP3   OH228434   5.698   7.150   6.125  0.0752 -0.0271  0.2175
 9498TIP3    H128435   5.631   7.200   6.170 -1.4434 -1.7765  0.0188
 9498TIP3    H228436   5.732   7.210   6.059 -2.4077  0.4776 -0.7192
 9499TIP3   OH228437   0.849   0.178   6.848  0.5454  0.0144  0.3278
 9499TIP3    H128438   0.872   0.258   6.801  0.0238 -0.9855 -1.7425
 9499TIP3    H228439   0.924   0.120   6.835 -0.5335 -1.1065 -1.3809
 9500TIP3   OH228440   2.789   2.002   4.978  0.1751 -0.1037 -0.2867
 9500TIP3    H128441   2.862   1.943   4.994 -0.1523 -0.5613 -0.4574
 9500TIP3    H228442   2.719   1.971   5.036  0.5645  1.2045  0.9452
 9501TIP3   OH228443   1.919   6.064   2.396  0.0432 -0.1914 -0.0295
 9501TIP3    H128444   1.944   6.093   2.483  0.4202 -1.3490  0.2628
 9501TIP3    H228445   1.953   6.131   2.337 -1.2848  1.2637  0.7672
 9502TIP3   OH228446   5.209   4.520   5.580  0.2138 -0.6368  0.2382
 9502TIP3    H128447   5.287   4.534   5.526  0.5619 -0.3533  0.8049
 9502TIP3    H228448   5.153   4.596   5.562  0.1780 -0.7104  0.0301
 9503TIP3   OH228449   2.894   2.700   3.340 -0.5130 -0.2212 -0.3175
 9503TIP3    H128450   2.876   2.779   3.289  0.8053 -0.1226 -0.6816
 9503TIP3    H228451   2.820   2.642   3.322 -1.0891  0.6093 -0.6961
 9504TIP3   OH228452   3.180   3.036   4.155  0.1568 -0.1152  0.4422
 9504TIP3    H128453   3.197   3.008   4.245 -1.1536  1.0558  1.1016
 9504TIP3    H228454   3.246   3.104   4.139  0.2368 -0.1491  0.6201
 9505TIP3   OH228455   2.299   5.740   0.354  0.4244  0.8579 -0.5365
 9505TIP3    H128456   2.367   5.761   0.290  0.8412 -0.8620 -0.7039
 9505TIP3    H228457   2.341   5.751   0.439  0.1312  2.2734 -0.5497
 9506TIP3   OH228458   6.216   1.959   0.129  0.3845  0.1963 -0.9218
 9506TIP3    H128459   6.311   1.961   0.133  0.4504 -0.4932 -1.8752
 9506TIP3    H228460   6.192   2.019   0.058  0.1070  0.2743 -0.7685
 9507TIP3   OH228461   2.778   4.509   4.598 -0.2878  0.6214  0.1616
 9507TIP3    H128462   2.858   4.510   4.546 -0.4219 -0.6225 -0.1046
 9507TIP3    H228463   2.784   4.587   4.653 -0.2131  2.0291 -1.7880
 9508TIP3   OH228464   1.822   3.689   6.805  0.0461  0.1608 -0.7619
 9508TIP3    H128465   1.805   3.783   6.797 -0.4761 -0.0323 -2.1659
 9508TIP3    H228466   1.739   3.648   6.783  0.0069 -0.6437  0.7325
 9509TIP3   OH228467   5.021   7.160   5.515  0.1106 -0.6088 -0.3543
 9509TIP3    H128468   5.114   7.178   5.524 -0.0859  0.7593 -0.8615
 9509TIP3    H228469   5.015   7.104   5.437  0.6331 -2.0593  0.6094
 9510TIP3   OH228470   2.082   3.508   4.206  0.4935  0.1573 -0.4059
 9510TIP3    H128471   2.150   3.568   4.236  0.1103 -0.3917  1.7056
 9510TIP3    H228472   2.109   3.422   4.238  0.0182 -0.4769 -1.6442
 9511TIP3   OH228473   0.475   5.311   0.580 -0.0255  0.4351  0.3931
 9511TIP3    H128474   0.499   5.223   0.550 -1.0137  0.2179  0.2089
 9511TIP3    H228475   0.381   5.305   0.599 -0.3928  1.7636 -0.8073
 9512TIP3   OH228476   5.411   2.307   2.076 -0.4789  0.5892 -0.3142
 9512TIP3    H128477   5.428   2.364   2.151 -0.1602  1.2288 -0.8705
 9512TIP3    H228478   5.368   2.230   2.115 -1.7961  1.6078  0.3240
 9513TIP3   OH228479   2.106   2.127   4.602 -0.2817  0.1659 -0.3709
 9513TIP3    H128480   2.087   2.168   4.687 -1.5351  1.8598 -1.3906
 9513TIP3    H228481   2.201   2.122   4.599 -0.2056 -1.8266  1.9277
 9514TIP3   OH228482   5.187   6.105   2.703 -0.1839 -0.0114  0.4634
 9514TIP3    H128483   5.233   6.186   2.680 -0.0302  0.3348  1.8858
 9514TIP3    H228484   5.218   6.084   2.791 -3.1375  0.5532  1.7611
 9515TIP3   OH228485   1.761   7.458   0.293 -0.2217  0.3855  0.2730
 9515TIP3    H128486   1.746   7.547   0.260 -2.1108  0.4289  1.0974
 9515TIP3    H228487   1.830   7.423   0.237 -3.0572  0.4529 -3.7199
 9516TIP3   OH228488   8.016   4.877   4.528 -0.2672 -0.0674  0.4296
 9516TIP3    H128489   8.016   4.885   4.623  2.6066  0.9425  0.4435
 9516TIP3    H228490   8.050   4.961   4.497 -0.5398 -0.6098 -1.4700
 9517TIP3   OH228491   4.950   3.842   2.958  0.6187  0.3600  0.6845
 9517TIP3    H128492   4.903   3.782   3.016  0.3216 -0.2133 -0.1375
 9517TIP3    H228493   4.886   3.866   2.892  0.9262  1.1051  0.6549
 9518TIP3   OH228494   6.373   1.369   5.860 -0.6795 -0.0864  0.0166
 9518TIP3    H128495   6.448   1.380   5.919  0.0635  0.3630 -0.9725
 9518TIP3    H228496   6.307   1.324   5.913 -0.4917  1.3410  1.5366
 9519TIP3   OH228497   4.181   4.808   6.319 -0.2799 -0.1930  0.7234
 9519TIP3    H128498   4.262   4.765   6.295 -0.5804 -0.1659 -0.3887
 9519TIP3    H228499   4.118   4.737   6.330 -0.0169 -0.2443  1.9906
 9520TIP3   OH228500   0.098   1.351   6.681 -0.3255 -0.0407 -0.3802
 9520TIP3    H128501   0.021   1.305   6.716 -1.7121  0.3810 -2.6792
 9520TIP3    H228502   0.066   1.439   6.660  1.1756  0.6051 -0.0714
 9521TIP3   OH228503   5.026   4.746   5.543 -1.0512 -0.4857 -0.1661
 9521TIP3    H128504   5.066   4.825   5.508  0.6708 -0.1825  2.2061
 9521TIP3    H228505   4.965   4.778   5.610 -1.7207 -1.1229 -0.4592
 9522TIP3   OH228506   6.214   1.499   3.907 -0.4957 -0.0553 -0.0365
 9522TIP3    H128507   6.265   1.580   3.904 -0.7950  0.1194 -0.8272
 9522TIP3    H228508   6.205   1.479   4.000  2.7081 -1.2079  0.1289
 9523TIP3   OH228509   4.855   7.712   6.530 -0.0987 -0.1802 -0.9499
 9523TIP3    H128510   4.777   7.732   6.478 -1.2747 -0.1723  0.7391
 9523TIP3    H228511   4.869   7.790   6.584  1.7422  0.2448 -1.9678
 9524TIP3   OH228512   6.428   0.377   2.165 -0.1523 -0.2955 -0.3429
 9524TIP3    H128513   6.445   0.308   2.229 -2.1833 -0.7931 -0.2831
 9524TIP3    H228514   6.503   0.436   2.173  0.7819 -1.5711  0.8194
 9525TIP3   OH228515   0.100   6.862   2.478  0.6108 -0.1014 -0.1593
 9525TIP3    H128516   0.194   6.851   2.487  0.4371 -0.3024  1.8583
 9525TIP3    H228517   0.067   6.866   2.568 -1.3232 -0.1566 -0.8081
 9526TIP3   OH228518   1.833   6.467   1.897  0.6547  0.2666 -0.0033
 9526TIP3    H128519   1.835   6.532   1.967  0.5345 -0.5366  0.7583
 9526TIP3    H228520   1.809   6.386   1.940 -1.6745  0.1714 -1.3176
 9527TIP3   OH228521   4.628   1.921   1.059  0.1650 -0.2873 -0.3146
 9527TIP3    H128522   4.716   1.957   1.045  0.2072 -0.3793 -0.2897
 9527TIP3    H228523   4.625   1.899   1.152 -0.4504  1.2283  0.0637
 9528TIP3   OH228524   3.875   2.660   2.074 -0.1524  0.4977  0.5756
 9528TIP3    H128525   3.793   2.669   2.123 -0.1618  0.0819  0.6364
 9528TIP3    H228526   3.895   2.567   2.077 -0.3769  0.3975 -0.5667
 9529TIP3   OH228527   7.474   4.988   4.575  0.2110 -0.0464  0.3635
 9529TIP3    H128528   7.384   4.994   4.543  0.5428  0.9228 -0.4583
 9529TIP3    H228529   7.471   5.025   4.663  0.0389  1.3286 -0.1926
 9530TIP3   OH228530   0.112   5.763   4.240 -0.5925  0.1435 -0.0975
 9530TIP3    H128531   0.096   5.804   4.325  1.4458  0.9681 -0.0583
 9530TIP3    H228532   0.107   5.669   4.258  0.3479  0.2960  1.0624
 9531TIP3   OH228533   5.369   0.931   3.836  0.3707  0.2697 -0.7059
 9531TIP3    H128534   5.443   0.885   3.797  1.6118  1.6748 -0.1099
 9531TIP3    H228535   5.408   0.989   3.901 -1.1734  1.6113 -0.8945
 9532TIP3   OH228536   1.923   2.312   5.784 -0.1431 -0.5481 -0.1571
 9532TIP3    H128537   1.884   2.314   5.696  1.2256  0.0842 -0.7653
 9532TIP3    H228538   2.012   2.344   5.772  0.7131 -2.2527  1.1482
 9533TIP3   OH228539   7.679   5.655   5.850  0.1039 -0.4973 -0.5681
 9533TIP3    H128540   7.702   5.737   5.892 -3.0835  0.3643 -0.1851
 9533TIP3    H228541   7.705   5.587   5.912  0.5810  0.3936  0.2287
 9534TIP3   OH228542   2.027   1.551   5.529 -0.2882  0.2484  0.6235
 9534TIP3    H128543   2.081   1.474   5.511 -1.3582 -0.4034  0.0995
 9534TIP3    H228544   1.940   1.516   5.547 -1.6251  1.4274 -2.7574
 9535TIP3   OH228545   8.343   1.488   2.831  0.1580 -0.0899  0.0317
 9535TIP3    H128546   8.254   1.522   2.822 -0.7598 -2.3431 -0.0640
 9535TIP3    H228547   8.346   1.413   2.771  1.3029 -1.5103  1.7544
 9536TIP3   OH228548   7.421   5.964   5.829  0.0071 -0.4610  0.4436
 9536TIP3    H128549   7.505   6.009   5.843  0.5700 -1.0425 -0.9094
 9536TIP3    H228550   7.385   6.005   5.751  0.0584 -1.6679 -0.2280
 9537TIP3   OH228551   4.507   2.198   2.793  0.2004 -0.1638 -0.1355
 9537TIP3    H128552   4.566   2.158   2.730  0.7468 -1.1315  0.9805
 9537TIP3    H228553   4.553   2.195   2.876 -0.2540  1.6630  0.2376
 9538TIP3   OH228554   3.544   3.231   1.303 -0.8558  0.1329 -0.6873
 9538TIP3    H128555   3.497   3.289   1.363 -0.1172  0.0975 -0.0462
 9538TIP3    H228556   3.635   3.263   1.305  0.4924 -3.0979  2.5222
 9539TIP3   OH228557   4.338   6.026   4.646  0.0161  0.1574  0.0955
 9539TIP3    H128558   4.375   6.095   4.701 -1.4188  1.5948 -0.6435
 9539TIP3    H228559   4.292   6.074   4.576 -3.2446 -1.4169  0.9639
 9540TIP3   OH228560   2.993   0.857   1.801  0.2486  0.4356  0.0613
 9540TIP3    H128561   3.080   0.870   1.839 -0.0319  0.4433  0.7155
 9540TIP3    H228562   2.966   0.943   1.771 -0.3495  0.8314  1.6522
 9541TIP3   OH228563   8.135   1.816   3.049  0.5720  0.1475 -0.0259
 9541TIP3    H128564   8.161   1.888   2.992 -0.6680  1.0365  0.4681
 9541TIP3    H228565   8.147   1.850   3.138  2.7293 -1.3046  0.3181
 9542TIP3   OH228566   6.519   3.032   4.726 -0.5174  0.0149  0.5094
 9542TIP3    H128567   6.458   2.964   4.755 -0.8073  0.4218  0.8805
 9542TIP3    H228568   6.479   3.114   4.756 -0.4317  0.3892 -0.3799
 9543TIP3   OH228569   5.583   2.847   0.659 -0.0553  0.3495 -0.2363
 9543TIP3    H128570   5.659   2.798   0.627  1.3697  1.9072  0.6155
 9543TIP3    H228571   5.601   2.938   0.635 -1.9087  0.7064 -0.4507
 9544TIP3   OH228572   8.309   7.838   2.824  0.3758 -0.0988 -0.8832
 9544TIP3    H128573   8.261   7.917   2.850  0.9998 -0.2629  0.8794
 9544TIP3    H228574   8.251   7.794   2.763 -0.2545  1.3995 -1.4275
 9545TIP3   OH228575   4.751   0.225   0.477  0.6999  0.1700  0.0879
 9545TIP3    H128576   4.680   0.255   0.420  1.3371 -0.1422 -0.9061
 9545TIP3    H228577   4.707   0.184   0.551 -0.1665 -0.0584 -0.5391
 9546TIP3   OH228578   2.477   0.421   2.465  0.5918  0.3013  0.5941
 9546TIP3    H128579   2.537   0.400   2.537 -0.3798 -0.7721  1.1034
 9546TIP3    H228580   2.405   0.359   2.474  1.1763 -0.9643 -2.2317
 9547TIP3   OH228581   6.203   5.745   6.217  0.2528  0.6193 -0.2634
 9547TIP3    H128582   6.109   5.762   6.222 -0.0874 -0.6690 -1.7551
 9547TIP3    H228583   6.242   5.831   6.203 -0.7529  1.0940 -0.2225
 9548TIP3   OH228584   5.662   0.272   6.640  0.1664  0.3086  0.3257
 9548TIP3    H128585   5.606   0.209   6.596 -0.3471  0.9975 -0.0203
 9548TIP3    H228586   5.666   0.241   6.731  0.9129 -0.8892 -0.0921
 9549TIP3   OH228587   4.691   7.324   2.285  0.0037  0.4831 -0.2070
 9549TIP3    H128588   4.700   7.419   2.279 -2.6293  0.7270 -1.8739
 9549TIP3    H228589   4.597   7.308   2.279  0.2425 -2.1955  1.5098
 9550TIP3   OH228590   5.166   3.100   0.570  0.0258  0.2761  0.2662
 9550TIP3    H128591   5.207   3.014   0.567  1.2415  0.7900  1.3729
 9550TIP3    H228592   5.116   3.105   0.488 -0.1964 -1.5164  0.2498
 9551TIP3   OH228593   2.106   5.731   4.929 -0.0784 -0.0639 -0.1954
 9551TIP3    H128594   2.030   5.741   4.986 -1.0175 -2.6185 -0.8468
 9551TIP3    H228595   2.181   5.745   4.986 -1.0165  0.2567  0.9919
 9552TIP3   OH228596   2.866   3.097   6.180 -0.1026 -0.1742  0.0201
 9552TIP3    H128597   2.872   3.069   6.271  0.4109 -0.5152 -0.1184
 9552TIP3    H228598   2.806   3.034   6.140 -2.7656  1.6561  0.7687
 9553TIP3   OH228599   6.666   1.288   5.317 -0.0505 -0.3379 -0.2849
 9553TIP3    H128600   6.735   1.243   5.364  0.4814 -0.3760 -1.0889
 9553TIP3    H228601   6.664   1.247   5.230 -1.5198 -0.7831 -0.0713
 9554TIP3   OH228602   4.481   4.427   2.809  0.2290 -0.3778 -0.1555
 9554TIP3    H128603   4.426   4.348   2.812  0.8676 -0.8073  1.8159
 9554TIP3    H228604   4.425   4.497   2.841 -0.3338  0.0102 -1.8933
 9555TIP3   OH228605   4.747   6.141   5.864  0.4426  0.2617 -0.3915
 9555TIP3    H128606   4.756   6.140   5.768 -3.1122  0.5980 -0.8513
 9555TIP3    H228607   4.723   6.051   5.886  2.7802 -0.2158  0.4812
 9556TIP3   OH228608   3.029   2.916   6.690  0.2212  0.4384  0.1744
 9556TIP3    H128609   2.991   2.942   6.774 -0.2984 -1.1017  0.4472
 9556TIP3    H228610   3.078   2.836   6.709 -0.0518 -0.0376 -1.0299
 9557TIP3   OH228611   7.508   7.807   3.907 -0.1059 -0.2343  0.3296
 9557TIP3    H128612   7.416   7.830   3.893  0.0668  0.4710  0.2776
 9557TIP3    H228613   7.528   7.746   3.836 -0.4533 -0.1479  0.1528
 9558TIP3   OH228614   2.870   6.765   3.220 -1.3609 -0.0953 -0.1241
 9558TIP3    H128615   2.855   6.858   3.204 -2.7501 -0.4074 -0.7887
 9558TIP3    H228616   2.784   6.730   3.244 -0.8630 -1.2009  0.1389
 9559TIP3   OH228617   6.021   3.338   5.041  1.0238 -0.6004 -0.1305
 9559TIP3    H128618   6.081   3.283   5.093  1.8250 -0.4472 -0.8737
 9559TIP3    H228619   5.942   3.343   5.094  0.2836 -3.8173 -0.7139
 9560TIP3   OH228620   2.121   5.691   2.118 -0.2361  0.0707 -0.1139
 9560TIP3    H128621   2.142   5.734   2.201  0.1237  1.4808 -0.8960
 9560TIP3    H228622   2.099   5.763   2.059 -0.1403 -0.8758 -1.3363
 9561TIP3   OH228623   1.782   3.096   3.243 -0.1055 -0.2498 -0.1723
 9561TIP3    H128624   1.726   3.101   3.320 -1.1850 -0.0725 -0.9516
 9561TIP3    H228625   1.772   3.182   3.200 -0.5054 -0.7750 -1.1724
 9562TIP3   OH228626   5.249   7.497   0.140 -0.6802 -0.4245 -0.6762
 9562TIP3    H128627   5.219   7.588   0.133 -0.3987 -0.2656  0.0928
 9562TIP3    H228628   5.326   7.502   0.196 -0.6322 -1.1349 -0.6792
 9563TIP3   OH228629   0.731   3.809   2.366  0.1881 -0.6825 -0.3031
 9563TIP3    H128630   0.696   3.881   2.313 -0.0442 -0.4650  0.1426
 9563TIP3    H228631   0.821   3.835   2.386  0.0957 -0.5036 -0.1208
 9564TIP3   OH228632   2.119   0.476   3.645  0.1877  0.2096 -0.0775
 9564TIP3    H128633   2.093   0.429   3.724  1.6334 -1.5221 -0.5641
 9564TIP3    H228634   2.210   0.501   3.660 -0.0958  1.5151 -0.4600
 9565TIP3   OH228635   1.760   0.940   1.926  0.0794  0.2141  0.0296
 9565TIP3    H128636   1.799   1.014   1.881  0.8758 -0.9990 -1.3685
 9565TIP3    H228637   1.667   0.944   1.905  0.1685  0.6487 -0.2769
 9566TIP3   OH228638   3.056   4.024   1.363  0.8062 -0.3181 -0.5788
 9566TIP3    H128639   3.148   4.048   1.378  0.9842 -0.6290 -1.1748
 9566TIP3    H228640   3.048   4.014   1.268  0.2195 -0.5591 -0.5106
 9567TIP3   OH228641   3.096   7.846   0.733  0.3981  0.0142 -0.5289
 9567TIP3    H128642   3.020   7.846   0.675  0.4007  2.2678 -0.6061
 9567TIP3    H228643   3.096   7.933   0.773  1.5397 -0.8005  1.3587
 9568TIP3   OH228644   5.833   7.658   0.676  0.1468 -0.2339 -0.0676
 9568TIP3    H128645   5.788   7.664   0.760  0.7417  2.9065  0.1286
 9568TIP3    H228646   5.779   7.598   0.624 -1.8819  0.0814  1.5579
 9569TIP3   OH228647   1.507   3.806   2.906  0.0251 -0.1106  0.2439
 9569TIP3    H128648   1.432   3.764   2.948  0.2210 -0.2383  0.4690
 9569TIP3    H228649   1.496   3.899   2.925  1.1313 -0.3243  2.2715
 9570TIP3   OH228650   8.185   2.128   3.322  0.0473  0.3263 -0.3637
 9570TIP3    H128651   8.256   2.071   3.292  0.6741  0.3167  1.1031
 9570TIP3    H228652   8.105   2.077   3.306  0.3464  0.2851 -1.8992
 9571TIP3   OH228653   7.647   6.904   6.058 -0.2961 -0.1726 -0.3807
 9571TIP3    H128654   7.649   6.998   6.079  1.6197 -0.2840  0.1666
 9571TIP3    H228655   7.558   6.876   6.080 -0.2549  1.0775  1.6442
 9572TIP3   OH228656   1.152   5.841   6.440  0.7284  0.3935  0.4441
 9572TIP3    H128657   1.145   5.798   6.354  1.3377 -0.5781  0.8666
 9572TIP3    H228658   1.139   5.934   6.421  1.1830  0.2290 -0.7494
 9573TIP3   OH228659   1.858   1.686   5.259 -0.0318 -0.2053 -0.2200
 9573TIP3    H128660   1.851   1.773   5.219 -0.1631 -0.4303 -0.6989
 9573TIP3    H228661   1.799   1.689   5.334 -0.6124 -0.1208 -0.6726
 9574TIP3   OH228662   6.071   7.770   4.452 -0.1096  0.4536  0.0244
 9574TIP3    H128663   6.038   7.841   4.507  1.3900  1.2356 -0.0343
 9574TIP3    H228664   6.005   7.701   4.460  0.2799  0.3056  3.2571
 9575TIP3   OH228665   4.196   2.346   1.201  1.0908  0.2701  0.9651
 9575TIP3    H128666   4.213   2.437   1.177  0.8461 -0.0535 -0.5616
 9575TIP3    H228667   4.271   2.321   1.256  2.7438  0.5236 -1.0505
 9576TIP3   OH228668   8.156   5.716   6.682 -0.7046  0.2226 -0.4121
 9576TIP3    H128669   8.146   5.705   6.777  1.1017  0.5187 -0.1577
 9576TIP3    H228670   8.103   5.646   6.644 -0.9024 -0.3282  0.8281
 9577TIP3   OH228671   2.393   0.109   0.127 -0.2955 -0.4896 -0.3285
 9577TIP3    H128672   2.437   0.118   0.043  0.6479 -0.4701  0.1640
 9577TIP3    H228673   2.460   0.076   0.187 -0.1824  2.0956  1.0879
 9578TIP3   OH228674   0.705   7.542   6.034 -0.1794  0.2106 -0.2107
 9578TIP3    H128675   0.685   7.601   5.961  0.0016  0.7534  0.1768
 9578TIP3    H228676   0.799   7.530   6.030 -0.1957  0.0705 -0.1885
 9579TIP3   OH228677   7.837   0.445   4.749  0.3883  0.0007 -0.5622
 9579TIP3    H128678   7.903   0.490   4.802  0.8729  1.6551 -2.4421
 9579TIP3    H228679   7.876   0.440   4.662 -0.5836 -2.1807 -0.9342
 9580TIP3   OH228680   2.316   4.626   4.214 -0.5577  0.6749  1.0666
 9580TIP3    H128681   2.290   4.692   4.279 -1.5055  1.1122  0.2740
 9580TIP3    H228682   2.284   4.543   4.249 -1.0752  0.9091  1.1498
 9581TIP3   OH228683   7.875   3.755   2.054 -0.3864 -0.0398 -0.9906
 9581TIP3    H128684   7.871   3.730   2.147 -1.7133 -2.3705 -1.5863
 9581TIP3    H228685   7.955   3.712   2.022  0.5544  1.4918 -0.7835
 9582TIP3   OH228686   3.865   6.826   5.571 -0.9580 -0.0047 -0.4267
 9582TIP3    H128687   3.956   6.798   5.579 -1.3594 -1.4236 -0.4862
 9582TIP3    H228688   3.870   6.917   5.543  0.4437 -0.1700 -0.7928
 9583TIP3   OH228689   5.206   5.348   1.863  0.3390  0.1128 -0.9260
 9583TIP3    H128690   5.210   5.365   1.769  0.6197 -0.4019 -1.0134
 9583TIP3    H228691   5.190   5.254   1.870  0.1662  0.1707 -0.4583
 9584TIP3   OH228692   0.068   7.829   5.688 -0.7812  0.3107 -0.8607
 9584TIP3    H128693   0.127   7.905   5.690 -1.1335  0.5744  0.0034
 9584TIP3    H228694   0.050   7.815   5.595  0.7811  0.1085 -1.1575
 9585TIP3   OH228695   2.763   7.690   2.407 -0.2432 -0.0963 -0.1033
 9585TIP3    H128696   2.768   7.624   2.338  1.7209  0.1195 -0.2281
 9585TIP3    H228697   2.836   7.669   2.465 -1.0626  0.5325  1.2009
 9586TIP3   OH228698   2.575   3.686   6.525  0.0932  0.2876 -0.1406
 9586TIP3    H128699   2.655   3.640   6.498 -0.4350 -1.7314  1.4943
 9586TIP3    H228700   2.602   3.741   6.598 -0.2541 -2.0633  1.9335
 9587TIP3   OH228701   3.136   3.925   3.773  0.2584 -0.2912 -0.4971
 9587TIP3    H128702   3.098   3.838   3.774 -1.2556  0.2976  1.8467
 9587TIP3    H228703   3.080   3.976   3.715 -0.1879 -0.3616 -0.1313
 9588TIP3   OH228704   6.000   5.455   4.041 -0.4626  0.3091 -0.1203
 9588TIP3    H128705   5.962   5.543   4.040 -0.8892  0.1291 -1.0887
 9588TIP3    H228706   6.090   5.467   4.013 -0.8644  0.3112 -1.4818
 9589TIP3   OH228707   2.237   3.724   0.161  0.4366  0.1954 -0.4411
 9589TIP3    H128708   2.246   3.789   0.092 -1.3033  1.8816  0.7986
 9589TIP3    H228709   2.303   3.748   0.226  1.2639 -0.6523 -0.9504
 9590TIP3   OH228710   0.066   6.631   1.252 -0.3024 -0.1142 -0.3589
 9590TIP3    H128711  -0.015   6.668   1.217 -0.3444 -0.8105 -1.0231
 9590TIP3    H228712   0.077   6.673   1.337 -2.1771 -1.1408  0.4426
 9591TIP3   OH228713   0.376   0.721   6.216 -0.0262  1.0514  0.4561
 9591TIP3    H128714   0.290   0.762   6.219 -0.6292 -0.0762 -0.4673
 9591TIP3    H228715   0.363   0.640   6.166  1.2318  0.0464  1.6320
 9592TIP3   OH228716   1.191   3.021   2.278  0.1304 -0.6138 -0.1270
 9592TIP3    H128717   1.163   3.069   2.356  0.7108  1.4017 -1.0631
 9592TIP3    H228718   1.120   2.961   2.259 -1.2950  0.8333  0.4074
 9593TIP3   OH228719   1.032   3.150   1.228 -0.5949 -0.2155  0.1469
 9593TIP3    H128720   1.024   3.093   1.304  2.6480 -0.2518  0.5848
 9593TIP3    H228721   1.089   3.102   1.167  0.6278  1.6794 -0.2966
 9594TIP3   OH228722   2.560   4.384   3.687  0.5563  0.3950 -0.0762
 9594TIP3    H128723   2.634   4.346   3.733  1.6668  0.8804 -1.3761
 9594TIP3    H228724   2.549   4.330   3.609 -0.3071  0.4832 -0.0320
 9595TIP3   OH228725   4.877   6.227   0.648  0.7513 -0.3876  0.2566
 9595TIP3    H128726   4.803   6.183   0.608  2.2125 -2.7443 -0.0544
 9595TIP3    H228727   4.846   6.253   0.735 -0.6615 -0.5267 -0.1893
 9596TIP3   OH228728   1.104   6.504   0.331 -0.5497  0.5491 -0.1714
 9596TIP3    H128729   1.129   6.596   0.327  0.2571  0.4652  1.8026
 9596TIP3    H228730   1.185   6.458   0.352 -1.2023 -0.4348  0.2972
 9597TIP3   OH228731   3.907   2.022   3.403  0.3092 -0.0496  0.3748
 9597TIP3    H128732   3.889   2.021   3.497  0.1763 -0.5474  0.3460
 9597TIP3    H228733   3.969   2.094   3.391  2.3094 -1.5537  1.2075
 9598TIP3   OH228734   2.082   3.508   1.830 -0.4887  0.1834 -0.9412
 9598TIP3    H128735   2.163   3.457   1.820  0.1356  1.0840 -0.5863
 9598TIP3    H228736   2.054   3.491   1.920 -1.1687 -0.7805 -1.3124
 9599TIP3   OH228737   6.695   6.171   5.179  0.4494  0.1607  0.4251
 9599TIP3    H128738   6.607   6.134   5.190 -0.3251  0.6480 -2.9244
 9599TIP3    H228739   6.754   6.097   5.193 -0.7284 -1.0175 -0.4948
 9600TIP3   OH228740   8.096   2.537   3.283  0.6206 -0.5863  0.4431
 9600TIP3    H128741   8.097   2.551   3.378 -1.0082  1.3378  0.2368
 9600TIP3    H228742   8.012   2.573   3.254  1.6847  0.2072 -1.9261
 9601TIP3   OH228743   5.828   0.729   4.514  0.0718  0.1554  0.4147
 9601TIP3    H128744   5.743   0.718   4.471 -0.0619 -0.5210  0.8353
 9601TIP3    H228745   5.821   0.814   4.557  0.3587  1.0381 -1.2080
 9602TIP3   OH228746   3.798   3.464   1.115  0.1527  0.4606 -0.2957
 9602TIP3    H128747   3.733   3.511   1.062  1.8677  0.8320 -2.2082
 9602TIP3    H228748   3.872   3.452   1.056  1.4715 -0.7919  1.5158
 9603TIP3   OH228749   5.164   2.855   0.327 -0.2346  0.3411 -0.5912
 9603TIP3    H128750   5.228   2.863   0.398  1.0913 -0.5579 -1.6236
 9603TIP3    H228751   5.216   2.863   0.247 -1.3343 -0.9227 -1.4769
 9604TIP3   OH228752   0.101   6.755   4.027  0.4647 -0.3268  0.4546
 9604TIP3    H128753   0.047   6.676   4.032 -1.6518  0.9780 -0.2437
 9604TIP3    H228754   0.092   6.794   4.114  0.4840 -0.2431  0.4189
 9605TIP3   OH228755   6.170   6.786   3.197 -0.0648 -0.1425 -0.2377
 9605TIP3    H128756   6.247   6.823   3.155 -2.0981  1.4308 -2.9257
 9605TIP3    H228757   6.115   6.861   3.218 -1.1706 -1.2349  1.0077
 9606TIP3   OH228758   6.286   0.110   4.194 -0.6582  0.2693 -0.6303
 9606TIP3    H128759   6.213   0.133   4.251 -2.1225  1.0247 -2.7122
 9606TIP3    H228760   6.312   0.022   4.224 -1.8723  0.3070  0.6550
 9607TIP3   OH228761   0.787   6.193   3.250 -0.7263  0.4834  0.1301
 9607TIP3    H128762   0.860   6.208   3.311  0.5822 -1.0917 -0.9538
 9607TIP3    H228763   0.778   6.098   3.246  0.3710  0.3703 -3.3218
 9608TIP3   OH228764   6.557   6.080   2.378 -0.0277  0.7554 -0.7095
 9608TIP3    H128765   6.537   6.030   2.457  1.4209 -2.4572 -2.1797
 9608TIP3    H228766   6.643   6.119   2.395 -0.1624  0.8800 -0.3280
 9609TIP3   OH228767   7.326   4.570   1.487  0.5723  0.2927  0.0052
 9609TIP3    H128768   7.327   4.644   1.427  1.1814 -0.3320 -0.7729
 9609TIP3    H228769   7.256   4.591   1.549 -2.4055 -0.5399 -2.8125
 9610TIP3   OH228770   2.670   4.497   1.481  0.1918  0.2095 -0.2314
 9610TIP3    H128771   2.626   4.473   1.563 -2.0859 -0.0633 -1.4397
 9610TIP3    H228772   2.668   4.592   1.479 -1.9690  0.2282 -0.9665
 9611TIP3   OH228773   2.411   6.359   3.114  0.5306 -0.1910  0.5914
 9611TIP3    H128774   2.462   6.386   3.191  0.3282 -2.4290  1.5686
 9611TIP3    H228775   2.324   6.341   3.148  0.3762 -1.0011 -0.2009
 9612TIP3   OH228776   0.606   6.944   3.929  0.1877  0.1419  0.3299
 9612TIP3    H128777   0.576   7.023   3.883 -0.3343 -0.7045 -0.8147
 9612TIP3    H228778   0.555   6.873   3.891  1.7824 -0.9885  0.2011
 9613TIP3   OH228779   7.514   6.941   3.545  0.0325 -0.3998  0.1563
 9613TIP3    H128780   7.490   6.854   3.514 -0.7405  0.7848 -2.9854
 9613TIP3    H228781   7.609   6.945   3.534 -0.1732 -0.1456 -2.0446
 9614TIP3   OH228782   5.076   2.294   2.082 -0.3038 -0.6465  0.1707
 9614TIP3    H128783   5.146   2.229   2.082 -0.7990 -1.1838  0.3331
 9614TIP3    H228784   5.077   2.331   2.171 -0.4033 -0.8422  0.2524
 9615TIP3   OH228785   7.424   6.825   5.672 -0.3277  0.3780 -0.0961
 9615TIP3    H128786   7.401   6.896   5.733  3.2479  2.0216 -0.3474
 9615TIP3    H228787   7.430   6.868   5.587 -0.2456 -0.7183 -0.6547
 9616TIP3   OH228788   1.167   4.401   2.753 -0.4803  0.0949 -0.5950
 9616TIP3    H128789   1.189   4.337   2.821  0.6098  0.6870 -0.3616
 9616TIP3    H228790   1.095   4.452   2.790 -0.6758 -0.3319 -0.3716
 9617TIP3   OH228791   3.763   7.092   5.882 -0.2436  0.7259  0.7398
 9617TIP3    H128792   3.680   7.123   5.918 -0.3168  0.9609  0.3794
 9617TIP3    H228793   3.805   7.171   5.848  0.1356  0.6080  0.9379
 9618TIP3   OH228794   1.577   6.389   2.293  0.5091 -0.2242  0.1657
 9618TIP3    H128795   1.521   6.457   2.330 -0.7187 -0.3519 -1.3076
 9618TIP3    H228796   1.580   6.321   2.360  0.4124  0.5905  1.0128
 9619TIP3   OH228797   7.079   7.429   0.376 -0.1049 -0.3075 -0.0652
 9619TIP3    H128798   7.014   7.414   0.445 -0.2808 -0.2685 -0.2208
 9619TIP3    H228799   7.161   7.440   0.423 -0.2408 -0.1758  0.1472
 9620TIP3   OH228800   6.517   0.330   5.428 -0.1846 -0.0007  0.2982
 9620TIP3    H128801   6.567   0.398   5.383  0.1798 -0.4421  0.0270
 9620TIP3    H228802   6.469   0.377   5.496 -1.1291  0.7392 -0.8519
 9621TIP3   OH228803   4.249   0.066   4.047 -0.5895 -0.3872 -0.1005
 9621TIP3    H128804   4.299   0.117   4.111 -0.2546  0.4683 -1.0106
 9621TIP3    H228805   4.292  -0.020   4.047  0.6254  0.1933 -0.5305
 9622TIP3   OH228806   7.469   0.039   5.111 -0.1152 -0.0432  0.1506
 9622TIP3    H128807   7.480  -0.010   5.030 -0.0584  0.4916 -0.1711
 9622TIP3    H228808   7.418  -0.019   5.167  0.0586 -0.5192 -0.1724
 9623TIP3   OH228809   2.761   5.879   6.741 -0.0236  0.1780 -0.1988
 9623TIP3    H128810   2.701   5.837   6.679  0.6364 -0.0818 -0.6686
 9623TIP3    H228811   2.841   5.893   6.691  0.5687 -0.1565  0.6438
 9624TIP3   OH228812   1.662   1.551   2.840  0.0901  0.2778 -0.9360
 9624TIP3    H128813   1.635   1.474   2.791 -0.5702  0.1489 -0.3799
 9624TIP3    H228814   1.580   1.593   2.867  0.4334  0.3987 -0.0334
 9625TIP3   OH228815   7.921   7.760   4.448 -0.5541  0.4525  0.2662
 9625TIP3    H128816   7.945   7.722   4.364  0.1820  0.0949  0.6304
 9625TIP3    H228817   7.893   7.686   4.501  1.6205  0.2496  1.2394
 9626TIP3   OH228818   8.124   3.244   3.016 -0.1901  0.5437  0.2559
 9626TIP3    H128819   8.157   3.215   3.101 -0.0355 -1.4484 -0.4376
 9626TIP3    H228820   8.068   3.319   3.036 -1.7132 -1.0461  2.3541
 9627TIP3   OH228821   7.674   4.198   1.879 -0.3061  0.1603 -0.1048
 9627TIP3    H128822   7.604   4.163   1.933 -0.7191  0.4907 -0.4140
 9627TIP3    H228823   7.637   4.199   1.790  1.0596 -2.3245 -0.7830
 9628TIP3   OH228824   1.024   5.905   0.395 -0.0320 -0.0215 -0.0171
 9628TIP3    H128825   1.116   5.901   0.422 -0.1127  0.4575  0.3458
 9628TIP3    H228826   0.983   5.961   0.461 -0.0298  2.0319 -1.6615
 9629TIP3   OH228827   0.690   6.947   4.433  0.1915  0.2519  0.1101
 9629TIP3    H128828   0.719   6.901   4.511 -0.4828  1.4747  1.1079
 9629TIP3    H228829   0.645   7.024   4.465  0.5254  1.1706 -1.5028
 9630TIP3   OH228830   0.943   3.916   0.534  0.6526  1.0476 -0.4944
 9630TIP3    H128831   0.937   3.912   0.630  0.2345  1.1730 -0.5161
 9630TIP3    H228832   0.863   3.960   0.506  0.1382 -0.1638 -0.9960
 9631TIP3   OH228833   3.080   4.594   0.983 -0.3305  0.0717  0.1631
 9631TIP3    H128834   3.169   4.626   0.999 -0.1596  0.1944 -0.9572
 9631TIP3    H228835   3.025   4.651   1.037  0.4532 -2.0202  3.4610
 9632TIP3   OH228836   8.159   5.936   1.480 -0.6270 -0.0066  0.1563
 9632TIP3    H128837   8.118   5.981   1.554  0.2624 -0.0235  0.6821
 9632TIP3    H228838   8.232   5.993   1.456 -0.7834 -0.1109 -0.5811
 9633TIP3   OH228839   4.025   4.748   4.706  0.2844 -0.8330  0.1094
 9633TIP3    H128840   4.078   4.700   4.642  0.1676  0.1745 -0.7791
 9633TIP3    H228841   4.085   4.815   4.740  0.4907 -1.6678  1.4352
 9634TIP3   OH228842   7.019   5.557   2.808 -0.8677  0.2475  0.0629
 9634TIP3    H128843   6.974   5.488   2.859 -1.1557  0.0589 -0.4406
 9634TIP3    H228844   7.028   5.519   2.721  0.6369  0.1305  0.2473
 9635TIP3   OH228845   0.915   3.998   1.029  0.1381 -0.0261  0.1411
 9635TIP3    H128846   0.978   4.067   1.052 -0.5099  0.7322 -0.3165
 9635TIP3    H228847   0.968   3.932   0.984  0.6223  0.5852 -0.2165
 9636TIP3   OH228848   7.414   7.331   3.285 -0.0328 -0.4831 -0.6609
 9636TIP3    H128849   7.347   7.395   3.259  0.1927 -0.8901 -2.3633
 9636TIP3    H228850   7.364   7.252   3.308 -0.1790 -0.9976 -2.5449
 9637TIP3   OH228851   0.834   0.173   5.606  0.0765 -0.0967 -0.6840
 9637TIP3    H128852   0.809   0.265   5.598 -0.1880 -0.0196  0.7191
 9637TIP3    H228853   0.873   0.167   5.694 -1.0913 -1.5727 -0.2358
 9638TIP3   OH228854   3.299   6.440   3.116 -0.2871 -0.1982  0.4593
 9638TIP3    H128855   3.275   6.530   3.135  0.8660  0.1031  0.5381
 9638TIP3    H228856   3.227   6.407   3.062 -0.6497  0.8056  0.3112
 9639TIP3   OH228857   7.009   3.149   5.235 -0.3135  0.3670 -0.1543
 9639TIP3    H128858   7.052   3.209   5.174 -1.1106  1.6406  0.4927
 9639TIP3    H228859   6.986   3.073   5.182  1.8334  0.0547 -0.7264
 9640TIP3   OH228860   7.555   4.719   2.959 -0.0422  0.0996 -0.1782
 9640TIP3    H128861   7.577   4.729   2.866  0.9242 -1.7196 -0.1984
 9640TIP3    H228862   7.632   4.754   3.005  0.0473 -0.2162 -0.0902
 9641TIP3   OH228863   3.139   2.710   4.391 -0.1742  0.3710  1.1695
 9641TIP3    H128864   3.218   2.658   4.374  0.2333  1.1322  0.6531
 9641TIP3    H228865   3.170   2.801   4.391 -1.1706  0.7297  0.1557
 9642TIP3   OH228866   1.782   3.786   1.119 -0.0740 -0.2786 -0.0092
 9642TIP3    H128867   1.806   3.744   1.201  1.3357 -0.0193 -0.2665
 9642TIP3    H228868   1.837   3.864   1.115 -1.0822  0.4277 -0.5786
 9643TIP3   OH228869   3.303   6.810   4.688 -0.1351 -0.4132  0.0091
 9643TIP3    H128870   3.369   6.813   4.619 -0.8868  0.1108 -0.7055
 9643TIP3    H228871   3.325   6.882   4.747  0.6466 -1.0067  0.4623
 9644TIP3   OH228872   8.368   6.911   1.369  0.4390  0.1654 -0.4124
 9644TIP3    H128873   8.288   6.961   1.350  0.2861 -1.0772 -3.9035
 9644TIP3    H228874   8.353   6.873   1.455 -1.7604  1.7477 -0.0066
 9645TIP3   OH228875   0.608   0.153   2.630  0.6722 -0.4962  0.2330
 9645TIP3    H128876   0.540   0.122   2.570 -1.2570  1.0016  1.5121
 9645TIP3    H228877   0.609   0.089   2.701 -0.1037 -0.0334  0.6721
 9646TIP3   OH228878   4.001   7.127   6.491 -0.4907  0.1298 -0.3060
 9646TIP3    H128879   3.950   7.125   6.410 -0.5021 -0.6434 -0.2884
 9646TIP3    H228880   3.949   7.076   6.553 -0.4818  0.7171  0.1904
 9647TIP3   OH228881   5.621   1.670   0.960 -0.4155 -0.0748 -0.9109
 9647TIP3    H128882   5.695   1.612   0.947 -0.7786 -0.5636 -0.7994
 9647TIP3    H228883   5.636   1.709   1.047 -2.1226 -2.9319  0.8011
 9648TIP3   OH228884   0.223   0.945   1.742 -0.1689  0.2309  0.4683
 9648TIP3    H128885   0.200   0.865   1.790  0.9215  0.3868  1.2862
 9648TIP3    H228886   0.318   0.954   1.755 -0.4331  2.2416  1.3020
 9649TIP3   OH228887   6.177   0.868   2.617  0.0785 -0.1153 -0.1726
 9649TIP3    H128888   6.140   0.877   2.529  0.5799  0.5441 -0.3230
 9649TIP3    H228889   6.214   0.780   2.618  0.5989  0.0866 -0.8367
 9650TIP3   OH228890   0.695   1.834   6.043  0.2461 -0.0493  0.1275
 9650TIP3    H128891   0.643   1.862   6.119 -0.7105 -1.5938  0.0880
 9650TIP3    H228892   0.683   1.739   6.039  3.0141 -0.4632  0.0223
 9651TIP3   OH228893   4.504   2.419   4.800  0.0559  0.1363  0.1874
 9651TIP3    H128894   4.434   2.356   4.816 -1.1659  1.0847 -1.1901
 9651TIP3    H228895   4.506   2.430   4.705  1.4323  0.8661  0.2663
 9652TIP3   OH228896   1.176   1.111   5.391 -0.2477 -0.5172  0.5976
 9652TIP3    H128897   1.123   1.062   5.453 -1.3199 -0.2255 -0.0611
 9652TIP3    H228898   1.263   1.072   5.397 -0.2700 -0.3467  2.4210
 9653TIP3   OH228899   7.475   5.279   3.048  0.1132  0.0651  0.0885
 9653TIP3    H128900   7.527   5.230   2.985 -0.3978  0.5292 -0.7059
 9653TIP3    H228901   7.389   5.288   3.008  0.1495  1.4875  0.2621
 9654TIP3   OH228902   3.900   6.170   3.971 -0.6014 -0.2982  0.4829
 9654TIP3    H128903   3.965   6.165   4.042  0.3462  0.5127 -0.2994
 9654TIP3    H228904   3.868   6.260   3.974 -0.9146 -0.3983  0.1849
 9655TIP3   OH228905   5.303   6.347   4.546 -0.0755  0.6315 -0.4622
 9655TIP3    H128906   5.384   6.327   4.499 -0.2018 -1.2704  0.0424
 9655TIP3    H228907   5.331   6.368   4.635  0.0274  2.6017 -0.9081
 9656TIP3   OH228908   6.995   0.047   5.565 -0.4808 -0.2392 -0.5604
 9656TIP3    H128909   6.993   0.051   5.469  2.3070  2.4637 -0.6923
 9656TIP3    H228910   7.067  -0.013   5.585 -0.8755 -0.5830 -0.1585
 9657TIP3   OH228911   2.044   5.557   3.918  0.1726  0.4384  0.0670
 9657TIP3    H128912   1.975   5.603   3.965 -1.7327 -0.2331 -1.8672
 9657TIP3    H228913   2.035   5.466   3.947  0.5763  0.4334  0.1735
 9658TIP3   OH228914   5.085   7.903   5.564  0.1496 -0.1227 -0.1339
 9658TIP3    H128915   5.108   7.903   5.657  0.7701 -0.8482 -0.2780
 9658TIP3    H228916   4.989   7.895   5.563  0.1040  0.3046  0.4422
 9659TIP3   OH228917   5.394   1.056   4.582  0.4348 -0.3731 -0.1825
 9659TIP3    H128918   5.474   1.014   4.549  0.2818 -1.5074  0.8160
 9659TIP3    H228919   5.347   0.986   4.628  0.0132  0.8182  1.3027
 9660TIP3   OH228920   2.732   1.682   6.815 -0.1646  0.2218 -0.1836
 9660TIP3    H128921   2.692   1.644   6.737 -2.0699 -1.2573  1.3932
 9660TIP3    H228922   2.751   1.606   6.871  1.7114  1.1942  0.5694
 9661TIP3   OH228923   6.429   2.375   6.266 -0.0394  0.0719 -0.0647
 9661TIP3    H128924   6.448   2.355   6.174  0.9924 -0.5981  0.2818
 9661TIP3    H228925   6.450   2.468   6.275 -0.4468  0.2224 -0.5661
 9662TIP3   OH228926   7.981   1.003   4.194  0.1811  0.2769 -0.1331
 9662TIP3    H128927   7.995   0.908   4.184 -1.4951  0.0717 -0.8703
 9662TIP3    H228928   7.886   1.013   4.193  0.3301  1.9687  0.1319
 9663TIP3   OH228929   3.305   4.931   2.282 -0.0227 -0.5568  0.3512
 9663TIP3    H128930   3.291   4.935   2.377  0.5436 -2.0657  0.5220
 9663TIP3    H228931   3.378   4.990   2.266 -0.7473  0.4715  0.6964
 9664TIP3   OH228932   1.174   0.450   6.451 -0.2722 -0.2446 -0.2883
 9664TIP3    H128933   1.154   0.523   6.510 -1.2605 -0.4541 -0.3451
 9664TIP3    H228934   1.206   0.491   6.371 -0.7326  0.1235 -0.2836
 9665TIP3   OH228935   2.642   5.270   4.415  0.0238 -0.4233  0.0076
 9665TIP3    H128936   2.680   5.331   4.353  0.7929 -0.4266  0.4600
 9665TIP3    H228937   2.548   5.285   4.410  0.1710  0.4704 -0.2262
 9666TIP3   OH228938   2.237   7.230   4.173  0.2223 -0.6804 -0.1500
 9666TIP3    H128939   2.230   7.249   4.080  1.2480 -1.5213 -0.4121
 9666TIP3    H228940   2.322   7.264   4.199 -0.0895 -0.3690  0.5183
 9667TIP3   OH228941   8.038   7.026   3.912  0.2312 -0.6361 -0.0883
 9667TIP3    H128942   8.087   7.098   3.951 -0.3447  0.1621 -0.7844
 9667TIP3    H228943   8.012   7.059   3.826 -0.0652 -1.6757 -0.4099
 9668TIP3   OH228944   2.558   5.192   3.086 -0.3328  0.5712  0.3563
 9668TIP3    H128945   2.517   5.130   3.146 -0.4453 -1.6367 -1.8385
 9668TIP3    H228946   2.560   5.275   3.134 -1.9744 -0.6462  2.7001
 9669TIP3   OH228947   6.937   2.953   5.057 -0.5350  0.1638  0.0188
 9669TIP3    H128948   6.986   2.913   4.985  2.5867  2.5404  0.6044
 9669TIP3    H228949   6.905   2.879   5.109  0.4862 -1.5430 -1.6684
 9670TIP3   OH228950   3.922   4.007   2.710  0.1484 -0.1221 -0.2540
 9670TIP3    H128951   3.977   4.062   2.654  0.5864 -1.0525 -0.7587
 9670TIP3    H228952   3.902   3.931   2.656 -0.4892 -0.4460  0.4221
 9671TIP3   OH228953   3.770   5.846   1.131  0.3718 -0.0178  0.3381
 9671TIP3    H128954   3.807   5.934   1.135 -1.5002  0.7608  1.7846
 9671TIP3    H228955   3.691   5.855   1.077  1.8235 -1.5307 -2.2321
 9672TIP3   OH228956   6.301   0.288   5.092 -0.0521  0.2330  0.4717
 9672TIP3    H128957   6.276   0.260   5.004 -0.1223 -0.8425  0.8199
 9672TIP3    H228958   6.366   0.357   5.077 -1.3078  1.2833 -0.4140
 9673TIP3   OH228959   5.466   0.552   5.376  0.6004  0.2824 -0.0552
 9673TIP3    H128960   5.558   0.550   5.400  0.4442 -0.4593  0.5453
 9673TIP3    H228961   5.463   0.603   5.295  1.5477  0.2277 -0.1372
 9674TIP3   OH228962   0.294   7.620   4.403 -0.1530  0.5833  0.1054
 9674TIP3    H128963   0.329   7.698   4.447  1.3577 -0.3910  0.7262
 9674TIP3    H228964   0.244   7.575   4.471  0.3835  0.1825  0.2499
 9675TIP3   OH228965   5.774   1.063   6.385  0.3496  0.6900 -0.0676
 9675TIP3    H128966   5.823   1.145   6.384 -0.1848  1.0436 -2.1613
 9675TIP3    H228967   5.841   0.995   6.372  0.5635  0.9996 -0.6555
 9676TIP3   OH228968   6.776   2.231   3.644 -0.5476  0.3349  0.0698
 9676TIP3    H128969   6.746   2.154   3.692  0.5333  0.0178  0.2727
 9676TIP3    H228970   6.822   2.283   3.710  0.3312  0.2470 -0.4666
 9677TIP3   OH228971   5.231   4.750   0.512  0.4019  0.1959  0.4418
 9677TIP3    H128972   5.140   4.753   0.541  0.0533  0.6667 -0.6760
 9677TIP3    H228973   5.249   4.657   0.499  0.7311 -0.0980  2.5836
 9678TIP3   OH228974   6.562   0.080   2.472  0.0206 -0.0110  0.0148
 9678TIP3    H128975   6.485   0.075   2.415 -0.3959 -0.3167  0.5902
 9678TIP3    H228976   6.637   0.079   2.412 -0.4399  2.6724 -0.7222
 9679TIP3   OH228977   1.077   5.273   2.254 -0.0677 -0.5590  0.2422
 9679TIP3    H128978   1.040   5.311   2.333  2.7500 -1.6497  2.2452
 9679TIP3    H228979   1.014   5.294   2.185 -2.0860  1.4283  2.5239
 9680TIP3   OH228980   1.444   2.838   5.496 -0.2755  0.2448 -0.2766
 9680TIP3    H128981   1.539   2.826   5.505 -0.3425 -0.3841 -0.3814
 9680TIP3    H228982   1.434   2.887   5.414 -0.1335 -1.3412 -1.2930
 9681TIP3   OH228983   1.975   3.247   1.008 -0.2251 -0.5434 -0.4745
 9681TIP3    H128984   1.987   3.342   1.002  0.2877 -0.5372  0.4214
 9681TIP3    H228985   1.986   3.216   0.918  1.0370  0.0941 -0.5594
 9682TIP3   OH228986   2.021   5.197   6.523 -0.7860 -0.3833 -0.5494
 9682TIP3    H128987   2.081   5.185   6.596 -1.4536  0.7118  0.2027
 9682TIP3    H228988   2.028   5.289   6.501 -1.1860 -0.5351 -1.3524
 9683TIP3   OH228989   1.433   7.135   5.214 -0.0940 -0.1075  0.2681
 9683TIP3    H128990   1.527   7.117   5.225 -0.3989 -0.8500  1.9985
 9683TIP3    H228991   1.415   7.206   5.276 -0.5464  0.5226 -0.5752
 9684TIP3   OH228992   0.142   7.110   5.955 -0.0016 -0.6655 -0.3852
 9684TIP3    H128993   0.227   7.091   5.917  0.0534  0.5707 -0.9370
 9684TIP3    H228994   0.159   7.125   6.048  0.3545 -0.5709 -0.4669
 9685TIP3   OH228995   1.175   4.755   4.480 -0.1266 -0.1320 -0.1780
 9685TIP3    H128996   1.104   4.708   4.524 -0.8214  0.2779 -0.8120
 9685TIP3    H228997   1.202   4.822   4.542 -2.0116  1.3197 -0.8029
 9686TIP3   OH228998   5.884   2.194   0.719 -0.3053  0.1317  0.4008
 9686TIP3    H128999   5.955   2.203   0.655  1.1006 -2.0981  1.5245
 9686TIP3    H229000   5.911   2.251   0.792 -1.0808  1.3881 -0.2624
 9687TIP3   OH229001   2.499   7.130   0.869  0.2072  0.3483  0.1730
 9687TIP3    H129002   2.537   7.055   0.824  2.0307  1.5942 -0.5093
 9687TIP3    H229003   2.523   7.205   0.815 -2.5773  1.3594  0.1859
 9688TIP3   OH229004  -0.006   3.318   6.835 -0.0381 -0.4299 -0.4087
 9688TIP3    H129005   0.026   3.359   6.915 -0.4734  0.5104 -0.6989
 9688TIP3    H229006   0.035   3.231   6.834  0.6070 -0.1480  0.4192
 9689TIP3   OH229007   1.261   6.822   2.692  0.2768 -0.3439  0.1975
 9689TIP3    H129008   1.291   6.839   2.781 -0.6318 -0.6910  0.5890
 9689TIP3    H229009   1.240   6.908   2.657  2.4973  0.0114 -0.4103
 9690TIP3   OH229010   0.527   4.017   6.848  0.6965 -0.4419  0.1963
 9690TIP3    H129011   0.596   4.001   6.783  0.0290 -0.0778 -0.6222
 9690TIP3    H229012   0.469   3.942   6.840  1.0205 -0.7757  0.9278
 9691TIP3   OH229013   6.936   0.609   0.063  0.4456  0.1626  0.2373
 9691TIP3    H129014   6.958   0.702   0.056 -0.2355  0.2373 -1.5672
 9691TIP3    H229015   6.840   0.608   0.070  0.4938 -0.3926  0.9312
 9692TIP3   OH229016   8.346   4.729   2.461 -0.4009  0.2776 -0.9378
 9692TIP3    H129017   8.316   4.648   2.502 -0.3819 -0.0617 -1.5771
 9692TIP3    H229018   8.336   4.796   2.529  1.4161 -0.5972  0.2546
 9693TIP3   OH229019   3.092   3.133   1.812 -0.2809  0.0172  0.1609
 9693TIP3    H129020   3.064   3.069   1.747  0.4583 -0.1949  0.0390
 9693TIP3    H229021   3.135   3.082   1.880  1.9164  0.4973 -0.7946
 9694TIP3   OH229022   4.861   1.923   5.054  0.0130 -0.3199  0.0525
 9694TIP3    H129023   4.955   1.943   5.052  0.2577 -0.8607  2.5974
 9694TIP3    H229024   4.857   1.827   5.058 -0.6182 -0.2877  0.3439
 9695TIP3   OH229025   8.216   0.077   1.775 -0.2746 -0.1177  0.5214
 9695TIP3    H129026   8.297   0.070   1.724 -0.3385 -1.2120  0.5512
 9695TIP3    H229027   8.179   0.162   1.750 -0.9956 -1.1433 -2.3027
 9696TIP3   OH229028   2.820   1.243   0.703  0.1854 -0.0635 -0.4890
 9696TIP3    H129029   2.746   1.283   0.748  0.1986 -0.3627 -0.1995
 9696TIP3    H229030   2.815   1.277   0.614 -0.2122  0.0336 -0.4308
 9697TIP3   OH229031   2.737   4.978   6.709 -0.3731  0.1771 -0.2794
 9697TIP3    H129032   2.727   5.029   6.629 -0.9719 -0.3390 -0.5333
 9697TIP3    H229033   2.688   5.027   6.775 -0.3894  0.2787 -0.3674
 9698TIP3   OH229034   7.149   1.581   4.569 -0.8253  0.2011  0.0450
 9698TIP3    H129035   7.134   1.596   4.475 -0.4746  0.3120  0.0051
 9698TIP3    H229036   7.061   1.576   4.606 -0.9676  0.0828 -0.3013
 9699TIP3   OH229037   5.682   2.634   0.124  0.1712  0.4679  0.0311
 9699TIP3    H129038   5.647   2.612   0.038 -2.4590  1.2098  0.8140
 9699TIP3    H229039   5.721   2.552   0.155  0.2087 -0.0970 -1.4052
 9700TIP3   OH229040   2.092   3.510   2.981 -0.3698 -0.4394  0.2483
 9700TIP3    H129041   2.066   3.477   3.067  0.3428  0.9944  1.0571
 9700TIP3    H229042   2.010   3.527   2.935 -0.7526 -1.8241  0.3777
 9701TIP3   OH229043   4.281   5.957   0.678 -0.0647  0.7364  0.2639
 9701TIP3    H129044   4.310   5.892   0.614  1.2034  1.0420  0.5003
 9701TIP3    H229045   4.205   5.917   0.720  1.5937 -1.3376  1.5179
 9702TIP3   OH229046   3.920   3.393   3.036  0.2419 -0.3414  0.9231
 9702TIP3    H129047   3.926   3.301   3.063 -0.3150 -0.6887 -0.0736
 9702TIP3    H229048   3.831   3.402   3.001  1.5363 -0.6009 -2.9556
 9703TIP3   OH229049   2.250   0.616   4.669 -0.1697  0.4008 -0.3569
 9703TIP3    H129050   2.270   0.710   4.675  0.4320  0.4254 -2.0447
 9703TIP3    H229051   2.265   0.583   4.757  0.1581  1.7906  0.1429
 9704TIP3   OH229052   7.111   0.711   6.868 -0.3023  0.5334  0.6994
 9704TIP3    H129053   7.199   0.702   6.832 -0.1542  0.8836  0.9593
 9704TIP3    H229054   7.055   0.659   6.811  0.0560  0.4123  0.4588
 9705TIP3   OH229055   4.510   5.348   6.556  0.0607 -0.0201 -0.1892
 9705TIP3    H129056   4.584   5.402   6.583 -0.8271  1.3773 -0.4052
 9705TIP3    H229057   4.450   5.351   6.631 -0.6657  0.5821 -0.7801
 9706TIP3   OH229058   2.217   4.514   2.280 -0.4752  0.0223 -0.1878
 9706TIP3    H129059   2.164   4.562   2.216  0.6429  0.7498 -0.5915
 9706TIP3    H229060   2.273   4.580   2.319 -0.1280 -0.6726  0.5095
 9707TIP3   OH229061   0.387   6.168   5.155  0.1008  0.2067  0.3057
 9707TIP3    H129062   0.295   6.144   5.167 -0.0815  0.2463 -0.9384
 9707TIP3    H229063   0.385   6.259   5.127  0.3616 -0.4521 -1.9880
 9708TIP3   OH229064   4.505   5.247   4.905 -0.3064  0.4044 -0.3645
 9708TIP3    H129065   4.571   5.315   4.890  0.2912 -0.0629  0.1083
 9708TIP3    H229066   4.429   5.275   4.853 -0.4466  1.9812  0.6153
 9709TIP3   OH229067   3.854   3.049   1.240 -0.3397 -0.2802 -0.1196
 9709TIP3    H129068   3.916   3.087   1.302 -0.7600  0.8498 -0.3731
 9709TIP3    H229069   3.891   3.068   1.154 -1.3413  0.9940 -0.2943
 9710TIP3   OH229070   6.604   0.943   3.804  0.2114 -0.4287 -0.4302
 9710TIP3    H129071   6.636   0.904   3.885  0.0121  0.3459  0.0345
 9710TIP3    H229072   6.542   1.010   3.832  1.0384  0.6874 -1.1735
 9711TIP3   OH229073   5.745   1.773   4.936 -0.0922  0.1413 -0.3164
 9711TIP3    H129074   5.660   1.776   4.893 -0.2608 -1.0787 -0.0942
 9711TIP3    H229075   5.727   1.799   5.026 -0.0668  0.7440 -0.4764
 9712TIP3   OH229076   8.171   4.184   6.121 -0.1443  0.7970  0.0011
 9712TIP3    H129077   8.265   4.191   6.138 -0.0439  0.0276 -0.1803
 9712TIP3    H229078   8.165   4.136   6.039 -0.7091 -0.0872  0.5393
 9713TIP3   OH229079   7.613   5.788   3.000  0.4560  0.2197 -0.1479
 9713TIP3    H129080   7.599   5.758   3.089 -0.4603  1.1618  0.0388
 9713TIP3    H229081   7.527   5.818   2.970  0.9831  1.0011 -0.9374
 9714TIP3   OH229082   1.193   1.968   1.910  0.6001  0.2587 -0.1565
 9714TIP3    H129083   1.106   2.007   1.911  0.4968  0.0827 -1.1006
 9714TIP3    H229084   1.228   1.989   1.823  0.5771 -1.6388 -0.6800
 9715TIP3   OH229085   1.501   3.404   2.463 -0.0102  0.0970 -0.8308
 9715TIP3    H129086   1.504   3.321   2.512  0.5574  1.0069  0.7491
 9715TIP3    H229087   1.427   3.394   2.403 -1.2302 -0.7981  0.7560
 9716TIP3   OH229088   0.608   6.399   0.581  0.5887 -0.1400 -0.3284
 9716TIP3    H129089   0.529   6.432   0.623 -0.5440 -0.8127 -1.8504
 9716TIP3    H229090   0.588   6.401   0.487  2.2635 -0.6289 -0.7261
 9717TIP3   OH229091   2.062   5.533   3.129 -0.0964  0.1051  0.6576
 9717TIP3    H129092   2.081   5.549   3.221  1.7265  2.6479 -0.0617
 9717TIP3    H229093   2.033   5.617   3.094  0.0956 -0.5605 -1.2825
 9718TIP3   OH229094   3.643   2.869   1.954 -0.0040 -0.0240 -0.3022
 9718TIP3    H129095   3.661   2.846   2.046 -0.2077  0.0937 -0.2322
 9718TIP3    H229096   3.551   2.848   1.942  0.1354 -0.4603 -0.6099
 9719TIP3   OH229097   1.540   4.279   0.520  0.3100  0.5433 -0.1988
 9719TIP3    H129098   1.510   4.226   0.446  1.1681  0.3967 -0.4560
 9719TIP3    H229099   1.459   4.312   0.560 -0.2023 -0.1988 -0.5870
 9720TIP3   OH229100   6.523   6.139   6.832  0.5614  0.2242 -0.0759
 9720TIP3    H129101   6.436   6.100   6.819  0.6501 -0.4665  1.1841
 9720TIP3    H229102   6.517   6.184   6.917  1.0435  1.3281 -0.6131
 9721TIP3   OH229103   2.357   0.965   0.020  0.2797  0.7649 -0.1461
 9721TIP3    H129104   2.291   0.945   0.086  0.1628  0.6180 -0.3074
 9721TIP3    H229105   2.441   0.958   0.066  0.4433 -2.3415 -0.6862
 9722TIP3   OH229106   5.842   1.958   2.873  0.5027 -0.1313 -0.3420
 9722TIP3    H129107   5.773   2.004   2.826 -1.7816 -0.0374  2.7852
 9722TIP3    H229108   5.913   2.022   2.880 -1.1614  1.6935  0.7436
 9723TIP3   OH229109   0.329   2.295   1.521  0.5212 -0.1813 -0.0892
 9723TIP3    H129110   0.420   2.300   1.491  1.2718  0.8245  2.1177
 9723TIP3    H229111   0.283   2.247   1.452  2.6713 -0.5375 -1.3600
 9724TIP3   OH229112   7.707   5.064   5.013 -0.1229  0.1449  0.2325
 9724TIP3    H129113   7.777   5.039   5.074  0.3414  0.5123 -0.1430
 9724TIP3    H229114   7.635   5.004   5.034  0.3726 -0.3741  0.4893
 9725TIP3   OH229115   4.403   5.259   0.255  0.1507  0.1421 -0.6634
 9725TIP3    H129116   4.396   5.164   0.240 -0.2821 -0.0374  0.6407
 9725TIP3    H229117   4.365   5.298   0.176 -1.6995 -0.7820 -0.2768
 9726TIP3   OH229118   0.793   1.441   5.513  0.0165  0.3548  0.1325
 9726TIP3    H129119   0.755   1.369   5.564  0.2022  0.9915  1.2007
 9726TIP3    H229120   0.863   1.476   5.569  1.4851 -0.0947 -1.3337
 9727TIP3   OH229121   1.441   2.213   6.842 -0.0128 -0.2700 -0.6643
 9727TIP3    H129122   1.515   2.230   6.784  1.8462 -0.6387  1.4541
 9727TIP3    H229123   1.431   2.118   6.843  0.2463 -0.2940 -0.0665
 9728TIP3   OH229124   4.868   0.047   6.227  0.3648  0.1393  0.2651
 9728TIP3    H129125   4.912   0.010   6.304  0.0144 -0.2903  0.2634
 9728TIP3    H229126   4.776   0.021   6.237  0.7289 -2.2189 -1.6361
 9729TIP3   OH229127   0.155   1.107   3.123 -0.0898  0.2047 -0.7209
 9729TIP3    H129128   0.226   1.048   3.149 -2.2363 -2.7060 -1.0163
 9729TIP3    H229129   0.132   1.080   3.035 -2.6607 -0.1588 -0.0189
 9730TIP3   OH229130   5.769   1.223   0.665 -0.2429 -0.6172  0.3582
 9730TIP3    H129131   5.736   1.258   0.582 -0.9524  0.7196  1.1570
 9730TIP3    H229132   5.697   1.237   0.727 -0.0010 -2.2413  1.0670
 9731TIP3   OH229133   7.534   7.050   3.818 -0.4623  0.2897  0.1227
 9731TIP3    H129134   7.605   7.057   3.882 -0.5176  2.5203  0.0246
 9731TIP3    H229135   7.578   7.020   3.738 -0.6451 -4.2302  1.4464
 9732TIP3   OH229136   0.071   5.032   4.776 -0.1184 -0.1263  0.1021
 9732TIP3    H129137   0.010   5.066   4.842  1.0074  2.1550  0.0717
 9732TIP3    H229138   0.016   5.001   4.705 -1.2943 -0.2275  1.0362
 9733TIP3   OH229139   5.011   2.933   2.544 -0.6140 -0.0393 -0.4734
 9733TIP3    H129140   5.080   2.890   2.493  0.8804  1.1237  0.4761
 9733TIP3    H229141   4.953   2.862   2.571  0.8716 -1.2386 -0.3087
 9734TIP3   OH229142   1.870   5.762   5.072  0.2191  0.0704  0.2981
 9734TIP3    H129143   1.882   5.840   5.126  0.2380  0.6027 -0.4720
 9734TIP3    H229144   1.780   5.735   5.090 -0.1569  0.9116 -0.2628
 9735TIP3   OH229145   6.673   5.073   2.601  0.7351 -0.6386 -0.1318
 9735TIP3    H129146   6.726   4.994   2.607  1.1346 -0.3818 -0.2679
 9735TIP3    H229147   6.642   5.074   2.510  0.4495 -0.8144 -0.0393
 9736TIP3   OH229148   3.350   7.334   3.173 -0.2155  0.3231 -0.0126
 9736TIP3    H129149   3.310   7.311   3.257  0.0507 -0.6178 -0.1352
 9736TIP3    H229150   3.442   7.308   3.182 -0.6922 -2.1945 -1.4618
 9737TIP3   OH229151   5.305   1.618   0.397 -0.7765 -0.7457  0.2545
 9737TIP3    H129152   5.282   1.527   0.416 -1.6473 -0.7213 -0.6190
 9737TIP3    H229153   5.399   1.617   0.383 -1.0066 -1.8105 -1.3833
 9738TIP3   OH229154   3.835   6.432   1.423  0.1412 -0.0044  0.1722
 9738TIP3    H129155   3.898   6.470   1.362  0.8196  0.1213  0.9336
 9738TIP3    H229156   3.875   6.349   1.450  1.2115  1.1734  2.5328
 9739TIP3   OH229157   2.343   1.712   0.730  0.0001  0.9093 -0.0609
 9739TIP3    H129158   2.375   1.658   0.658 -0.0332  2.3505 -1.1900
 9739TIP3    H229159   2.416   1.770   0.752  0.8327 -0.9364  2.6184
 9740TIP3   OH229160   1.309   7.368   5.842 -0.1828 -0.1255  0.7706
 9740TIP3    H129161   1.399   7.387   5.869 -0.5793  1.0615  1.3403
 9740TIP3    H229162   1.260   7.363   5.924 -0.6540 -0.7471  0.4619
 9741TIP3   OH229163   5.847   4.352   1.231 -0.2198 -0.0836  0.3592
 9741TIP3    H129164   5.752   4.339   1.222 -0.0246 -0.0569 -2.6687
 9741TIP3    H229165   5.857   4.446   1.246 -0.6606 -0.1856  1.4219
 9742TIP3   OH229166   6.668   1.425   0.980 -0.0545 -0.0172  0.1885
 9742TIP3    H129167   6.590   1.370   0.979 -0.3732  0.4080 -1.0972
 9742TIP3    H229168   6.672   1.462   0.892  0.9630  0.8731  0.5826
 9743TIP3   OH229169   6.851   7.731   4.934  0.2630  0.7646  0.1046
 9743TIP3    H129170   6.817   7.726   5.023 -0.1774  2.1916  0.0307
 9743TIP3    H229171   6.946   7.719   4.944  0.2081  0.8311  0.7540
 9744TIP3   OH229172   0.184   6.115   2.351 -0.5155  0.1487  0.7223
 9744TIP3    H129173   0.091   6.133   2.335  0.2872  2.2197 -2.5292
 9744TIP3    H229174   0.206   6.168   2.428 -1.6585  1.0729  0.4460
 9745TIP3   OH229175   3.362   0.558   1.884  0.0710  0.3700  0.7619
 9745TIP3    H129176   3.287   0.524   1.836  0.7900  2.9780 -2.6023
 9745TIP3    H229177   3.434   0.499   1.862  0.2616  1.2235 -1.0712
 9746TIP3   OH229178  -0.012   0.660   3.749 -0.4785 -0.2977 -0.2524
 9746TIP3    H129179  -0.003   0.734   3.809 -1.1722 -0.2518 -0.1947
 9746TIP3    H229180   0.034   0.588   3.792 -2.7917 -0.8812  1.4185
 9747TIP3   OH229181   5.885   6.651   1.511  0.3984 -0.2097  0.1083
 9747TIP3    H129182   5.808   6.623   1.560 -0.1632  1.2541  0.1112
 9747TIP3    H229183   5.932   6.711   1.570  0.1780  0.8879 -0.7857
 9748TIP3   OH229184   2.565   0.042   5.131  0.0955  0.3628 -0.0540
 9748TIP3    H129185   2.630   0.099   5.090 -0.4140  0.9043 -0.1238
 9748TIP3    H229186   2.492   0.100   5.153 -0.3885 -0.2431 -0.0235
 9749TIP3   OH229187   5.845   1.475   2.355  0.3715 -0.2368  0.5565
 9749TIP3    H129188   5.866   1.568   2.342 -1.4886  0.0132 -1.2527
 9749TIP3    H229189   5.770   1.476   2.415  0.3292 -0.5805  0.5092
 9750TIP3   OH229190   6.228   1.871   5.029 -0.1170  0.5448 -0.2275
 9750TIP3    H129191   6.319   1.894   5.049  0.2001 -0.4629 -0.4545
 9750TIP3    H229192   6.184   1.956   5.018  0.4886  1.0836  1.1789
 9751TIP3   OH229193   0.838   3.358   2.808 -0.6675 -0.2876 -0.1366
 9751TIP3    H129194   0.819   3.415   2.733 -1.1213 -0.6410 -0.2898
 9751TIP3    H229195   0.777   3.285   2.799 -0.2237 -0.7034  0.1714
 9752TIP3   OH229196   1.274   5.174   0.368  0.6469 -0.9047 -0.3135
 9752TIP3    H129197   1.260   5.125   0.449 -0.3993 -2.6893 -1.4832
 9752TIP3    H229198   1.264   5.265   0.392  0.5341 -1.3836  1.5821
 9753TIP3   OH229199   7.093   1.195   3.114 -0.2204  0.2093 -0.1922
 9753TIP3    H129200   7.169   1.158   3.069  0.8987  0.5481  1.3392
 9753TIP3    H229201   7.096   1.156   3.202 -0.9766  1.3265  0.3552
 9754TIP3   OH229202   4.558   3.541   1.804  0.3255  0.6624  0.0440
 9754TIP3    H129203   4.554   3.535   1.900 -0.9644 -0.9037 -0.0523
 9754TIP3    H229204   4.502   3.469   1.774  0.9803  0.9127 -1.8981
 9755TIP3   OH229205   2.039   7.540   3.154 -0.1326 -0.0038 -1.0739
 9755TIP3    H129206   2.047   7.447   3.132  0.9653 -0.3505  0.5885
 9755TIP3    H229207   1.997   7.541   3.240  0.2184  1.0129 -0.8970
 9756TIP3   OH229208   1.709   3.312   4.902 -0.4893 -0.2727 -0.1290
 9756TIP3    H129209   1.695   3.265   4.819 -0.8023  0.7117 -0.6517
 9756TIP3    H229210   1.746   3.246   4.961 -1.2358 -1.2685 -0.7300
 9757TIP3   OH229211   7.269   6.126   0.331 -0.4403  0.3482 -0.3759
 9757TIP3    H129212   7.294   6.035   0.348  0.6253  0.5495 -0.7576
 9757TIP3    H229213   7.174   6.128   0.344 -0.4320 -0.7377 -0.0316
 9758TIP3   OH229214   0.646   0.754   3.119  0.0988  0.1526 -0.5346
 9758TIP3    H129215   0.727   0.733   3.166  0.2044 -0.5222 -0.9964
 9758TIP3    H229216   0.637   0.683   3.055 -0.5225  0.5669 -0.9140
 9759TIP3   OH229217   4.962   2.375   0.935 -0.3236 -0.3621  0.2311
 9759TIP3    H129218   5.033   2.422   0.979 -1.1938  0.0860  1.2034
 9759TIP3    H229219   4.995   2.360   0.846  1.1414 -0.5391  0.7699
 9760TIP3   OH229220   3.099   1.684   4.658 -0.3698  0.7560  0.3610
 9760TIP3    H129221   3.140   1.601   4.635 -1.7799  0.0622  0.2961
 9760TIP3    H229222   3.153   1.750   4.614  0.0355 -0.2006 -0.6226
 9761TIP3   OH229223   0.490   4.105   2.969 -0.0179  0.0806 -0.5306
 9761TIP3    H129224   0.470   4.194   2.940  0.2915  0.5568  0.6518
 9761TIP3    H229225   0.586   4.101   2.973 -0.0431 -0.0012  0.2691
 9762TIP3   OH229226   3.266   6.728   6.470  0.0805 -0.1787  0.3180
 9762TIP3    H129227   3.176   6.756   6.453 -0.1359 -1.1578 -0.2339
 9762TIP3    H229228   3.261   6.678   6.551 -0.1938 -1.5924 -0.5239
 9763TIP3   OH229229   6.311   6.522   5.812  0.0578  0.0175  0.2144
 9763TIP3    H129230   6.314   6.477   5.727  0.0222  1.1163 -0.3894
 9763TIP3    H229231   6.224   6.502   5.846  0.3416 -1.0463  0.3522
 9764TIP3   OH229232   0.656   5.372   3.341 -0.1244 -0.6803  0.1735
 9764TIP3    H129233   0.574   5.408   3.306  0.1615 -0.6146 -0.4457
 9764TIP3    H229234   0.672   5.294   3.288  1.5440  0.6995 -1.5058
 9765TIP3   OH229235   4.283   6.303   5.314 -0.0653  0.1288  0.5007
 9765TIP3    H129236   4.266   6.270   5.226  0.3603 -1.4606  0.9891
 9765TIP3    H229237   4.208   6.272   5.366  0.0111  0.5025  0.8375
 9766TIP3   OH229238   2.700   4.061   5.271 -0.1477 -0.1130 -0.1593
 9766TIP3    H129239   2.743   4.125   5.328 -0.8147 -0.4536  0.7463
 9766TIP3    H229240   2.704   3.979   5.320 -3.1452  0.1266  0.7203
 9767TIP3   OH229241   3.586   6.391   5.463 -0.1399 -0.1188  0.3697
 9767TIP3    H129242   3.637   6.469   5.444 -0.7025  0.2725  0.4314
 9767TIP3    H229243   3.568   6.352   5.378 -0.3605  0.1512  0.2889
 9768TIP3   OH229244   6.376   0.669   4.822 -0.2213 -0.4071 -0.3016
 9768TIP3    H129245   6.330   0.730   4.879  0.4055 -1.4056  1.3451
 9768TIP3    H229246   6.312   0.601   4.803 -0.5687  0.1527 -1.1994
 9769TIP3   OH229247   0.975   7.326   6.675  0.6047  0.0559 -0.4289
 9769TIP3    H129248   0.997   7.320   6.768 -1.1565 -0.1173  0.0032
 9769TIP3    H229249   1.040   7.387   6.639  2.0488 -0.7704  0.6454
 9770TIP3   OH229250   7.633   0.689   3.475 -0.1104  0.1909 -0.2009
 9770TIP3    H129251   7.579   0.763   3.502  0.0414  0.2356 -0.0224
 9770TIP3    H229252   7.711   0.729   3.436 -0.1432  0.1258 -0.3360
 9771TIP3   OH229253   5.715   6.787   6.460 -0.0484 -0.0800 -0.3056
 9771TIP3    H129254   5.679   6.713   6.410  1.5081 -0.2022 -1.3108
 9771TIP3    H229255   5.721   6.754   6.549 -1.2338 -0.4670 -0.3414
 9772TIP3   OH229256   2.935   4.167   5.722  0.1132 -0.3446 -0.9549
 9772TIP3    H129257   3.021   4.174   5.680 -0.1567 -0.8651 -1.6155
 9772TIP3    H229258   2.886   4.241   5.686  0.0916 -0.4085 -1.0582
 9773TIP3   OH229259   1.178   5.954   0.673 -0.1321 -0.2912 -0.0425
 9773TIP3    H129260   1.120   5.928   0.745 -0.1912 -0.1370 -0.0331
 9773TIP3    H229261   1.138   6.033   0.638  0.4763  0.2531  0.4477
 9774TIP3   OH229262   6.081   0.801   0.691  0.0411 -0.6140 -0.3932
 9774TIP3    H129263   6.075   0.724   0.634 -0.7963 -0.4423 -0.5545
 9774TIP3    H229264   6.114   0.871   0.635 -1.5074 -0.2466 -0.9049
 9775TIP3   OH229265   6.814  -0.009   3.280  0.3861  0.6954  0.2769
 9775TIP3    H129266   6.738   0.043   3.304 -0.2269 -0.6680  1.4238
 9775TIP3    H229267   6.884   0.055   3.267 -0.9201  1.9871 -0.8356
 9776TIP3   OH229268   7.602   1.981   1.499 -0.2866  0.5840 -0.0230
 9776TIP3    H129269   7.620   1.913   1.564  1.3234  0.9267 -0.0752
 9776TIP3    H229270   7.593   2.061   1.551  0.9976  0.8578 -0.1844
 9777TIP3   OH229271   8.196   6.813   6.086 -0.3941  0.1162  0.4852
 9777TIP3    H129272   8.227   6.860   6.008 -0.2059  2.1881  1.7272
 9777TIP3    H229273   8.101   6.814   6.077 -0.4202  1.2195  0.7167
 9778TIP3   OH229274   4.908   1.661   4.259  0.2920  0.0464  0.0855
 9778TIP3    H129275   4.873   1.578   4.226  1.2323 -0.9737  1.5646
 9778TIP3    H229276   4.853   1.727   4.218 -0.3810 -1.2804 -1.2791
 9779TIP3   OH229277   1.147   4.098   4.248 -0.5582  0.3063  0.3568
 9779TIP3    H129278   1.191   4.032   4.194 -1.0969 -0.2597  0.5857
 9779TIP3    H229279   1.204   4.174   4.245  0.6108 -0.5093  0.9295
 9780TIP3   OH229280   2.468   0.034   4.561  0.5822  0.1217 -0.3582
 9780TIP3    H129281   2.415   0.095   4.612  0.4061 -0.9247  0.7763
 9780TIP3    H229282   2.412  -0.042   4.548  1.1547 -0.2396 -0.8068
 9781TIP3   OH229283   0.104   6.939   5.668  0.5204  0.2655  0.6567
 9781TIP3    H129284   0.115   7.016   5.612 -1.4255  0.9457  1.1490
 9781TIP3    H229285   0.060   6.973   5.746 -0.7491 -1.4155  0.7114
 9782TIP3   OH229286   7.756   2.928   5.224 -0.1244  0.4698 -0.0784
 9782TIP3    H129287   7.732   2.838   5.206  2.2782 -0.1415 -0.6023
 9782TIP3    H229288   7.840   2.940   5.179  0.8496  2.1842  1.9993
 9783TIP3   OH229289   5.329   5.375   6.382  0.3678 -0.5226  0.1258
 9783TIP3    H129290   5.238   5.403   6.387 -0.0976 -1.5730 -1.5077
 9783TIP3    H229291   5.367   5.425   6.310  0.0524 -2.5253 -1.5397
 9784TIP3   OH229292   1.104   6.672   4.111  0.0276 -0.2736  0.1089
 9784TIP3    H129293   1.189   6.639   4.138  0.1792  0.2857  0.3339
 9784TIP3    H229294   1.045   6.597   4.120  0.2105 -0.2905  1.3396
 9785TIP3   OH229295   3.254   0.275   2.973  0.4351 -0.4506 -0.0559
 9785TIP3    H129296   3.273   0.302   2.884  0.1625  0.4591  0.1495
 9785TIP3    H229297   3.261   0.180   2.972  0.2175 -0.4608 -1.0955
 9786TIP3   OH229298   7.364   2.760   1.395 -0.1691  0.0641 -0.4771
 9786TIP3    H129299   7.424   2.771   1.321 -0.3033 -0.6823 -0.7033
 9786TIP3    H229300   7.353   2.665   1.403 -1.5740  0.1966 -0.6436
 9787TIP3   OH229301   2.964   4.804   6.230 -0.1574  0.4040  0.2011
 9787TIP3    H129302   2.948   4.743   6.303 -0.7947  0.3234 -0.0099
 9787TIP3    H229303   3.059   4.799   6.217  0.1239  1.1933  1.7038
 9788TIP3   OH229304   0.675   6.315   3.021 -0.3088  0.2455 -0.1924
 9788TIP3    H129305   0.677   6.277   3.108 -1.2243  0.9113  0.1396
 9788TIP3    H229306   0.650   6.407   3.035  0.4495  0.6084 -1.0769
 9789TIP3   OH229307   2.510   2.583   6.712 -0.4866  0.2177 -0.6248
 9789TIP3    H129308   2.533   2.669   6.677  0.3047  0.6314  0.8156
 9789TIP3    H229309   2.558   2.521   6.657  0.7405  0.8376 -0.2972
 9790TIP3   OH229310   6.786   3.002   5.533  0.9948 -0.2957  0.4846
 9790TIP3    H129311   6.821   3.091   5.534  0.6247 -0.1455  0.1892
 9790TIP3    H229312   6.710   3.006   5.475  0.8656 -0.7633  0.6136
 9791TIP3   OH229313   6.652   5.893   5.681  0.1811 -0.5198 -0.2141
 9791TIP3    H129314   6.718   5.825   5.670  0.3016 -1.0727  2.8772
 9791TIP3    H229315   6.701   5.969   5.712 -0.2931  0.0683 -0.8710
 9792TIP3   OH229316   6.271   5.350   1.375 -0.6530 -0.2310 -0.0163
 9792TIP3    H129317   6.253   5.358   1.469  0.4312  0.8171  0.1298
 9792TIP3    H229318   6.305   5.436   1.350 -0.5592 -0.6250 -1.2883
 9793TIP3   OH229319   7.270   4.998   0.110 -0.3506 -0.0418 -0.1266
 9793TIP3    H129320   7.310   4.919   0.146 -0.2445  0.2259  0.3494
 9793TIP3    H229321   7.337   5.034   0.052 -0.0158  0.2288  0.4175
 9794TIP3   OH229322   5.974   6.905   2.633 -0.3122 -0.5706 -0.5869
 9794TIP3    H129323   6.027   6.835   2.595 -0.9423 -0.3020 -2.0301
 9794TIP3    H229324   5.912   6.928   2.564 -2.6358 -1.1898  1.1684
 9795TIP3   OH229325   5.878  -0.001   2.530  0.3687 -0.5493 -0.2919
 9795TIP3    H129326   5.915  -0.060   2.595  2.1497  0.3836 -0.4025
 9795TIP3    H229327   5.829   0.063   2.582  0.1936 -0.8923 -0.0256
 9796TIP3   OH229328   6.062   6.413   1.803 -0.1842  0.4537  0.4491
 9796TIP3    H129329   6.049   6.408   1.708 -1.2662 -1.8625  0.6515
 9796TIP3    H229330   5.999   6.478   1.833 -0.2628  0.7591 -0.3469
 9797TIP3   OH229331   0.920   7.791   5.482 -0.2875  0.2865  0.2752
 9797TIP3    H129332   0.985   7.783   5.553 -0.4954 -1.4371  0.3178
 9797TIP3    H229333   0.846   7.835   5.522 -1.3573 -2.7407  1.8987
 9798TIP3   OH229334   0.274   5.707   5.608  0.5428 -0.0811  0.2421
 9798TIP3    H129335   0.328   5.632   5.633  0.5371  0.5098  2.2399
 9798TIP3    H229336   0.315   5.742   5.530  1.2984 -1.4031  0.0254
 9799TIP3   OH229337   7.744   1.854   3.489 -0.0310  0.5036 -0.5874
 9799TIP3    H129338   7.700   1.807   3.561  1.0286  1.2159  0.5663
 9799TIP3    H229339   7.748   1.790   3.418 -2.2046  0.1610 -0.4835
 9800TIP3   OH229340   5.153   5.152   0.795  0.3528 -0.0165  0.0659
 9800TIP3    H129341   5.074   5.122   0.749  0.7135 -0.8599 -0.0144
 9800TIP3    H229342   5.127   5.236   0.834 -0.1785  0.3650 -1.0613
 9801TIP3   OH229343   2.268   6.628   1.540  0.1536  0.1645 -0.3418
 9801TIP3    H129344   2.190   6.684   1.537  0.8387  1.1166 -0.6239
 9801TIP3    H229345   2.253   6.571   1.615 -1.6611 -0.9355 -1.4566
 9802TIP3   OH229346   6.184   5.768   0.572 -0.1729 -0.1411  0.6264
 9802TIP3    H129347   6.230   5.788   0.653  1.5881  0.2615 -0.4216
 9802TIP3    H229348   6.219   5.683   0.545  0.1101  0.2488 -0.2768
 9803TIP3   OH229349   2.925   3.104   4.447 -0.5621  0.4279  0.5041
 9803TIP3    H129350   2.933   3.114   4.352 -1.8208  0.5730  0.3887
 9803TIP3    H229351   2.932   3.193   4.482  0.0655  0.3560  0.5665
 9804TIP3   OH229352   4.618   1.686   5.845  0.2621  0.0361 -0.2353
 9804TIP3    H129353   4.633   1.690   5.939 -2.1307  0.9863  0.1874
 9804TIP3    H229354   4.589   1.596   5.829  0.8849 -0.1896 -0.1186
 9805TIP3   OH229355   7.775   4.395   6.112 -0.0000 -0.5039  0.0436
 9805TIP3    H129356   7.835   4.396   6.186  0.5283 -0.2857 -0.3750
 9805TIP3    H229357   7.830   4.418   6.036 -1.2681  4.0409  0.1708
 9806TIP3   OH229358   3.903   0.478   2.199 -0.2529 -0.1125  0.0645
 9806TIP3    H129359   3.950   0.492   2.117  1.3720 -0.4832  0.8906
 9806TIP3    H229360   3.959   0.517   2.266 -0.6395 -1.4117  1.1958
 9807TIP3   OH229361   4.485   6.370   6.668  0.0147 -0.1893  0.0684
 9807TIP3    H129362   4.528   6.425   6.733 -1.2504  1.2304 -0.2492
 9807TIP3    H229363   4.509   6.410   6.584 -0.3196 -0.5641 -0.2066
 9808TIP3   OH229364   2.499   7.521   6.570 -0.2849 -0.1463  0.3579
 9808TIP3    H129365   2.442   7.450   6.601 -0.1012 -0.6272 -0.3726
 9808TIP3    H229366   2.491   7.517   6.475  0.2806  0.3610  0.2892
 9809TIP3   OH229367   1.681   6.555   6.198  0.0031  0.0710 -0.2635
 9809TIP3    H129368   1.605   6.529   6.251  0.8560  1.6351  1.8994
 9809TIP3    H229369   1.665   6.516   6.112 -3.1815  0.2532  0.1274
 9810TIP3   OH229370   7.591   3.933   6.385  0.0786  0.6707 -0.2372
 9810TIP3    H129371   7.558   3.951   6.297 -1.6799 -0.8977  0.0356
 9810TIP3    H229372   7.654   4.003   6.402 -0.3366  1.6200 -2.3112
 9811TIP3   OH229373   4.282   3.678   3.258  0.4174 -0.1345 -0.1563
 9811TIP3    H129374   4.321   3.636   3.181  1.0771 -0.4716  0.3594
 9811TIP3    H229375   4.197   3.635   3.268  0.5793 -0.5035 -0.3409
 9812TIP3   OH229376   5.234   6.890   2.136 -0.1013  0.3374  0.2562
 9812TIP3    H129377   5.196   6.935   2.211 -0.3120  0.1619  0.2571
 9812TIP3    H229378   5.160   6.845   2.095 -0.0696  0.8101 -0.3287
 9813TIP3   OH229379   2.549   2.908   0.260 -0.2626  0.1085  0.0609
 9813TIP3    H129380   2.551   2.963   0.181  1.2580 -1.0348 -0.7557
 9813TIP3    H229381   2.641   2.899   0.285 -0.6506 -0.3503  1.4133
 9814TIP3   OH229382   7.641   2.889   1.407  0.6396 -0.0707 -0.4976
 9814TIP3    H129383   7.706   2.820   1.394  0.9910 -0.0102  0.7892
 9814TIP3    H229384   7.589   2.859   1.482 -1.8319 -0.8356 -2.3812
 9815TIP3   OH229385   3.443   5.682   5.947  0.5669 -0.0629 -0.2000
 9815TIP3    H129386   3.514   5.620   5.964  0.0455 -0.8927 -0.9930
 9815TIP3    H229387   3.411   5.704   6.035  0.8619 -0.7930  0.1064
 9816TIP3   OH229388   1.222   2.283   5.096  0.4709 -0.3565 -0.4955
 9816TIP3    H129389   1.301   2.230   5.106 -0.3264 -1.7342 -1.2141
 9816TIP3    H229390   1.160   2.245   5.157 -0.5202 -1.1019 -1.9058
 9817TIP3   OH229391   1.253   4.251   3.028  0.3850  0.3847  0.5638
 9817TIP3    H129392   1.164   4.270   3.060  0.7979  0.0788  1.9635
 9817TIP3    H229393   1.300   4.335   3.036 -0.5095  1.4301 -3.0784
 9818TIP3   OH229394   5.706   1.763   2.637  0.2890  0.1804 -0.0749
 9818TIP3    H129395   5.749   1.702   2.696  2.2639  0.6202 -0.9809
 9818TIP3    H229396   5.769   1.833   2.624 -0.2087  0.2967 -2.3802
 9819TIP3   OH229397   5.695   5.248   6.145  0.2145  0.8523 -0.1691
 9819TIP3    H129398   5.721   5.157   6.164  0.2079  0.6855 -0.9444
 9819TIP3    H229399   5.763   5.281   6.087  0.2392  1.3618  0.1498
 9820TIP3   OH229400   7.240   4.378   5.034 -0.1443  0.1387  0.2472
 9820TIP3    H129401   7.250   4.416   4.946 -0.0871 -0.5217 -0.0370
 9820TIP3    H229402   7.219   4.286   5.018 -3.1828  0.6230  0.8542
 9821TIP3   OH229403   5.926   5.297   3.282  0.3585  0.4918 -0.1003
 9821TIP3    H129404   5.905   5.387   3.256  1.9576  0.6949 -0.8086
 9821TIP3    H229405   5.982   5.307   3.359  1.2155  0.1743 -0.6562
 9822TIP3   OH229406   4.016   1.493   0.290 -0.7961 -0.3232 -0.2007
 9822TIP3    H129407   3.972   1.417   0.250 -1.1643  0.4707 -1.3427
 9822TIP3    H229408   4.052   1.458   0.371 -2.6471 -1.2670  0.2953
 9823TIP3   OH229409   4.009   6.356   3.374  0.3024 -0.1319  0.1572
 9823TIP3    H129410   4.001   6.348   3.469  1.2668  0.2728  0.2830
 9823TIP3    H229411   3.921   6.381   3.345  0.2618  0.9193  1.0789
 9824TIP3   OH229412   6.600   1.535   5.946 -0.1533 -0.5763 -0.0377
 9824TIP3    H129413   6.569   1.620   5.912  0.7892  0.5762  1.8035
 9824TIP3    H229414   6.650   1.497   5.874 -0.1245  0.7033 -0.7275
 9825TIP3   OH229415   1.643   0.006   6.424  0.1177  0.4623 -1.1159
 9825TIP3    H129416   1.667   0.058   6.501 -2.5505 -1.9027  1.6214
 9825TIP3    H229417   1.575   0.057   6.380 -1.3931  0.0967  0.6644
 9826TIP3   OH229418   7.747   6.902   6.689 -0.2533 -0.1026 -0.3049
 9826TIP3    H129419   7.690   6.836   6.650  2.3236 -1.6173 -1.7637
 9826TIP3    H229420   7.783   6.950   6.615 -0.1913  1.3804  0.6260
 9827TIP3   OH229421   5.389   3.930   6.520  0.0962  0.3192 -0.1244
 9827TIP3    H129422   5.374   3.870   6.446  0.9738  0.2561 -0.2576
 9827TIP3    H229423   5.351   3.885   6.595  0.1092 -0.0838 -0.3530
 9828TIP3   OH229424   3.181   3.124   6.595 -0.3353 -0.4893  0.1427
 9828TIP3    H129425   3.138   3.042   6.622  1.5614 -1.7281 -0.4303
 9828TIP3    H229426   3.111   3.175   6.553 -2.0577 -0.8633  2.3551
 9829TIP3   OH229427   4.608   3.154   3.694  0.0297 -0.8918  0.3880
 9829TIP3    H129428   4.660   3.229   3.665 -3.0397  0.8930 -0.9200
 9829TIP3    H229429   4.595   3.169   3.787 -2.6153  1.7728 -0.2537
 9830TIP3   OH229430   6.894   0.510   5.766 -0.3894 -0.0537  0.0160
 9830TIP3    H129431   6.804   0.494   5.736  0.0928 -0.6792 -1.1659
 9830TIP3    H229432   6.945   0.440   5.725  0.8894  1.1967 -0.6024
 9831TIP3   OH229433   3.549   7.221   2.606 -0.1929  0.4520  0.1204
 9831TIP3    H129434   3.458   7.244   2.589 -0.0670  0.7217 -0.1997
 9831TIP3    H229435   3.600   7.279   2.550  0.1732  0.2108  0.1947
 9832TIP3   OH229436   1.529   7.339   0.677  0.4943 -0.1720  0.1241
 9832TIP3    H129437   1.602   7.322   0.618  0.2571  0.4004 -0.3504
 9832TIP3    H229438   1.476   7.404   0.631 -0.1588 -0.3649  0.5881
 9833TIP3   OH229439   1.968   7.116   6.347  0.1523 -0.3795  0.1181
 9833TIP3    H129440   1.882   7.132   6.309  0.1385  0.7531  0.5940
 9833TIP3    H229441   1.968   7.023   6.368 -1.4244 -0.1699  1.2078
 9834TIP3   OH229442   3.302   7.710   6.179 -0.6470  0.3881 -0.4276
 9834TIP3    H129443   3.262   7.723   6.265 -1.4481 -0.0222 -0.7255
 9834TIP3    H229444   3.232   7.729   6.117 -0.3731 -0.3044 -0.9652
 9835TIP3   OH229445   1.147   6.732   0.708 -0.6724 -0.1012 -0.0188
 9835TIP3    H129446   1.136   6.799   0.775 -1.1112  1.6306 -1.7200
 9835TIP3    H229447   1.074   6.748   0.647  1.0374  0.0009 -2.1483
 9836TIP3   OH229448   4.775   0.567   6.040  0.2008  0.3346  0.0772
 9836TIP3    H129449   4.813   0.630   5.979  1.9438  1.2783  2.0116
 9836TIP3    H229450   4.824   0.579   6.121 -0.4406 -2.4645  1.0060
 9837TIP3   OH229451   7.460   6.377   0.024  0.5393 -0.3033 -0.1153
 9837TIP3    H129452   7.438   6.363   0.116  1.6843  0.0827  0.2292
 9837TIP3    H229453   7.538   6.325   0.009  0.4569 -0.2380 -0.8301
 9838TIP3   OH229454   6.039   2.791   1.343  0.9527 -0.4686  0.3174
 9838TIP3    H129455   6.100   2.761   1.275  0.4854 -0.2965 -0.1802
 9838TIP3    H229456   5.956   2.804   1.297  1.0547  1.3268  0.5494
 9839TIP3   OH229457   1.306   6.507   6.547  0.2972  0.2142 -0.3673
 9839TIP3    H129458   1.237   6.441   6.556  1.0242 -0.6167 -0.7454
 9839TIP3    H229459   1.369   6.485   6.616 -1.2025  2.8044  2.0460
 9840TIP3   OH229460   6.860   3.481   0.603 -0.3769  0.1831  0.0108
 9840TIP3    H129461   6.768   3.491   0.580 -1.5190 -1.6710  3.1525
 9840TIP3    H229462   6.865   3.509   0.695  1.8144 -1.3817  0.4524
 9841TIP3   OH229463   1.909   1.626   2.151 -0.0134  0.5913  0.0281
 9841TIP3    H129464   1.817   1.603   2.166  0.1848  0.5630  1.3211
 9841TIP3    H229465   1.908   1.721   2.139 -0.2381  0.5678 -0.1382
 9842TIP3   OH229466   4.053   5.459   5.435  0.5473  0.3354 -0.4052
 9842TIP3    H129467   3.973   5.422   5.396  0.2275 -0.9796  1.3403
 9842TIP3    H229468   4.113   5.384   5.441  1.0307  0.7771  0.4292
 9843TIP3   OH229469   5.654   6.669   1.273  0.4179  0.6981  0.7457
 9843TIP3    H129470   5.713   6.624   1.212 -0.1430  2.0717 -0.8792
 9843TIP3    H229471   5.657   6.616   1.352 -2.2111 -3.9440 -1.7855
 9844TIP3   OH229472   7.754   4.390   3.611  0.2144  0.2430 -0.4100
 9844TIP3    H129473   7.759   4.400   3.706 -0.9369  0.9592 -0.4000
 9844TIP3    H229474   7.837   4.426   3.579  0.6630 -0.1178  0.3245
 9845TIP3   OH229475   6.226   1.727   6.015 -0.4758 -0.2049 -0.1589
 9845TIP3    H129476   6.136   1.714   6.045 -0.5123  1.0360  0.3261
 9845TIP3    H229477   6.262   1.792   6.075  1.2076 -1.6717  0.5273
 9846TIP3   OH229478   0.484   4.835   6.673 -0.2387 -0.4347 -0.1126
 9846TIP3    H129479   0.483   4.807   6.581 -0.5794  0.0698 -0.2707
 9846TIP3    H229480   0.488   4.930   6.668  3.0260 -0.4465  0.4129
 9847TIP3   OH229481   5.184   1.633   3.608  0.1897  0.0898 -0.6219
 9847TIP3    H129482   5.152   1.590   3.529 -1.1473  1.5779 -0.9481
 9847TIP3    H229483   5.268   1.671   3.583 -0.1822  0.4690 -1.3098
 9848TIP3   OH229484   7.870   3.561   6.138 -0.2307 -0.1337 -0.5515
 9848TIP3    H129485   7.810   3.503   6.091 -0.7686 -0.3091  0.3229
 9848TIP3    H229486   7.826   3.646   6.138 -0.5695 -0.2971  0.2204
 9849TIP3   OH229487   3.632   1.777   5.920  0.0107 -0.1922 -0.3438
 9849TIP3    H129488   3.690   1.759   5.994  0.4856 -1.7336 -1.0501
 9849TIP3    H229489   3.608   1.869   5.930  0.4682 -0.2328  1.4323
 9850TIP3   OH229490   6.298   7.830   4.576 -0.1688  0.2878 -0.2365
 9850TIP3    H129491   6.356   7.865   4.509  0.8479 -2.3080 -0.8396
 9850TIP3    H229492   6.221   7.800   4.528 -0.3343  0.2510  0.0494
 9851TIP3   OH229493   0.904   7.356   1.393 -0.3471 -0.2663 -0.1321
 9851TIP3    H129494   0.827   7.325   1.346  0.0491  0.3096 -1.2115
 9851TIP3    H229495   0.940   7.426   1.337  0.9120 -0.4716  0.3705
 9852TIP3   OH229496   3.209   1.761   4.946 -0.3757 -0.0577 -0.8996
 9852TIP3    H129497   3.268   1.817   4.896 -0.5923 -1.1393 -2.4236
 9852TIP3    H229498   3.254   1.677   4.952 -0.9195 -0.3217 -0.3699
 9853TIP3   OH229499   7.357   4.121   6.436  0.3457  0.0546  0.2379
 9853TIP3    H129500   7.411   4.122   6.515  1.2217 -0.0027 -0.3478
 9853TIP3    H229501   7.380   4.203   6.391 -0.4138  0.2609  0.2187
 9854TIP3   OH229502   0.315   2.823   1.927  0.2879  0.0251  0.6312
 9854TIP3    H129503   0.264   2.787   1.855  0.9689 -0.5257  0.4152
 9854TIP3    H229504   0.293   2.917   1.928 -1.2199 -0.2997  0.9653
 9855TIP3   OH229505   4.776   5.687   2.155  0.1000  0.1000 -0.5096
 9855TIP3    H129506   4.830   5.747   2.103 -1.2109 -0.1262 -2.2569
 9855TIP3    H229507   4.731   5.744   2.218  0.2951  0.6908 -0.8962
 9856TIP3   OH229508   5.982   1.955   6.228 -0.1412 -0.1496 -0.8022
 9856TIP3    H129509   5.971   1.860   6.232  2.5092 -0.5092  0.1093
 9856TIP3    H229510   5.908   1.986   6.175 -2.7431 -2.3338  1.3135
 9857TIP3   OH229511   1.942   7.788   1.422  0.2132 -0.6210  0.0419
 9857TIP3    H129512   1.976   7.766   1.335 -0.3987  1.1760 -0.6858
 9857TIP3    H229513   2.020   7.801   1.476  0.6229 -0.5409 -0.5578
 9858TIP3   OH229514   1.000   5.717   4.733  0.1908 -0.0326  0.2789
 9858TIP3    H129515   1.060   5.689   4.664 -1.5243 -2.3094 -0.4593
 9858TIP3    H229516   0.920   5.742   4.686 -1.7729 -3.5930  1.2662
 9859TIP3   OH229517   4.245   6.830   6.387 -0.2932 -0.4359  0.0100
 9859TIP3    H129518   4.243   6.881   6.306 -0.1826  2.0779  1.4970
 9859TIP3    H229519   4.152   6.817   6.409 -0.3395  0.6408  0.4977
 9860TIP3   OH229520   2.536   0.368   2.737 -0.6864  0.0443  0.0790
 9860TIP3    H129521   2.462   0.318   2.771 -0.9479 -0.8484 -1.6479
 9860TIP3    H229522   2.512   0.460   2.749 -1.9896 -0.2402 -0.2600
 9861TIP3   OH229523   1.962   3.454   2.099 -0.5387 -0.8291 -0.1383
 9861TIP3    H129524   1.980   3.536   2.144  0.1670 -1.0942  0.0826
 9861TIP3    H229525   1.867   3.443   2.105 -0.5247 -0.5604  0.7556
 9862TIP3   OH229526   0.879   4.903   6.501  0.2953 -0.2184  0.3028
 9862TIP3    H129527   0.870   4.993   6.471  0.7139  0.8646  3.1251
 9862TIP3    H229528   0.958   4.871   6.457  0.2617  0.8497 -0.5778
 9863TIP3   OH229529   2.759   6.137   6.538  0.7965 -0.4913  0.0080
 9863TIP3    H129530   2.771   6.200   6.467 -0.1408 -2.0998 -1.6494
 9863TIP3    H229531   2.788   6.184   6.617  3.4710  0.7959 -1.6045
 9864TIP3   OH229532   0.397   4.218   0.516  0.3308 -0.1502 -0.6387
 9864TIP3    H129533   0.311   4.209   0.474  0.4114  0.4238 -0.9415
 9864TIP3    H229534   0.423   4.308   0.497  1.1582 -0.4250 -0.8415
 9865TIP3   OH229535   0.452   4.988   4.409 -0.0755 -0.0487  0.5036
 9865TIP3    H129536   0.400   5.068   4.419  2.6080  1.6793  2.1658
 9865TIP3    H229537   0.519   4.995   4.478  2.7140 -1.7326 -1.8033
 9866TIP3   OH229538   3.529   2.606   6.151  0.6773  0.2461  0.2437
 9866TIP3    H129539   3.602   2.665   6.170  0.2636 -0.1988  3.8617
 9866TIP3    H229540   3.451   2.661   6.158  0.4880  0.1673 -0.9882
 9867TIP3   OH229541   5.545   7.503   4.105 -0.6565  0.3180 -0.3029
 9867TIP3    H129542   5.600   7.449   4.049 -1.0393  0.4702 -0.8367
 9867TIP3    H229543   5.464   7.513   4.056 -1.5257 -0.6847  0.8861
 9868TIP3   OH229544   4.548   3.010   6.339 -0.4379  0.1717 -0.1895
 9868TIP3    H129545   4.537   3.105   6.327  0.7345  0.5757  1.6414
 9868TIP3    H229546   4.491   2.989   6.413 -0.3047 -0.4659 -0.2661
 9869TIP3   OH229547   3.076   0.698   3.711  0.6725 -0.3115 -0.1140
 9869TIP3    H129548   3.068   0.610   3.747 -1.2896  0.0966  0.5688
 9869TIP3    H229549   3.098   0.684   3.618  0.7112 -1.4991  0.0616
 9870TIP3   OH229550   7.842   1.979   2.620 -0.1821 -0.3768  0.0080
 9870TIP3    H129551   7.936   1.993   2.631  0.0456 -2.0700  0.5231
 9870TIP3    H229552   7.802   2.036   2.686  0.3509  1.6714 -1.3541
 9871TIP3   OH229553   4.308   1.212   2.866  0.7703 -0.2215 -0.3070
 9871TIP3    H129554   4.368   1.186   2.796  1.6837  0.7819  0.0716
 9871TIP3    H229555   4.269   1.294   2.834  0.6737 -0.1293  0.0430
 9872TIP3   OH229556   3.502   5.079   2.684 -0.4056  0.3936  0.0822
 9872TIP3    H129557   3.414   5.076   2.646 -0.3596 -0.3540  0.0050
 9872TIP3    H229558   3.522   5.172   2.693 -1.4166  0.5737  0.5986
 9873TIP3   OH229559   3.201   5.753   5.808 -0.1351  0.0484  1.0490
 9873TIP3    H129560   3.287   5.753   5.851 -0.1881 -1.7428  1.2172
 9873TIP3    H229561   3.183   5.845   5.792  1.1637  0.5649  2.3235
 9874TIP3   OH229562   6.165   7.240   3.106 -0.0089 -0.1602  0.5986
 9874TIP3    H129563   6.177   7.316   3.164 -0.8799 -0.2969  0.9706
 9874TIP3    H229564   6.235   7.249   3.041 -1.5104  2.3259 -0.8500
 9875TIP3   OH229565   1.924   0.032   4.232  0.0786 -0.3467 -0.1809
 9875TIP3    H129566   1.967   0.034   4.318 -2.2950 -1.1306  1.1200
 9875TIP3    H229567   1.931  -0.060   4.205 -1.2159 -0.6051  0.3146
 9876TIP3   OH229568   6.423   5.934   2.932  0.2256 -0.0641 -0.1486
 9876TIP3    H129569   6.437   5.996   2.860  0.0707  0.4601  0.2584
 9876TIP3    H229570   6.507   5.890   2.943  0.2330 -0.1800 -0.6852
 9877TIP3   OH229571   1.806   3.928   0.665  0.7301 -0.0856  0.5239
 9877TIP3    H129572   1.751   3.886   0.598  1.2423  0.8592 -0.5187
 9877TIP3    H229573   1.816   3.861   0.733  0.8190 -1.3539 -0.6862
 9878TIP3   OH229574   4.342   3.184   0.436  0.1570  0.1979 -0.0422
 9878TIP3    H129575   4.347   3.185   0.531  0.8149  1.5410 -0.0716
 9878TIP3    H229576   4.365   3.094   0.412 -1.0272 -0.4347  1.0954
 9879TIP3   OH229577   8.063   3.546   0.628  0.3986  0.4491  0.4176
 9879TIP3    H129578   7.975   3.568   0.596  1.1372  0.4199 -1.7288
 9879TIP3    H229579   8.047   3.477   0.693 -1.2205  1.0137  0.6713
 9880TIP3   OH229580   6.495   0.322   4.461 -0.3760 -0.0503  0.4987
 9880TIP3    H129581   6.510   0.312   4.555  1.7399 -1.1543  0.0858
 9880TIP3    H229582   6.563   0.383   4.432 -1.3902  0.7701 -0.2608
 9881TIP3   OH229583   6.039   3.717   5.644 -0.2609  0.3008  0.3912
 9881TIP3    H129584   6.096   3.787   5.612  0.5699 -0.1033  0.9450
 9881TIP3    H229585   6.100   3.649   5.674 -0.8308 -3.0542 -4.8712
 9882TIP3   OH229586   1.347   1.463   5.130 -0.3314 -0.5290  0.3901
 9882TIP3    H129587   1.404   1.540   5.129 -0.8764 -0.1123 -0.8777
 9882TIP3    H229588   1.338   1.438   5.038 -1.1021 -1.3956  0.6841
 9883TIP3   OH229589   0.882   4.704   2.070  0.4791 -0.0505 -0.2301
 9883TIP3    H129590   0.850   4.629   2.021 -0.4504 -0.4535  0.9352
 9883TIP3    H229591   0.819   4.774   2.051 -0.5915 -0.5554  1.2797
 9884TIP3   OH229592   5.751   6.625   5.876 -0.0324  0.0680 -0.8867
 9884TIP3    H129593   5.740   6.713   5.839 -0.5401  0.3185 -0.1565
 9884TIP3    H229594   5.776   6.640   5.967 -0.7510 -0.5386 -0.5748
 9885TIP3   OH229595   1.406   3.066   4.474 -0.1677  0.0652 -0.2469
 9885TIP3    H129596   1.350   3.096   4.402  1.2927 -1.2385 -2.0062
 9885TIP3    H229597   1.379   2.975   4.488 -0.1478  0.1794  0.6005
 9886TIP3   OH229598   5.366   5.140   0.572  0.0242 -0.4905  0.2714
 9886TIP3    H129599   5.438   5.199   0.547  0.8981 -0.9521  1.5727
 9886TIP3    H229600   5.353   5.156   0.665 -0.7886 -1.2469  0.3012
 9887TIP3   OH229601   7.460   5.785   0.085 -0.1780  0.0751  0.9479
 9887TIP3    H129602   7.381   5.818   0.043 -0.2493 -2.6682 -1.4067
 9887TIP3    H229603   7.449   5.807   0.177 -3.0042  1.0377  0.4870
 9888TIP3   OH229604   7.860   1.035   6.753 -0.3606  0.3476 -0.2872
 9888TIP3    H129605   7.804   1.033   6.831  1.8562 -0.3145  1.3911
 9888TIP3    H229606   7.844   0.950   6.711 -0.4241  0.0454  0.3296
 9889TIP3   OH229607   6.253   6.526   3.653  0.3675 -0.0349  0.3025
 9889TIP3    H129608   6.305   6.472   3.593  0.8896  0.1087  0.6157
 9889TIP3    H229609   6.206   6.463   3.708 -1.5684 -0.2108 -1.4259
 9890TIP3   OH229610   3.003   3.283   4.661 -0.4323 -0.1856 -0.1255
 9890TIP3    H129611   2.910   3.304   4.657 -0.2708  0.5928  0.1705
 9890TIP3    H229612   3.020   3.267   4.754  0.1929  1.8966  0.1723
 9891TIP3   OH229613   0.504   2.718   3.881  0.3968  0.7502 -0.0211
 9891TIP3    H129614   0.440   2.677   3.941  0.9446  0.4600  0.3771
 9891TIP3    H229615   0.484   2.680   3.796  1.9426 -1.6899  0.5995
 9892TIP3   OH229616   3.541   0.903   5.044 -0.5925  0.1524 -0.1339
 9892TIP3    H129617   3.530   0.811   5.068  2.4779 -0.4293 -0.5038
 9892TIP3    H229618   3.580   0.901   4.957 -0.4188  1.8202 -0.1320
 9893TIP3   OH229619   2.365   3.191   1.934  0.4068 -0.1282  0.0257
 9893TIP3    H129620   2.459   3.187   1.951  0.4207  0.2850  0.0513
 9893TIP3    H229621   2.341   3.102   1.909  0.7844 -0.2581  0.1290
 9894TIP3   OH229622   7.984   6.571   1.020  0.4339 -0.3353 -0.1474
 9894TIP3    H129623   7.919   6.501   1.017  0.2025 -0.1376  0.2208
 9894TIP3    H229624   8.068   6.526   1.013  0.2249 -0.4754 -2.4675
 9895TIP3   OH229625   2.810   1.032   0.206  0.3216  0.0186  0.2885
 9895TIP3    H129626   2.716   1.016   0.198  0.4265  0.2007 -1.9893
 9895TIP3    H229627   2.829   1.020   0.299 -1.8532 -0.5246  0.7088
 9896TIP3   OH229628   4.135   3.701   4.406 -0.1071 -0.1826  0.2902
 9896TIP3    H129629   4.212   3.644   4.399  1.3546  1.8197 -1.1104
 9896TIP3    H229630   4.064   3.649   4.369  1.2665 -0.9802 -1.4074
 9897TIP3   OH229631   2.594   4.725   4.247  0.1250  0.5855 -0.2944
 9897TIP3    H129632   2.568   4.677   4.325  0.1232  0.7006 -0.2238
 9897TIP3    H229633   2.540   4.804   4.249  0.1101  0.5791 -0.4231
 9898TIP3   OH229634   8.303   6.096   4.369 -0.2121  0.3000  0.1854
 9898TIP3    H129635   8.366   6.160   4.338 -0.1136  0.6329  1.0505
 9898TIP3    H229636   8.290   6.117   4.462 -2.5762  1.0882 -0.2472
 9899TIP3   OH229637   6.195   1.994   2.086  0.0295 -0.1908 -0.4311
 9899TIP3    H129638   6.254   2.015   2.013 -0.1361 -0.5375 -0.6679
 9899TIP3    H229639   6.239   1.924   2.134  1.2799  1.6138  1.2154
 9900TIP3   OH229640   3.494   5.552   3.448  0.0870  0.1741  0.2711
 9900TIP3    H129641   3.497   5.625   3.511 -0.9994 -0.2288  0.8283
 9900TIP3    H229642   3.453   5.481   3.497  2.9998 -1.5567  0.4220
 9901TIP3   OH229643   4.599   4.090   3.075 -0.0519 -0.0185  0.4806
 9901TIP3    H129644   4.570   4.175   3.108 -0.5733 -0.2794  0.7015
 9901TIP3    H229645   4.658   4.056   3.143 -1.4809 -0.7593  1.3924
 9902TIP3   OH229646   1.157   5.653   5.930 -0.1809 -0.2577 -0.0664
 9902TIP3    H129647   1.194   5.689   5.850 -0.0596  0.6188  0.3677
 9902TIP3    H229648   1.074   5.614   5.903 -0.7962  1.2272 -0.4076
 9903TIP3   OH229649   1.838   3.128   5.061  0.0187  0.3222 -0.3329
 9903TIP3    H129650   1.922   3.173   5.070  0.8086 -1.3246  1.2106
 9903TIP3    H229651   1.846   3.052   5.119 -1.4771 -1.4355 -2.3007
 9904TIP3   OH229652   6.521   4.872   4.184  0.1250  0.5864 -0.8326
 9904TIP3    H129653   6.444   4.926   4.168 -0.3719  0.0863 -0.1493
 9904TIP3    H229654   6.516   4.802   4.118 -0.4228  0.1145 -0.2934
 9905TIP3   OH229655   1.194   1.386   5.430 -0.1683  0.1953  0.1037
 9905TIP3    H129656   1.190   1.294   5.404 -0.2259  0.3411 -0.4068
 9905TIP3    H229657   1.114   1.425   5.394  0.5423  0.7526 -0.9152
 9906TIP3   OH229658   3.966   6.263   6.279 -1.1968  0.6293 -0.4648
 9906TIP3    H129659   3.976   6.175   6.242 -1.5077  0.3103  0.1739
 9906TIP3    H229660   3.880   6.293   6.248 -1.4350  0.3825 -0.0624
 9907TIP3   OH229661   4.258   7.470   6.779 -0.6872 -0.5653  0.0005
 9907TIP3    H129662   4.353   7.461   6.769 -1.0259 -2.1155 -2.7475
 9907TIP3    H229663   4.247   7.544   6.839  2.2342 -1.2009  1.5154
 9908TIP3   OH229664   2.303   5.290   6.239  0.7118 -0.0377  0.2852
 9908TIP3    H129665   2.390   5.250   6.237  0.3445 -0.9402  1.2236
 9908TIP3    H229666   2.316   5.375   6.282  1.3274  0.4282 -0.7763
 9909TIP3   OH229667   3.725   5.640   5.712 -0.1898 -0.3514 -0.7064
 9909TIP3    H129668   3.651   5.650   5.651 -0.6592  0.0971 -0.0698
 9909TIP3    H229669   3.692   5.582   5.780 -0.3389  0.7641  0.1849
 9910TIP3   OH229670   3.029   6.384   1.283  0.2754  0.4007  0.7286
 9910TIP3    H129671   3.061   6.474   1.275  0.6494  0.2316  0.2458
 9910TIP3    H229672   2.941   6.393   1.320  1.0815  0.8453  2.6595
 9911TIP3   OH229673   4.952   5.709   0.812 -0.1375  0.0712  0.1892
 9911TIP3    H129674   4.864   5.746   0.813 -0.5313 -0.7577 -0.9765
 9911TIP3    H229675   4.994   5.743   0.890 -0.9442  1.7988 -0.0966
 9912TIP3   OH229676   1.987   4.091   0.959  0.1329 -0.0524 -0.3878
 9912TIP3    H129677   2.013   4.058   1.045  1.4065 -0.8175 -1.0518
 9912TIP3    H229678   1.900   4.128   0.974 -0.2296 -1.3381  0.9498
 9913TIP3   OH229679   2.881   5.666   2.861  0.5362  0.0290 -0.0124
 9913TIP3    H129680   2.807   5.619   2.900  0.9808  0.7904  1.8936
 9913TIP3    H229681   2.873   5.755   2.896  1.9566  0.2991 -0.3177
 9914TIP3   OH229682   6.253   1.695   6.313  0.4502  0.3416 -0.0335
 9914TIP3    H129683   6.216   1.681   6.226 -0.0761 -0.4467  0.3104
 9914TIP3    H229684   6.289   1.610   6.339 -1.7907 -0.1804  1.6187
 9915TIP3   OH229685   7.132   6.559   6.378 -0.0536 -0.0330 -0.2303
 9915TIP3    H129686   7.207   6.502   6.395 -0.5085 -0.4628  0.3789
 9915TIP3    H229687   7.129   6.567   6.283  0.4790 -0.4032 -0.2827
 9916TIP3   OH229688   5.401   0.568   0.196  0.3929 -0.3425 -0.3773
 9916TIP3    H129689   5.329   0.567   0.259 -1.3198  2.0042 -2.0907
 9916TIP3    H229690   5.477   0.599   0.246 -1.1142  2.3526  0.4216
 9917TIP3   OH229691   0.375   4.993   5.505 -0.2029  0.2466 -0.5955
 9917TIP3    H129692   0.411   4.929   5.443 -0.3496  1.1798 -1.6707
 9917TIP3    H229693   0.395   4.956   5.592  0.6677 -0.7165 -1.1824
 9918TIP3   OH229694   2.113   6.900   6.725 -0.6089  0.9167  0.3185
 9918TIP3    H129695   2.147   6.816   6.755  1.2570  1.6222  0.2800
 9918TIP3    H229696   2.018   6.890   6.729 -0.4212 -0.9020  1.0936
 9919TIP3   OH229697   5.197   2.677   1.790  0.2828  0.5574  0.1092
 9919TIP3    H129698   5.137   2.604   1.776  1.3655 -0.4353  0.5591
 9919TIP3    H229699   5.141   2.755   1.784 -0.7937 -0.2619 -0.8934
 9920TIP3   OH229700   1.407   7.261   3.213  0.1482  0.1052 -0.2718
 9920TIP3    H129701   1.466   7.220   3.150 -0.0264 -0.7666  0.1138
 9920TIP3    H229702   1.435   7.227   3.298  0.5165  1.4304  0.1678
 9921TIP3   OH229703   2.332   1.527   4.144  0.0906  0.4218  0.1020
 9921TIP3    H129704   2.267   1.460   4.162  0.7768 -1.1298 -2.6372
 9921TIP3    H229705   2.401   1.512   4.209 -0.6047 -0.3442  0.6762
 9922TIP3   OH229706   4.945   3.297   3.470 -0.0687  0.0422  0.0500
 9922TIP3    H129707   4.947   3.344   3.387  3.3617  2.2433  1.1505
 9922TIP3    H229708   4.874   3.338   3.520  1.9538  3.3758  0.4618
 9923TIP3   OH229709   5.107   4.223   6.548  0.3389  0.6045  0.5013
 9923TIP3    H129710   5.042   4.168   6.506  1.4049 -0.7203  0.5116
 9923TIP3    H229711   5.062   4.263   6.622 -1.4838  2.6779 -1.5508
 9924TIP3   OH229712   8.233   5.135   6.268 -0.1546 -0.2096 -0.2885
 9924TIP3    H129713   8.145   5.174   6.260  0.4492  1.7954  1.6485
 9924TIP3    H229714   8.220   5.058   6.323 -0.8142 -0.4282 -0.7373
 9925TIP3   OH229715   4.686   6.538   6.245  0.2564 -0.3524 -0.0167
 9925TIP3    H129716   4.778   6.535   6.221  0.4732  1.8740  0.3598
 9925TIP3    H229717   4.639   6.525   6.162  0.9577  1.6035 -0.7716
 9926TIP3   OH229718   3.124   7.110   6.061  0.4501 -0.1112 -0.4981
 9926TIP3    H129719   3.196   7.049   6.073  1.0712  0.5562 -0.7129
 9926TIP3    H229720   3.047   7.065   6.097  0.9402 -0.8935 -0.4098
 9927TIP3   OH229721   5.490   0.110   3.243 -0.3043  0.2162 -0.4902
 9927TIP3    H129722   5.419   0.071   3.191 -1.8620  0.0613  1.6195
 9927TIP3    H229723   5.525   0.037   3.294  0.5859  0.5264 -0.6537
 9928TIP3   OH229724   1.100   1.656   4.262  0.9496 -0.6410 -0.0219
 9928TIP3    H129725   1.124   1.662   4.169 -1.5111  0.9777 -0.6437
 9928TIP3    H229726   1.146   1.729   4.303  0.2485  0.0381 -0.4279
 9929TIP3   OH229727   4.007   2.609   5.330 -0.7027  0.1954 -0.4717
 9929TIP3    H129728   4.018   2.578   5.240  0.1642 -3.6657  0.7832
 9929TIP3    H229729   3.915   2.632   5.336 -0.9408 -0.1858 -2.1297
 9930TIP3   OH229730   5.644   0.591   4.362  0.1391  0.4988  0.0834
 9930TIP3    H129731   5.673   0.531   4.430 -0.8699  0.3284  0.3809
 9930TIP3    H229732   5.567   0.549   4.324 -0.3600  1.4224  0.0398
 9931TIP3   OH229733   3.292   7.621   1.460  0.2622 -0.9955  0.1751
 9931TIP3    H129734   3.379   7.659   1.468  0.4704 -1.5506  0.6506
 9931TIP3    H229735   3.264   7.605   1.551 -0.7911  0.1719  0.0818
 9932TIP3   OH229736   3.629   5.024   4.559  0.0132 -0.2681  0.0365
 9932TIP3    H129737   3.698   4.983   4.610 -0.0015  0.9336  1.0711
 9932TIP3    H229738   3.548   4.983   4.591  0.1358 -0.7994 -0.3147
 9933TIP3   OH229739   0.688   7.839   5.066 -0.3012  0.7752  0.1047
 9933TIP3    H129740   0.613   7.782   5.048 -0.1283  0.6699 -0.2915
 9933TIP3    H229741   0.737   7.793   5.134  0.3119  0.0051 -0.8306
 9934TIP3   OH229742   2.824   2.007   2.508 -0.5614  0.4601  0.1105
 9934TIP3    H129743   2.791   2.039   2.424 -0.5866 -0.7777 -0.3732
 9934TIP3    H229744   2.888   1.939   2.484  0.0231  0.6460  1.0803
 9935TIP3   OH229745   2.576   7.364   1.168 -0.6471  0.3310 -0.1498
 9935TIP3    H129746   2.501   7.351   1.110  1.2959  0.3095 -2.8576
 9935TIP3    H229747   2.585   7.459   1.174  0.5970  0.4171 -2.1201
 9936TIP3   OH229748   0.569   1.438   4.820 -0.4254 -0.2266 -0.6636
 9936TIP3    H129749   0.639   1.498   4.792  0.2765 -0.7215 -0.0078
 9936TIP3    H229750   0.578   1.362   4.763 -0.3760 -0.3167 -0.5377
 9937TIP3   OH229751   6.209   6.868   5.740 -0.2400  0.3788 -0.2224
 9937TIP3    H129752   6.187   6.910   5.656 -1.1999 -0.8748 -0.6226
 9937TIP3    H229753   6.295   6.830   5.725 -1.2014 -1.5253 -1.3562
 9938TIP3   OH229754   8.002   1.757   1.387 -0.1719  0.3071  0.0303
 9938TIP3    H129755   8.018   1.677   1.438 -1.8664  0.8851  1.5475
 9938TIP3    H229756   8.065   1.820   1.421  0.2854  0.0092 -0.2549
 9939TIP3   OH229757   8.307   0.017   2.621  0.0635 -0.4559 -0.3064
 9939TIP3    H129758   8.359  -0.046   2.570  0.8243  1.3438 -1.8498
 9939TIP3    H229759   8.371   0.074   2.662 -0.6347 -0.3643  0.6948
 9940TIP3   OH229760   3.597   4.377   6.325  0.3266 -0.5542 -0.4452
 9940TIP3    H129761   3.568   4.465   6.302  0.4925 -0.5915 -0.8072
 9940TIP3    H229762   3.563   4.363   6.413  0.2345 -0.1568 -0.4139
 9941TIP3   OH229763   0.481   0.350   2.794 -0.1146 -0.3480  0.0623
 9941TIP3    H129764   0.525   0.316   2.872 -2.3091 -3.3084  0.1589
 9941TIP3    H229765   0.510   0.295   2.723  1.1766  1.7775 -1.1610
 9942TIP3   OH229766   1.657   6.698   2.874 -0.1226  0.2328  0.3278
 9942TIP3    H129767   1.740   6.704   2.922 -0.3282 -0.7948  0.8300
 9942TIP3    H229768   1.590   6.717   2.939 -0.3554 -0.2943  0.2435
 9943TIP3   OH229769   1.626   6.076   0.784 -0.4707 -0.9915 -0.2040
 9943TIP3    H129770   1.610   6.170   0.792 -2.5188 -0.8717 -3.6198
 9943TIP3    H229771   1.699   6.069   0.722 -1.4526 -1.5949 -1.3314
 9944TIP3   OH229772   1.620   5.030   5.923  0.1093  0.3058  0.1263
 9944TIP3    H129773   1.699   4.985   5.894  0.0370  1.1114 -1.4060
 9944TIP3    H229774   1.548   4.979   5.886 -0.0009  1.0835 -0.7514
 9945TIP3   OH229775   4.199   6.873   2.930 -0.2420  0.1496 -0.4819
 9945TIP3    H129776   4.106   6.897   2.937  0.1332  1.6477 -0.4275
 9945TIP3    H229777   4.223   6.897   2.840  0.2473  0.3345 -0.3043
 9946TIP3   OH229778   0.887   1.655   4.047 -0.6370 -0.1361  0.4191
 9946TIP3    H129779   0.859   1.574   4.006  1.7097 -1.9667  2.1426
 9946TIP3    H229780   0.967   1.679   4.002 -0.0021 -0.1771  1.4823
 9947TIP3   OH229781   8.275   6.766   1.608 -0.1613  0.2235  0.5689
 9947TIP3    H129782   8.264   6.675   1.638 -0.4607 -0.4537 -1.4373
 9947TIP3    H229783   8.349   6.799   1.659  0.1031 -1.2240  1.1869
 9948TIP3   OH229784   0.378   7.160   1.993  0.0685  0.7171 -0.2554
 9948TIP3    H129785   0.304   7.101   2.012  1.8204 -1.4922  0.1382
 9948TIP3    H229786   0.455   7.105   2.006  1.8001  2.9722 -0.5906
 9949TIP3   OH229787   1.866   6.277   6.254 -0.0102 -0.2342 -0.4089
 9949TIP3    H129788   1.799   6.271   6.322  0.2927 -1.5575 -0.2029
 9949TIP3    H229789   1.819   6.259   6.173 -0.0769 -0.1919 -0.3798
 9950TIP3   OH229790   4.223   4.859   1.365  0.3340 -0.4794 -0.3824
 9950TIP3    H129791   4.178   4.902   1.438 -0.0189  0.7683 -1.3158
 9950TIP3    H229792   4.161   4.791   1.336 -1.0911  1.2858 -1.7246
 9951TIP3   OH229793   0.014   6.394   6.395  0.2359  0.2501  0.6403
 9951TIP3    H129794   0.040   6.487   6.399  2.0666 -0.2413  2.9780
 9951TIP3    H229795   0.068   6.352   6.462 -0.4557 -2.5653 -0.4359
 9952TIP3   OH229796   6.665   6.523   1.444  0.5105 -0.1800 -0.1806
 9952TIP3    H129797   6.635   6.456   1.383  0.6725  1.1148 -1.7435
 9952TIP3    H229798   6.645   6.606   1.401  3.9407  0.7947 -0.1782
 9953TIP3   OH229799   0.645   3.605   4.822  0.4531  0.2661 -0.3693
 9953TIP3    H129800   0.715   3.592   4.758  1.0130 -0.3420  0.3350
 9953TIP3    H229801   0.567   3.625   4.770  1.0842  0.6795 -1.1846
 9954TIP3   OH229802   5.117   6.950   2.383 -0.2262 -0.4381 -0.3954
 9954TIP3    H129803   5.079   7.013   2.444 -1.0357 -1.5742  0.3005
 9954TIP3    H229804   5.174   6.895   2.437  0.3952 -0.3775 -0.9740
 9955TIP3   OH229805   2.026   7.682   4.636  0.4019  0.0741  0.0623
 9955TIP3    H129806   1.939   7.717   4.656  0.1447 -0.9872  0.9143
 9955TIP3    H229807   2.087   7.748   4.670 -0.0701 -0.0106  1.1001
 9956TIP3   OH229808   7.979   7.123   4.317 -0.5380 -0.2361  0.2831
 9956TIP3    H129809   8.013   7.034   4.328 -0.8776 -0.9342 -3.1454
 9956TIP3    H229810   8.020   7.154   4.236 -2.4322  1.7220 -0.0137
 9957TIP3   OH229811   0.181   3.426   3.510  0.0532 -0.0584  0.7783
 9957TIP3    H129812   0.214   3.446   3.422 -0.4959 -3.1407 -0.2426
 9957TIP3    H229813   0.093   3.465   3.512  0.2069  0.3363  0.1002
 9958TIP3   OH229814   2.719   0.217   6.755 -0.1072  0.0574 -0.3276
 9958TIP3    H129815   2.803   0.234   6.796  0.0453 -1.0538 -0.1479
 9958TIP3    H229816   2.734   0.139   6.701 -0.9707 -0.0569 -0.4234
 9959TIP3   OH229817   3.521   4.554   2.857  0.5393  1.1619 -0.0644
 9959TIP3    H129818   3.603   4.585   2.897  2.2964 -0.5384 -2.1340
 9959TIP3    H229819   3.501   4.620   2.790  0.3009  1.4782  0.3127
 9960TIP3   OH229820   2.402   1.321   5.659 -0.1169 -0.5102  0.3939
 9960TIP3    H129821   2.425   1.413   5.647  0.4855 -0.4934  1.5008
 9960TIP3    H229822   2.327   1.323   5.718 -0.4726 -0.7132 -0.0487
 9961TIP3   OH229823   8.434   4.348   5.850  0.1587 -0.2545  0.7644
 9961TIP3    H129824   8.388   4.411   5.906 -1.3765 -0.7868  0.1619
 9961TIP3    H229825   8.367   4.317   5.789  1.2690 -1.2948  0.0307
 9962TIP3   OH229826   8.130   6.438   0.762  0.5285  0.5071  0.3203
 9962TIP3    H129827   8.078   6.475   0.691  1.0952  0.7561  0.0329
 9962TIP3    H229828   8.075   6.367   0.797 -0.0665  0.8635  0.1256
 9963TIP3   OH229829   2.200   3.685   5.055  0.6055 -0.3954  0.0773
 9963TIP3    H129830   2.260   3.618   5.088 -0.1083 -0.5237  1.1814
 9963TIP3    H229831   2.254   3.741   5.000  1.6563 -0.7109  0.7574
 9964TIP3   OH229832   2.350   6.004   4.003 -0.1961 -0.9000  0.1597
 9964TIP3    H129833   2.276   6.064   4.002 -0.7335 -1.5572 -0.1346
 9964TIP3    H229834   2.312   5.918   3.987  0.6262 -1.2548  0.0388
 9965TIP3   OH229835   7.137   6.364   4.353 -0.1993  0.1745 -0.1283
 9965TIP3    H129836   7.129   6.460   4.359 -1.8563  0.3911 -3.4208
 9965TIP3    H229837   7.204   6.349   4.287 -0.2302 -0.9621  0.0774
 9966TIP3   OH229838   7.158   5.833   6.276  0.3550  0.5796  0.1623
 9966TIP3    H129839   7.064   5.840   6.296  0.4646  0.5103  0.7178
 9966TIP3    H229840   7.193   5.920   6.295  0.5862  0.3202  0.9690
 9967TIP3   OH229841   1.916   0.412   6.094 -0.1839 -0.7580  0.6772
 9967TIP3    H129842   1.977   0.418   6.020  0.5451 -1.6985  1.1803
 9967TIP3    H229843   1.973   0.412   6.171 -0.8628 -1.1400  1.1849
 9968TIP3   OH229844   2.631   7.820   5.309  0.5823  0.5406  0.4428
 9968TIP3    H129845   2.715   7.849   5.273  0.6157  0.2873  0.3189
 9968TIP3    H229846   2.634   7.847   5.401  1.8279 -1.6262  1.1080
 9969TIP3   OH229847   2.432   5.760   5.057 -0.0991  0.4698 -0.1712
 9969TIP3    H129848   2.407   5.705   4.982  2.0049 -0.0502 -0.5623
 9969TIP3    H229849   2.513   5.803   5.029  1.2500 -0.4278  2.1044
 9970TIP3   OH229850   5.542   1.413   5.468  0.3920  0.4963  0.4243
 9970TIP3    H129851   5.564   1.349   5.400 -0.5150  0.2693  0.3189
 9970TIP3    H229852   5.535   1.362   5.548  0.1718  0.5423  0.4365
 9971TIP3   OH229853   7.326   2.478   2.069  0.1408 -0.1531  0.7006
 9971TIP3    H129854   7.238   2.482   2.032  0.6785  3.0008 -0.6325
 9971TIP3    H229855   7.319   2.525   2.152  0.0950 -2.2360  1.9298
 9972TIP3   OH229856   3.491   4.710   2.634  0.0165  0.5086  0.1986
 9972TIP3    H129857   3.402   4.706   2.601  0.3907  0.2865 -0.8334
 9972TIP3    H229858   3.538   4.762   2.568  0.0894  3.0069  2.0411
 9973TIP3   OH229859   6.509   0.822   4.622 -0.3551  0.7944 -0.5496
 9973TIP3    H129860   6.466   0.772   4.692  3.1294 -0.8852  0.5986
 9973TIP3    H229861   6.491   0.913   4.644 -0.1736  0.2756  2.0616
 9974TIP3   OH229862   7.025   2.413   4.829 -0.3622 -0.4822  0.6874
 9974TIP3    H129863   7.103   2.375   4.788  0.5560  0.1533  1.7767
 9974TIP3    H229864   7.001   2.350   4.897  0.7339  0.4734  2.0176
 9975TIP3   OH229865   8.299   4.486   6.796 -0.5125  0.7278  0.3239
 9975TIP3    H129866   8.322   4.540   6.872  1.7270  0.2958  0.0276
 9975TIP3    H229867   8.312   4.396   6.825 -4.0230  0.2196  0.7418
 9976TIP3   OH229868   5.082   3.630   5.253 -0.0540  0.2051  0.0911
 9976TIP3    H129869   5.114   3.664   5.169 -2.1256  0.8236 -0.5008
 9976TIP3    H229870   4.996   3.670   5.264 -0.5074 -1.1207  1.7541
 9977TIP3   OH229871   7.102   6.598   6.110 -0.3155  0.1300 -0.3034
 9977TIP3    H129872   7.032   6.610   6.047 -0.0546 -0.2672 -0.6766
 9977TIP3    H229873   7.177   6.645   6.073 -0.8141  1.9365  0.8691
 9978TIP3   OH229874   7.069   5.640   4.534 -0.3168  0.0450  0.3236
 9978TIP3    H129875   7.105   5.658   4.621 -1.2733  0.0160  0.7377
 9978TIP3    H229876   7.044   5.726   4.501 -1.6397 -0.1151  0.8478
 9979TIP3   OH229877   7.975   6.131   2.328 -0.0068 -0.5626 -0.2163
 9979TIP3    H129878   7.981   6.036   2.330 -0.6197 -0.6200 -0.8400
 9979TIP3    H229879   7.886   6.150   2.355 -0.1553 -0.2080 -0.9382
 9980TIP3   OH229880   0.812   3.418   5.937  0.3796 -0.4264 -0.3132
 9980TIP3    H129881   0.870   3.351   5.974  1.1963 -0.6421 -1.8965
 9980TIP3    H229882   0.794   3.388   5.848 -1.5387  0.0596 -0.1355
 9981TIP3   OH229883   4.449   0.322   0.814 -0.2461  0.0803 -0.1697
 9981TIP3    H129884   4.369   0.297   0.860  0.2063  0.9372  1.1340
 9981TIP3    H229885   4.420   0.345   0.726 -1.1159 -1.7164 -0.4128
 9982TIP3   OH229886   0.373   1.657   0.925 -0.5193 -0.0873  0.2989
 9982TIP3    H129887   0.312   1.720   0.885 -0.7431 -0.4747  0.0287
 9982TIP3    H229888   0.456   1.705   0.930 -1.1112  0.8405  1.7326
 9983TIP3   OH229889   2.420   6.891   0.129  0.3705 -0.2048 -0.0810
 9983TIP3    H129890   2.325   6.903   0.126  0.5690  1.4338 -1.4600
 9983TIP3    H229891   2.455   6.979   0.123  1.9903 -0.8636 -0.8542
 9984TIP3   OH229892   1.262   3.312   4.871 -0.5812 -0.3148 -0.1170
 9984TIP3    H129893   1.297   3.224   4.857 -0.8444 -0.8960  2.4862
 9984TIP3    H229894   1.293   3.338   4.958 -2.0305  1.4095 -0.0441
 9985TIP3   OH229895   1.126   4.327   0.989 -0.0744  0.4212 -0.7411
 9985TIP3    H129896   1.074   4.406   0.981 -2.1814 -0.5087  2.1515
 9985TIP3    H229897   1.204   4.354   1.038 -1.4492  0.5709  1.5006
 9986TIP3   OH229898   3.174   6.038   3.429  0.3720  0.2019  0.5841
 9986TIP3    H129899   3.231   5.966   3.457  1.0765  0.9116  1.0591
 9986TIP3    H229900   3.234   6.101   3.390 -0.4737 -0.2953 -1.6422
 9987TIP3   OH229901   3.443   3.515   6.529 -0.1208 -0.5784  0.0145
 9987TIP3    H129902   3.356   3.484   6.552 -1.2712  2.0438 -0.4994
 9987TIP3    H229903   3.484   3.536   6.613 -1.2654  1.2488  0.1776
 9988TIP3   OH229904   4.127   3.339   5.322  0.5789  0.3836 -0.1375
 9988TIP3    H129905   4.184   3.302   5.255 -0.9606 -0.5282 -0.9738
 9988TIP3    H229906   4.050   3.369   5.275 -1.5540 -2.2850  1.3686
 9989TIP3   OH229907   0.791   5.693   5.060  0.4070  0.3305  0.2798
 9989TIP3    H129908   0.774   5.684   4.966 -2.1686 -1.3512  0.7881
 9989TIP3    H229909   0.756   5.779   5.082 -0.8237 -0.0598 -0.0233
 9990TIP3   OH229910   6.098   1.771   1.159 -0.2644  0.0105  0.1994
 9990TIP3    H129911   6.012   1.730   1.148  0.3032 -1.5819  1.3731
 9990TIP3    H229912   6.150   1.739   1.085  0.0914 -1.2283  0.9570
 9991TIP3   OH229913   6.702   1.950   4.575 -0.2099  0.6402 -0.2818
 9991TIP3    H129914   6.756   1.998   4.513 -0.7035  1.2733 -0.2221
 9991TIP3    H229915   6.725   1.987   4.660 -0.8523  1.0184 -0.2720
 9992TIP3   OH229916   0.459   7.068   3.118 -0.0366  0.1360 -0.0465
 9992TIP3    H129917   0.461   7.091   3.025 -0.6854  4.2573  0.7703
 9992TIP3    H229918   0.367   7.045   3.134 -0.0269 -0.1018 -0.3129
 9993TIP3   OH229919   8.311   6.081   2.585  0.2345  0.8271 -0.4424
 9993TIP3    H129920   8.272   5.994   2.584 -0.4187  1.1105 -0.4815
 9993TIP3    H229921   8.323   6.103   2.492  1.8735  0.1586 -0.4328
 9994TIP3   OH229922   2.941   5.651   1.630 -0.0674  0.4496 -0.0595
 9994TIP3    H129923   2.908   5.570   1.590  0.6406 -0.3909  1.0144
 9994TIP3    H229924   2.867   5.711   1.627 -0.6539 -0.2796 -0.7362
 9995TIP3   OH229925   6.902   2.661   4.335 -0.0010  0.3586  0.2423
 9995TIP3    H129926   6.968   2.712   4.382  0.8790 -1.0137  0.5809
 9995TIP3    H229927   6.950   2.583   4.305 -0.9226  0.4572 -1.5815
 9996TIP3   OH229928   5.958   0.355   2.353 -0.2241  0.8270  0.2708
 9996TIP3    H129929   6.005   0.338   2.435 -1.2647 -0.4297  0.6458
 9996TIP3    H229930   5.875   0.393   2.382  0.1300  2.1291 -0.3313
 9997TIP3   OH229931   5.171   1.667   3.204  0.1772 -0.2136  0.1511
 9997TIP3    H129932   5.175   1.738   3.140  1.8024  1.6570  2.1599
 9997TIP3    H229933   5.248   1.613   3.184 -1.1024 -1.5378 -1.4266
 9998TIP3   OH229934   5.207   6.446   5.805 -0.3000 -0.3866  0.3892
 9998TIP3    H129935   5.246   6.532   5.788 -0.7917 -0.3364 -0.5305
 9998TIP3    H229936   5.114   6.457   5.783 -0.1573 -1.4423 -0.8473
 9999TIP3   OH229937   4.755   0.250   0.783  0.2100  0.1276  0.0460
 9999TIP3    H129938   4.840   0.289   0.761  0.5254  0.3375  1.4818
 9999TIP3    H229939   4.695   0.324   0.784  0.0949  0.0464 -0.5351
10000TIP3   OH229940   5.911   6.542   6.831 -0.3633  0.0060  0.0792
10000TIP3    H129941   5.937   6.627   6.796  0.9241 -0.5778 -0.4354
10000TIP3    H229942   5.871   6.497   6.756 -0.5217 -0.0527  0.2001
10001TIP3   OH229943   3.304   5.285   1.330 -0.1507 -0.1033  0.0930
10001TIP3    H129944   3.385   5.315   1.371 -0.9970 -0.6362  2.2599
10001TIP3    H229945   3.265   5.365   1.293  1.1705  0.2048 -0.7026
10002TIP3   OH229946   3.829   1.665   5.775  0.0400  0.0129  0.4960
10002TIP3    H129947   3.812   1.606   5.701  1.0028 -1.4484  1.4061
10002TIP3    H229948   3.742   1.685   5.809 -0.2918 -1.6249  0.7145
10003TIP3   OH229949   5.639   3.045   0.494  0.3001  0.2578  0.5616
10003TIP3    H129950   5.716   3.017   0.445 -0.1102 -0.7962  0.4973
10003TIP3    H229951   5.647   3.140   0.499  0.2817  0.4215 -1.6611
10004TIP3   OH229952   7.654   1.921   2.420  0.7844 -0.1378  0.2653
10004TIP3    H129953   7.718   1.878   2.363  0.8645 -1.8250  1.5399
10004TIP3    H229954   7.704   1.946   2.498  0.4567  1.1636  0.0850
10005TIP3   OH229955   6.874   4.594   0.135  0.2105  0.4617 -0.1399
10005TIP3    H129956   6.804   4.623   0.193 -0.4812 -1.1179 -0.1223
10005TIP3    H229957   6.911   4.674   0.099 -0.4669  1.3965  1.1709
10006TIP3   OH229958   0.688   5.193   4.286 -0.0566 -0.1781 -0.0415
10006TIP3    H129959   0.728   5.138   4.352  0.3122  1.1214  0.8467
10006TIP3    H229960   0.752   5.197   4.215  0.2646 -0.2233  0.2475
10007TIP3   OH229961   5.355   4.779   6.126  0.3385  0.0876  0.3197
10007TIP3    H129962   5.357   4.817   6.214 -0.1088  0.6042  0.1153
10007TIP3    H229963   5.360   4.855   6.067  1.1903 -0.2863 -0.1055
10008TIP3   OH229964   5.977   6.777   4.123 -0.0074  0.1128 -0.1022
10008TIP3    H129965   6.060   6.811   4.091  0.2679  0.7086  1.2068
10008TIP3    H229966   5.971   6.689   4.084  1.8878 -0.4869  0.8485
10009TIP3   OH229967   1.814   4.130   3.922 -0.0328  0.0047  0.2236
10009TIP3    H129968   1.861   4.155   4.001  0.6589  0.9937 -0.4826
10009TIP3    H229969   1.721   4.135   3.947  0.1804 -0.1198  1.0849
10010TIP3   OH229970   5.111   4.350   6.810  0.3505  0.1826  0.2176
10010TIP3    H129971   5.124   4.400   6.891  1.4623  0.7998 -0.3221
10010TIP3    H229972   5.196   4.312   6.791 -0.1480 -0.7923 -0.1387
10011TIP3   OH229973   4.755   5.179   4.196  0.2456  0.9656  0.2245
10011TIP3    H129974   4.711   5.096   4.213  1.1869  0.6965  1.5028
10011TIP3    H229975   4.762   5.184   4.101 -0.8487  0.1387  0.0831
10012TIP3   OH229976   5.166   3.174   4.361 -0.3185 -0.0560 -0.0171
10012TIP3    H129977   5.245   3.189   4.413 -1.4151 -0.6834  1.9075
10012TIP3    H229978   5.116   3.255   4.369 -1.1612 -0.6757  1.1569
10013TIP3   OH229979   3.977   1.340   1.686 -0.1162  0.2325 -0.3410
10013TIP3    H129980   4.002   1.253   1.654 -0.6048 -0.3275  0.7253
10013TIP3    H229981   3.910   1.370   1.625 -2.5096 -1.6753  1.1427
10014TIP3   OH229982   6.708   0.764   0.304  0.5428 -0.0832 -0.1234
10014TIP3    H129983   6.755   0.817   0.240  1.9858 -0.6956  0.3940
10014TIP3    H229984   6.618   0.759   0.270  1.3361 -0.7122 -2.3159
10015TIP3   OH229985   8.275   1.643   0.242  0.0004  0.6549  0.1699
10015TIP3    H129986   8.317   1.590   0.310 -0.9714 -1.8114 -1.0309
10015TIP3    H229987   8.347   1.688   0.198  0.7145  1.6134  2.2327
10016TIP3   OH229988   6.058   1.895   0.342 -0.5725  0.1184 -0.2540
10016TIP3    H129989   6.073   1.952   0.418  0.5737 -1.3618  0.6753
10016TIP3    H229990   6.116   1.929   0.275  0.7498 -0.4523  0.5754
10017TIP3   OH229991   4.495   1.316   6.552 -0.1248 -0.4436  0.3985
10017TIP3    H129992   4.443   1.303   6.631  0.8625  2.5749  1.6894
10017TIP3    H229993   4.585   1.324   6.584  0.2059  1.5268 -0.9000
10018TIP3   OH229994   0.899   4.294   4.119  0.7390 -0.5572  0.2778
10018TIP3    H129995   0.932   4.208   4.147  0.1339 -0.4327  1.4704
10018TIP3    H229996   0.828   4.312   4.180  0.6225  0.6329 -0.1952
10019TIP3   OH229997   1.673   6.160   4.974  0.8927 -0.1683  0.4290
10019TIP3    H129998   1.763   6.162   5.006  0.3840 -1.4420  2.0299
10019TIP3    H229999   1.650   6.067   4.971  0.3009 -0.0241 -2.0238
10020TIP3   OH230000   7.391   0.806   5.854 -0.4966 -0.4811 -0.0736
10020TIP3    H130001   7.447   0.883   5.856 -1.9843  0.7776 -2.4174
10020TIP3    H230002   7.445   0.736   5.892  0.6379  1.7774  2.8230
10021TIP3   OH230003   1.356   6.616   4.766 -0.1538  0.0090 -0.1468
10021TIP3    H130004   1.421   6.605   4.697 -1.9411 -1.2551 -1.7467
10021TIP3    H230005   1.322   6.705   4.752 -0.0871 -0.0215 -0.5246
10022TIP3   OH230006   4.119   1.576   3.807 -0.1988  0.4561 -0.2702
10022TIP3    H130007   4.056   1.629   3.857 -1.3741 -1.8445  0.8541
10022TIP3    H230008   4.065   1.524   3.748  0.9381  0.6478 -1.5222
10023TIP3   OH230009   6.912   3.640   2.559 -0.0671  0.6263 -0.1577
10023TIP3    H130010   6.972   3.616   2.488 -1.0311 -2.3907 -0.1168
10023TIP3    H230011   6.969   3.670   2.630  1.4843 -1.9280 -0.1878
10024TIP3   OH230012   4.467   4.421   4.042  0.1969  0.2212 -0.4397
10024TIP3    H130013   4.420   4.350   3.997  0.8638  0.8974 -2.3189
10024TIP3    H230014   4.493   4.480   3.971  0.3743  1.9311  0.9911
10025TIP3   OH230015   4.030   2.662   4.265  0.3839 -0.4175 -0.4681
10025TIP3    H130016   3.973   2.657   4.342  0.8006  0.9963 -0.0455
10025TIP3    H230017   4.018   2.577   4.221 -0.5355 -0.9024  0.6636
10026TIP3   OH230018   4.092   7.589   5.497  0.1578 -0.4177  0.3989
10026TIP3    H130019   4.023   7.609   5.433  0.1889  0.1656  0.5444
10026TIP3    H230020   4.117   7.499   5.477  0.5653 -0.0618 -0.8038
10027TIP3   OH230021   6.802   2.723   0.501  0.5029  0.3345  0.6252
10027TIP3    H130022   6.791   2.628   0.507  0.4049  0.2429 -0.6627
10027TIP3    H230023   6.761   2.757   0.580  1.1776 -0.7395  1.4649
10028TIP3   OH230024   6.017   7.348   1.968 -0.3817  0.3191  0.2934
10028TIP3    H130025   6.028   7.420   1.906 -1.1455 -0.6140 -0.9741
10028TIP3    H230026   6.093   7.291   1.952 -0.4861  0.1674  0.3369
10029TIP3   OH230027   7.461   4.355   1.455  0.3145 -0.2346 -0.1355
10029TIP3    H130028   7.488   4.445   1.475  1.3564 -0.3059 -1.0571
10029TIP3    H230029   7.371   4.363   1.424  0.7204  0.6566 -1.1792
10030TIP3   OH230030   3.508   5.223   4.221 -0.1897 -0.3684 -0.3258
10030TIP3    H130031   3.513   5.227   4.126  0.6778  1.7406 -0.2391
10030TIP3    H230032   3.563   5.295   4.251 -1.5875 -0.0841  1.7445
10031TIP3   OH230033   5.318   5.824   1.672  0.4409  1.0179 -0.4320
10031TIP3    H130034   5.346   5.915   1.679 -1.1997  1.5833 -0.8589
10031TIP3    H230035   5.327   5.804   1.579  1.1373  0.6083 -0.2858
10032TIP3   OH230036   0.119   3.338   1.704  0.0790  0.3155 -0.3499
10032TIP3    H130037   0.030   3.329   1.739 -0.2254  2.0932 -0.5273
10032TIP3    H230038   0.114   3.301   1.616 -0.1938 -0.5895  0.0397
10033TIP3   OH230039   1.966   4.332   2.136  0.2686 -0.3022  0.0786
10033TIP3    H130040   1.922   4.381   2.206 -0.2802 -0.5690 -0.0742
10033TIP3    H230041   2.055   4.320   2.168  0.2771  0.3615  0.3372
10034TIP3   OH230042   7.415   2.701   3.275  0.3120 -0.4014 -0.2913
10034TIP3    H130043   7.507   2.686   3.297  0.2188 -0.0263  0.3883
10034TIP3    H230044   7.407   2.796   3.266  0.1053 -0.4706 -0.8931
10035TIP3   OH230045   3.782   1.852   3.226 -0.1828 -0.6055  0.0268
10035TIP3    H130046   3.719   1.920   3.201  0.9420 -0.1073 -1.6512
10035TIP3    H230047   3.853   1.900   3.269 -0.9200 -1.1694  1.9629
10036TIP3   OH230048   0.365   3.288   1.062 -0.4253 -0.5428  0.3759
10036TIP3    H130049   0.286   3.299   1.115  0.0977 -0.3173  1.1300
10036TIP3    H230050   0.413   3.370   1.072 -0.1075 -0.6615 -0.1011
10037TIP3   OH230051   8.313   2.228   4.264  0.1002 -0.2458  0.2044
10037TIP3    H130052   8.295   2.139   4.294 -0.8707  0.2916  1.3024
10037TIP3    H230053   8.358   2.270   4.337  0.4225  0.2050 -0.2466
10038TIP3   OH230054   0.395   2.477   0.848 -0.3169  0.2424 -0.2788
10038TIP3    H130055   0.418   2.401   0.901 -0.5169 -0.3141 -0.9817
10038TIP3    H230056   0.428   2.552   0.897 -1.4184 -0.1709  1.1640
10039TIP3   OH230057   4.027   4.663   6.712 -0.4614 -0.0330 -0.2197
10039TIP3    H130058   3.959   4.666   6.780 -1.8826  0.1371 -1.6065
10039TIP3    H230059   3.979   4.669   6.630  1.1702 -1.1069 -1.2924
10040TIP3   OH230060   7.723   0.398   3.438 -0.3960  0.2136 -0.3184
10040TIP3    H130061   7.816   0.414   3.420  0.4791 -2.9813  0.6260
10040TIP3    H230062   7.691   0.481   3.472  2.5474  0.9856  0.9262
10041TIP3   OH230063   5.260   1.413   2.502  0.2355  0.2409  0.3113
10041TIP3    H130064   5.333   1.355   2.482 -0.1069  0.0036 -0.3068
10041TIP3    H230065   5.224   1.380   2.584  0.5298  0.0638  0.3668
10042TIP3   OH230066   1.146   2.729   1.973  0.4615  0.5917 -0.5251
10042TIP3    H130067   1.163   2.710   1.881  2.7572 -0.5353  0.0751
10042TIP3    H230068   1.201   2.805   1.993  1.1956 -0.1282  0.2709
10043TIP3   OH230069   5.386   6.460   4.792  0.4358  0.6399  0.4716
10043TIP3    H130070   5.393   6.417   4.877  1.2942 -0.8048 -0.2867
10043TIP3    H230071   5.477   6.468   4.762  0.1119  0.4207 -0.6226
10044TIP3   OH230072   7.659   2.342   5.106 -0.0378 -0.1953  0.5124
10044TIP3    H130073   7.693   2.254   5.091  1.4188  0.2981  0.8355
10044TIP3    H230074   7.706   2.374   5.183  1.0157  1.6414 -0.7962
10045TIP3   OH230075   7.645   0.857   1.036 -0.6031 -0.0098 -0.3761
10045TIP3    H130076   7.588   0.780   1.038 -1.2118  0.4167 -0.7921
10045TIP3    H230077   7.621   0.902   0.955 -0.1153  0.5083 -0.2380
10046TIP3   OH230078   0.650   2.371   4.302  0.1159  0.4806 -0.7578
10046TIP3    H130079   0.556   2.362   4.313  0.1107  0.5885 -0.7102
10046TIP3    H230080   0.681   2.401   4.388  0.1757  0.5824 -0.8153
10047TIP3   OH230081   6.354   7.430   0.036  0.5082 -0.1968 -0.2690
10047TIP3    H130082   6.297   7.507   0.042  1.0741  0.1038  2.7925
10047TIP3    H230083   6.300   7.363  -0.004 -0.9739  0.9460 -0.2717
10048TIP3   OH230084   7.426   2.282   0.821 -0.3595 -0.2383 -0.6584
10048TIP3    H130085   7.365   2.320   0.884 -0.4086 -1.7922  0.2970
10048TIP3    H230086   7.372   2.260   0.745 -0.7188 -0.2769 -0.3935
10049TIP3   OH230087   5.792   4.255   6.534 -0.1940  0.0136 -0.0846
10049TIP3    H130088   5.766   4.333   6.582  0.3339 -1.1362  2.1963
10049TIP3    H230089   5.712   4.227   6.489 -0.5041  1.5718 -0.5449
10050TIP3   OH230090   2.545   6.988   6.164  0.1191  0.1228 -0.1340
10050TIP3    H130091   2.453   6.972   6.144  0.6900 -1.6979 -1.6398
10050TIP3    H230092   2.563   6.932   6.240 -0.6038  2.5335  1.9293
10051TIP3   OH230093   6.060   7.750   5.777  0.3628 -0.1656  0.7661
10051TIP3    H130094   6.026   7.829   5.736 -0.9940 -0.8550  0.4984
10051TIP3    H230095   6.091   7.778   5.863 -0.8006  0.5249  0.9745
10052TIP3   OH230096   0.630   5.134   3.798  0.0523  0.1629 -0.1494
10052TIP3    H130097   0.625   5.207   3.737  0.8011  0.0239 -0.3871
10052TIP3    H230098   0.665   5.061   3.747  1.2409  0.2034  0.5660
10053TIP3   OH230099   0.528   1.836   2.529  0.1023 -0.2333 -0.2993
10053TIP3    H130100   0.590   1.905   2.553 -0.3076 -0.2578  0.8982
10053TIP3    H230101   0.526   1.779   2.606  0.1585 -1.3819 -1.1371
10054TIP3   OH230102   0.768   3.152   1.069  0.1891 -0.8430 -0.0876
10054TIP3    H130103   0.801   3.135   0.981  0.3582 -1.3045  0.0657
10054TIP3    H230104   0.788   3.073   1.119 -4.0739 -2.6589 -0.8337
10055TIP3   OH230105   1.779   2.942   4.826 -0.4302 -0.3160  0.4338
10055TIP3    H130106   1.764   2.991   4.745 -0.2136 -2.2139 -0.8206
10055TIP3    H230107   1.828   3.002   4.882  0.2879  0.6968 -1.2269
10056TIP3   OH230108   4.162   2.058   4.538 -0.2846 -0.0810 -0.0026
10056TIP3    H130109   4.195   1.970   4.516 -0.4147  0.4080 -2.3506
10056TIP3    H230110   4.178   2.110   4.460  2.4738  2.8404  2.2377
10057TIP3   OH230111   2.759   4.850   6.070 -0.5842 -0.1842  0.2661
10057TIP3    H130112   2.829   4.830   6.132  0.9160  1.4131 -0.8062
10057TIP3    H230113   2.678   4.841   6.121  0.5353  0.4266  2.2801
10058TIP3   OH230114   1.890   6.083   2.683 -0.1447  0.6113 -0.2866
10058TIP3    H130115   1.802   6.121   2.684 -0.0032  1.0542 -1.9019
10058TIP3    H230116   1.945   6.148   2.727 -0.6088  0.3003  0.7990
10059TIP3   OH230117   4.813   2.146   5.723  0.1627 -0.2431 -0.1469
10059TIP3    H130118   4.766   2.098   5.791  2.6223 -0.1588  1.7717
10059TIP3    H230119   4.770   2.231   5.718 -1.0468 -0.8265  0.1121
10060TIP3   OH230120   4.570   3.436   2.090  0.5096  0.0502  0.0086
10060TIP3    H130121   4.635   3.367   2.086  1.2379  0.6828  0.7160
10060TIP3    H230122   4.502   3.402   2.149  0.0105 -0.7440 -0.9957
10061TIP3   OH230123   2.935   5.619   4.485 -0.2576  0.2031  0.2368
10061TIP3    H130124   2.984   5.678   4.428  0.3077 -0.5549 -0.0762
10061TIP3    H230125   2.990   5.541   4.492 -1.2296 -0.5039  0.2041
10062TIP3   OH230126   4.070   2.550   0.717  0.1681 -0.3417  0.6979
10062TIP3    H130127   4.045   2.618   0.654  1.7762  0.3187  0.7263
10062TIP3    H230128   4.003   2.483   0.707 -1.5518  1.2939  0.7660
10063TIP3   OH230129   2.480   5.691   4.111  0.5668 -0.0075  0.3064
10063TIP3    H130130   2.517   5.693   4.023  0.2477 -2.5364  0.0443
10063TIP3    H230131   2.387   5.709   4.098  0.6443  0.3606  0.2367
10064TIP3   OH230132   3.956   7.428   6.352 -0.6278 -0.4152 -0.4434
10064TIP3    H130133   3.866   7.394   6.356 -1.0328  0.4774 -1.3876
10064TIP3    H230134   3.976   7.453   6.442 -1.1884 -0.9796 -0.1532
10065TIP3   OH230135   3.348   6.930   6.122  0.3087 -0.0387  0.0341
10065TIP3    H130136   3.354   6.900   6.213 -3.8239 -0.0391  0.4974
10065TIP3    H230137   3.352   6.849   6.070 -0.4889 -0.3868  0.4943
10066TIP3   OH230138   3.656   5.692   3.638  0.3892  0.0314 -0.1973
10066TIP3    H130139   3.685   5.779   3.613  0.2644 -0.2458 -1.3648
10066TIP3    H230140   3.729   5.635   3.617  0.1379 -0.2677 -0.2692
10067TIP3   OH230141   6.203   2.754   1.105  0.3738  0.2772 -0.2278
10067TIP3    H130142   6.198   2.840   1.063  0.6731  0.1137 -0.6085
10067TIP3    H230143   6.273   2.708   1.058  0.2625 -0.1507  0.0134
10068TIP3   OH230144   1.527   2.907   3.742 -0.0405  0.2747  0.3627
10068TIP3    H130145   1.608   2.900   3.692 -0.5024  0.3791 -0.4183
10068TIP3    H230146   1.507   3.000   3.742 -1.1430  0.0675 -1.0750
10069TIP3   OH230147   3.568   1.259   5.443  0.3622 -0.6531  0.7645
10069TIP3    H130148   3.613   1.197   5.500 -0.2938 -0.2763  1.7131
10069TIP3    H230149   3.476   1.253   5.467  0.1720  0.0775  0.2817
10070TIP3   OH230150   3.785   2.920   5.668  0.5824 -0.4899 -0.4566
10070TIP3    H130151   3.844   2.866   5.616 -0.8823 -0.6048 -2.0658
10070TIP3    H230152   3.706   2.928   5.615 -0.3328  0.8316  1.0179
10071TIP3   OH230153   4.682   5.702   1.735 -0.7118  0.5402 -0.1506
10071TIP3    H130154   4.667   5.656   1.652 -2.2379  0.3737  0.1802
10071TIP3    H230155   4.682   5.794   1.711  1.1172  0.4457 -0.6384
10072TIP3   OH230156   6.721   6.556   1.733 -0.6089 -0.7256 -0.5337
10072TIP3    H130157   6.730   6.474   1.782  1.1801 -0.8644 -1.0034
10072TIP3    H230158   6.677   6.531   1.652 -0.2348 -1.2169 -0.5937
10073TIP3   OH230159   1.329   6.672   5.466  0.2515 -0.1561  0.1381
10073TIP3    H130160   1.301   6.638   5.551 -0.8671  0.7156  0.1468
10073TIP3    H230161   1.322   6.768   5.475  0.9038 -0.0233 -0.6696
10074TIP3   OH230162   4.429   7.048   2.331  0.0485  0.3270  0.1612
10074TIP3    H130163   4.489   6.982   2.297 -0.5265  0.0285 -0.3006
10074TIP3    H230164   4.447   7.052   2.425 -0.9839 -1.6290  0.4755
10075TIP3   OH230165   4.372   7.828   3.408 -0.0925  0.2998 -0.1135
10075TIP3    H130166   4.352   7.921   3.416 -0.9728 -0.0053  1.7081
10075TIP3    H230167   4.288   7.784   3.421  0.5370 -0.7947  0.3596
10076TIP3   OH230168   6.824   5.695   1.458  0.0818 -0.0018 -0.4702
10076TIP3    H130169   6.865   5.634   1.520  0.3307  0.4131 -0.2281
10076TIP3    H230170   6.730   5.692   1.480 -0.2243 -1.8203 -1.7625
10077TIP3   OH230171   0.719   7.569   2.441 -0.5946  0.2254  0.1647
10077TIP3    H130172   0.647   7.537   2.386  0.0912 -0.4617 -0.3545
10077TIP3    H230173   0.701   7.662   2.453 -1.5684  0.0640  0.0486
10078TIP3   OH230174   1.699   6.119   3.934  0.2381 -0.0584  0.0013
10078TIP3    H130175   1.781   6.093   3.976  0.9953 -0.5162 -1.6524
10078TIP3    H230176   1.679   6.205   3.972  0.0549 -1.0678  2.3323
10079TIP3   OH230177   1.419   2.421   1.684 -0.1686  0.0700 -0.1050
10079TIP3    H130178   1.509   2.388   1.684 -0.3731 -0.5308  0.9739
10079TIP3    H230179   1.370   2.357   1.632 -0.1923 -0.2838  0.3420
10080TIP3   OH230180   3.543   3.070   4.781  0.0673 -0.7826 -0.9473
10080TIP3    H130181   3.576   3.048   4.694  1.7984 -2.0047 -0.0457
10080TIP3    H230182   3.613   3.043   4.841 -1.2075 -0.2924  0.8621
10081TIP3   OH230183   7.273   4.258   3.206 -0.1488  0.3380  0.4961
10081TIP3    H130184   7.221   4.220   3.277  1.2873 -0.6316  1.0785
10081TIP3    H230185   7.231   4.342   3.187 -0.9581  0.3024  2.0319
10082TIP3   OH230186   5.529   3.036   3.732 -0.1508 -0.0795  0.0004
10082TIP3    H130187   5.548   3.042   3.639 -0.3238  0.7229  0.0066
10082TIP3    H230188   5.614   3.047   3.775 -0.0529 -0.5782 -0.0637
10083TIP3   OH230189   5.539   4.321   1.668  0.3703 -0.2691  0.3824
10083TIP3    H130190   5.488   4.250   1.707 -1.5657 -0.4949 -2.2680
10083TIP3    H230191   5.566   4.375   1.742 -0.8725 -1.9974  2.2020
10084TIP3   OH230192   4.577   5.832   6.791 -0.3134 -0.4953 -0.2139
10084TIP3    H130193   4.646   5.825   6.856 -0.9517 -1.9467  0.3543
10084TIP3    H230194   4.531   5.913   6.813  2.2852  1.5386 -1.7627
10085TIP3   OH230195   4.959   5.714   1.560  1.1241 -0.3913 -0.0593
10085TIP3    H130196   5.008   5.689   1.639  2.1686 -0.4683 -0.7103
10085TIP3    H230197   5.016   5.777   1.517  0.7514 -0.6638 -0.9577
10086TIP3   OH230198   7.038   2.308   0.342  0.0417 -0.1223  0.5293
10086TIP3    H130199   7.125   2.338   0.368 -0.2433  0.8985  0.3196
10086TIP3    H230200   7.004   2.264   0.420  0.7530 -0.5774  0.5975
10087TIP3   OH230201   5.860   0.993   3.164  0.6916 -0.7664 -0.0156
10087TIP3    H130202   5.790   1.056   3.177  0.4752 -0.6719 -1.4715
10087TIP3    H230203   5.926   1.016   3.230  1.1630  1.7601 -1.2406
10088TIP3   OH230204   0.890   7.755   0.518  0.8469 -0.1914 -0.1526
10088TIP3    H130205   0.823   7.709   0.468  1.3549 -1.5912  0.3878
10088TIP3    H230206   0.941   7.802   0.452 -0.2691  0.3851 -0.6269
10089TIP3   OH230207   8.189   6.330   2.063 -0.0488 -0.4123  0.5257
10089TIP3    H130208   8.097   6.351   2.049  0.6587  2.7557 -0.1557
10089TIP3    H230209   8.203   6.345   2.157  0.0503  0.4669  0.3756
10090TIP3   OH230210   0.729   4.648   5.895 -0.1580 -0.3037 -0.5072
10090TIP3    H130211   0.686   4.648   5.810  0.2368  1.1936 -0.7348
10090TIP3    H230212   0.822   4.658   5.875 -0.0843  0.3275  0.0889
10091TIP3   OH230213   4.243   0.789   6.834  0.3230  0.2763  0.0917
10091TIP3    H130214   4.321   0.808   6.782  0.6544  0.1568  0.5416
10091TIP3    H230215   4.199   0.873   6.843  0.6363  0.4276  0.2224
10092TIP3   OH230216   7.526   0.756   0.578  0.2691 -0.2283 -0.0252
10092TIP3    H130217   7.608   0.753   0.530 -1.1872  0.1212 -2.6986
10092TIP3    H230218   7.507   0.849   0.589  0.9821 -0.2759  2.1037
10093TIP3   OH230219   2.744   1.685   6.251  0.0186  0.2502 -0.4097
10093TIP3    H130220   2.794   1.760   6.282 -1.1102  1.0955 -0.6004
10093TIP3    H230221   2.805   1.611   6.258  0.7835  0.9750  0.8306
10094TIP3   OH230222   5.024   3.420   0.206  0.3145  0.0621 -0.2675
10094TIP3    H130223   4.976   3.408   0.125  0.6883  1.1821 -0.6673
10094TIP3    H230224   4.971   3.481   0.257 -0.0773 -0.8726  0.4849
10095TIP3   OH230225   7.494   5.561   0.811  0.0853 -0.1418 -0.4365
10095TIP3    H130226   7.426   5.624   0.785  1.0547  0.5408 -1.3936
10095TIP3    H230227   7.462   5.524   0.893 -0.6302  1.4377  0.0366
10096TIP3   OH230228   1.315   3.889   5.057 -0.1007  0.4082 -0.0700
10096TIP3    H130229   1.406   3.890   5.086 -0.5777  0.9002  1.4864
10096TIP3    H230230   1.293   3.796   5.048  0.0596  0.2388  1.2172
10097TIP3   OH230231   3.489   3.306   0.841  0.2741 -0.1771  0.5038
10097TIP3    H130232   3.577   3.268   0.841  0.1079 -0.5708  0.6089
10097TIP3    H230233   3.489   3.368   0.769  0.4975 -0.5024  0.2228
10098TIP3   OH230234   2.026   3.261   3.734  0.1391 -0.2750 -0.1808
10098TIP3    H130235   2.030   3.168   3.758 -0.3811 -0.3457 -0.3615
10098TIP3    H230236   1.964   3.299   3.797 -1.9418 -0.6340 -1.8915
10099TIP3   OH230237   1.089   6.780   5.630  1.0560  0.2606 -0.1825
10099TIP3    H130238   1.135   6.697   5.643 -1.4842 -1.3319 -0.6497
10099TIP3    H230239   1.137   6.823   5.559  2.5648 -0.6589  0.2286
10100TIP3   OH230240   1.909   1.139   6.333 -0.1247 -0.1436  0.2277
10100TIP3    H130241   1.831   1.117   6.282 -0.0236  0.8250 -0.3801
10100TIP3    H230242   1.982   1.118   6.275  0.0969 -1.4435  0.9525
10101TIP3   OH230243   8.115   0.098   6.251 -0.1674  0.1880 -0.3063
10101TIP3    H130244   8.069   0.021   6.284  0.8499 -1.7133 -2.9716
10101TIP3    H230245   8.152   0.139   6.330  0.2706 -2.7375  1.1792
10102TIP3   OH230246   2.354   3.930   0.588 -0.6755 -0.5577 -0.4651
10102TIP3    H130247   2.269   3.962   0.558 -0.4199  0.6181 -0.0062
10102TIP3    H230248   2.359   3.956   0.680  0.3975 -0.0983 -0.6336
10103TIP3   OH230249   1.134   1.739   3.922 -0.3548 -0.0293  0.3969
10103TIP3    H130250   1.214   1.707   3.881 -1.1640 -0.6572 -0.7228
10103TIP3    H230251   1.149   1.833   3.933  0.5084 -0.1268  0.1426
10104TIP3   OH230252   0.724   5.912   1.247  0.4026 -0.3618 -0.4941
10104TIP3    H130253   0.791   5.978   1.227  0.4682 -0.2886 -0.0451
10104TIP3    H230254   0.738   5.844   1.182 -0.5861  0.7199 -1.8827
10105TIP3   OH230255   6.305   0.899   3.088  0.1189  0.2193 -0.0643
10105TIP3    H130256   6.372   0.931   3.027  0.7719  2.0221  1.4622
10105TIP3    H230257   6.223   0.934   3.055  0.5743  1.9015  0.4732
10106TIP3   OH230258   6.366   0.476   4.179 -0.5801 -0.5630  0.1143
10106TIP3    H130259   6.418   0.396   4.172 -1.2629 -1.0897  0.8346
10106TIP3    H230260   6.401   0.521   4.256  0.8004  0.6118 -1.1338
10107TIP3   OH230261   0.599   4.445   6.758 -0.0585 -0.2079 -0.6733
10107TIP3    H130262   0.580   4.378   6.692  0.3734 -2.3879  1.2603
10107TIP3    H230263   0.692   4.464   6.746 -0.1607 -0.0225 -1.1783
10108TIP3   OH230264   1.435   7.597   6.627 -0.0490  0.8120 -0.1834
10108TIP3    H130265   1.417   7.659   6.698 -0.9094 -1.0535  1.2835
10108TIP3    H230266   1.353   7.550   6.613  0.7057 -0.3528 -0.9262
10109TIP3   OH230267   5.483   0.885   3.494 -0.4289  0.1432  0.6102
10109TIP3    H130268   5.526   0.969   3.483  1.5587 -0.8657  0.2060
10109TIP3    H230269   5.551   0.827   3.527 -1.6944 -1.3542  0.7186
10110TIP3   OH230270   4.075   7.864   6.775 -0.1007  0.2454 -0.2240
10110TIP3    H130271   4.032   7.946   6.752 -0.9345 -0.2161 -0.3500
10110TIP3    H230272   4.102   7.827   6.691  2.0913  1.3127 -0.0743
10111TIP3   OH230273   0.329   5.099   4.820  0.0266  0.2412  0.2378
10111TIP3    H130274   0.325   5.091   4.915 -1.4063 -0.2759  0.1473
10111TIP3    H230275   0.239   5.113   4.792  0.0336 -2.1950 -1.2611
10112TIP3   OH230276   2.117   1.295   1.660  0.1682  0.6184  0.0812
10112TIP3    H130277   2.159   1.356   1.599  0.3811 -0.2877 -0.6880
10112TIP3    H230278   2.055   1.349   1.709 -1.3277  1.0471 -2.1714
10113TIP3   OH230279   1.385   4.993   4.323 -0.1505 -0.0562 -0.7225
10113TIP3    H130280   1.368   5.071   4.377 -0.6213 -0.2354 -0.6080
10113TIP3    H230281   1.431   4.934   4.382  0.6113  0.3055 -0.9401
10114TIP3   OH230282   0.890   5.514   3.355  0.6660  0.6597 -0.2943
10114TIP3    H130283   0.870   5.541   3.265  0.8409  1.3608 -0.1272
10114TIP3    H230284   0.817   5.456   3.379  0.2365  1.0508 -0.6325
10115TIP3   OH230285   4.079   3.357   5.699  0.2262  0.2600  0.6858
10115TIP3    H130286   4.105   3.421   5.633 -1.2450  0.3336  0.1344
10115TIP3    H230287   4.160   3.314   5.724  0.8085  0.0267 -1.3986
10116TIP3   OH230288   2.996   6.487   4.472  0.0857 -0.0124 -0.2689
10116TIP3    H130289   2.932   6.469   4.403 -1.8552  2.2021  0.7975
10116TIP3    H230290   2.947   6.475   4.554  1.4011  0.5459  0.6317
10117TIP3   OH230291   0.173   5.813   2.164 -0.4905  0.2417  0.0814
10117TIP3    H130292   0.082   5.838   2.174 -0.5310 -0.3430  1.2748
10117TIP3    H230293   0.222   5.896   2.172 -0.9674  0.8029 -2.1223
10118TIP3   OH230294   6.763   2.403   3.175  0.0895  0.1606 -0.1872
10118TIP3    H130295   6.784   2.327   3.122  1.5781 -0.0898  0.6944
10118TIP3    H230296   6.668   2.405   3.179  0.0207 -1.2166 -0.8325
10119TIP3   OH230297   7.762   7.056   0.214  0.5576  0.1839 -0.1734
10119TIP3    H130298   7.688   7.080   0.159 -0.8648 -0.0375  1.5331
10119TIP3    H230299   7.764   7.122   0.283  3.0059  1.1181 -1.0377
10120TIP3   OH230300   1.170   6.711   2.451  0.1032  0.2356  0.3567
10120TIP3    H130301   1.091   6.680   2.496  1.1259 -1.4235  1.1072
10120TIP3    H230302   1.219   6.757   2.519  0.4881 -0.0678  0.2833
10121TIP3   OH230303   7.812   3.011   4.221  0.0404 -0.2371 -0.0566
10121TIP3    H130304   7.860   3.025   4.302  0.0073 -0.9845  0.1045
10121TIP3    H230305   7.861   2.941   4.177  1.0273  1.2590 -1.4735
10122TIP3   OH230306   6.666   0.790   1.820 -0.0679 -0.3916 -0.3780
10122TIP3    H130307   6.679   0.884   1.833 -1.5358 -0.1956 -0.2028
10122TIP3    H230308   6.597   0.766   1.882 -0.8972 -1.2398 -1.5832
10123TIP3   OH230309   6.557   2.291   3.907  0.1937 -0.3096  0.4917
10123TIP3    H130310   6.594   2.347   3.976 -0.1795 -0.4004  0.7690
10123TIP3    H230311   6.563   2.344   3.828  1.5876 -0.5918  0.3808
10124TIP3   OH230312   1.320   1.364   4.852 -0.3435 -0.6030  0.2684
10124TIP3    H130313   1.286   1.424   4.786  0.6884  0.7530  0.8981
10124TIP3    H230314   1.243   1.322   4.889 -1.4081  2.1881  1.5158
10125TIP3   OH230315   6.662   4.206   6.472 -0.3216 -0.0377 -0.1820
10125TIP3    H130316   6.591   4.173   6.417 -1.1911  3.2221 -1.2652
10125TIP3    H230317   6.738   4.210   6.415 -0.3675  0.2676 -0.2278
10126TIP3   OH230318   4.074   5.889   4.257  0.1223  0.3263  0.3902
10126TIP3    H130319   4.079   5.860   4.348 -1.0841 -1.0765  0.0585
10126TIP3    H230320   4.034   5.815   4.211  0.1880  1.2277 -1.1774
10127TIP3   OH230321   5.353   7.278   6.748  0.2302  0.1320  0.4756
10127TIP3    H130322   5.267   7.285   6.706  0.5701  1.3882 -0.0705
10127TIP3    H230323   5.346   7.335   6.825  0.7993  0.8560  0.0039
10128TIP3   OH230324   3.827   6.407   5.688 -0.0812 -0.4630  0.3167
10128TIP3    H130325   3.761   6.417   5.619  0.7965  0.5356 -0.4215
10128TIP3    H230326   3.808   6.322   5.727 -1.4757 -0.4337 -0.2149
10129TIP3   OH230327   1.326   6.548   1.992 -0.2551  0.5646 -0.6055
10129TIP3    H130328   1.286   6.523   1.909  2.6486  1.0127 -2.3047
10129TIP3    H230329   1.400   6.488   2.001  0.0850  1.1912  1.1647
10130TIP3   OH230330   4.968   2.068   0.745 -0.2332 -0.7658  0.4511
10130TIP3    H130331   4.890   2.052   0.692 -0.1592  0.9848 -0.2194
10130TIP3    H230332   4.934   2.107   0.826 -0.1135 -0.9296  0.5826
10131TIP3   OH230333   4.460   7.835   0.151 -0.2393 -0.1031 -0.2569
10131TIP3    H130334   4.422   7.896   0.087  2.1710  0.9881 -0.7502
10131TIP3    H230335   4.547   7.817   0.118  0.9725  0.1850  2.5037
10132TIP3   OH230336   6.598   2.666   6.838  0.3019  0.3065  0.0549
10132TIP3    H130337   6.596   2.575   6.869  3.8632  0.0931  0.1196
10132TIP3    H230338   6.582   2.660   6.744  1.1002 -0.5180 -0.0488
10133TIP3   OH230339   0.242   3.905   4.678  0.0521  0.7598 -0.5580
10133TIP3    H130340   0.314   3.961   4.708  0.0836 -0.8620  2.8859
10133TIP3    H230341   0.284   3.841   4.621  0.9424  1.1713 -0.3772
10134TIP3   OH230342   1.326   3.070   6.765 -0.2282  0.0906 -0.0605
10134TIP3    H130343   1.241   3.079   6.723 -0.9456 -1.1849  1.0399
10134TIP3    H230344   1.380   3.021   6.702  0.7993  3.5684 -2.1349
10135TIP3   OH230345   3.348   3.610   1.149  0.8755  0.1267  0.0042
10135TIP3    H130346   3.359   3.619   1.244  0.2135 -0.3820  0.1319
10135TIP3    H230347   3.355   3.517   1.132  0.5540  0.1707 -0.3919
10136TIP3   OH230348   5.883   0.570   3.594  0.4302 -0.3793  0.2694
10136TIP3    H130349   5.957   0.618   3.559  1.1431 -1.3517  0.3797
10136TIP3    H230350   5.904   0.478   3.577 -1.1799 -0.6365 -0.5193
10137TIP3   OH230351   2.261   3.126   6.311 -0.2901  0.2273  1.0909
10137TIP3    H130352   2.235   3.095   6.224 -0.3437  1.4205  0.6581
10137TIP3    H230353   2.331   3.067   6.338 -1.0769 -0.8909  0.7645
10138TIP3   OH230354   0.910   2.537   3.768 -0.0272 -0.7662  0.2349
10138TIP3    H130355   0.837   2.494   3.724 -0.7023 -0.0163  0.5942
10138TIP3    H230356   0.905   2.628   3.739 -0.6636 -0.1833  2.0326
10139TIP3   OH230357   6.395   3.230   4.845  0.1584 -0.1229  0.0443
10139TIP3    H130358   6.388   3.212   4.939 -1.2086 -1.0491 -0.2065
10139TIP3    H230359   6.349   3.312   4.832 -1.5813 -1.0815 -0.1002
10140TIP3   OH230360   5.009   7.254   5.821 -0.3486  0.1876  0.4347
10140TIP3    H130361   4.948   7.198   5.773  0.1194  0.0777 -0.0508
10140TIP3    H230362   4.994   7.342   5.786  0.7346 -0.0510 -0.7330
10141TIP3   OH230363   8.389   6.910   4.636 -0.2244  0.0196 -0.6565
10141TIP3    H130364   8.477   6.873   4.643  0.0425  0.8216  0.6057
10141TIP3    H230365   8.351   6.896   4.723 -1.0286  0.4572 -0.9272
10142TIP3   OH230366   5.361   3.348   1.681  0.3499  0.0187 -0.3416
10142TIP3    H130367   5.395   3.282   1.741 -0.2151 -0.0816 -0.1236
10142TIP3    H230368   5.398   3.325   1.596 -0.1170 -0.7857 -0.3361
10143TIP3   OH230369   2.357   5.506   6.370  0.3333  0.3931 -0.3675
10143TIP3    H130370   2.399   5.590   6.350  1.5015  0.0394  0.4814
10143TIP3    H230371   2.406   5.472   6.444 -0.0538 -1.1014 -0.7636
10144TIP3   OH230372   6.481   7.521   3.307 -0.2452  0.1641 -0.2590
10144TIP3    H130373   6.577   7.514   3.306 -0.2108  0.5700 -0.9049
10144TIP3    H230374   6.451   7.432   3.320  0.2155 -0.3448 -2.2592
10145TIP3   OH230375   5.430   5.897   1.191  0.1380  0.0250  0.0013
10145TIP3    H130376   5.496   5.904   1.123 -1.6905  1.1839 -1.7802
10145TIP3    H230377   5.443   5.975   1.246  0.9530 -0.3618  0.3700
10146TIP3   OH230378   6.913   0.513   1.925 -0.3082 -0.6008  0.3040
10146TIP3    H130379   6.834   0.499   1.977 -0.4132 -1.6035 -0.1213
10146TIP3    H230380   6.938   0.604   1.944 -0.9772 -0.5980  1.2305
10147TIP3   OH230381   3.098   6.764   4.902  0.5220 -0.0595 -0.2846
10147TIP3    H130382   3.169   6.751   4.839 -1.0285  0.7927 -2.2856
10147TIP3    H230383   3.085   6.858   4.904  0.0505 -0.1348  0.7900
10148TIP3   OH230384   6.476   4.636   1.051 -0.5891  0.0420 -0.0800
10148TIP3    H130385   6.405   4.628   1.114  0.2080 -0.4617  0.7853
10148TIP3    H230386   6.490   4.730   1.042 -2.8019  0.2606 -1.9629
10149TIP3   OH230387   0.093   4.623   0.430  0.3707  0.0281 -0.3147
10149TIP3    H130388   0.176   4.617   0.479  0.4464  1.6923 -0.1798
10149TIP3    H230389   0.119   4.612   0.339  0.4733 -1.2445 -0.1607
10150TIP3   OH230390   2.591   1.463   5.390  0.0582 -0.2666  0.5978
10150TIP3    H130391   2.621   1.408   5.317  0.2033 -1.0496  1.2238
10150TIP3    H230392   2.670   1.477   5.442  0.3305  1.7284 -0.2690
10151TIP3   OH230393   1.679   6.305   1.372 -0.2677 -0.8418 -1.0010
10151TIP3    H130394   1.601   6.302   1.315 -0.4148 -0.9098 -0.7973
10151TIP3    H230395   1.645   6.288   1.460 -0.0950 -0.3634 -0.8402
10152TIP3   OH230396   2.106   6.177   6.182  0.2956  0.5033  0.1429
10152TIP3    H130397   2.148   6.159   6.265 -1.5584  0.7681  1.1909
10152TIP3    H230398   2.032   6.234   6.203  0.7924  2.0443 -1.9188
10153TIP3   OH230399   1.135   7.543   5.663 -0.2950 -0.0974 -0.5628
10153TIP3    H130400   1.080   7.474   5.627 -0.7921 -0.3544  0.6316
10153TIP3    H230401   1.146   7.519   5.755  1.0507  0.4421 -0.5546
10154TIP3   OH230402   2.311   3.588   3.253  0.2072  0.1917  0.6677
10154TIP3    H130403   2.221   3.554   3.251 -0.2992  1.3973  1.5639
10154TIP3    H230404   2.364   3.519   3.214 -1.0242 -0.8145  0.7251
10155TIP3   OH230405   0.663   5.655   6.720 -0.3827 -0.2684 -0.4068
10155TIP3    H130406   0.644   5.746   6.697  2.1822  0.9718  1.8865
10155TIP3    H230407   0.632   5.646   6.810  1.0152 -1.0693  0.0284
10156TIP3   OH230408   7.501   4.490   5.094  0.4814  0.1368  0.6394
10156TIP3    H130409   7.421   4.438   5.092 -0.7182  1.8997  0.3238
10156TIP3    H230410   7.493   4.549   5.018  1.2294  1.5446  1.6044
10157TIP3   OH230411   6.603   7.387   0.138 -0.3313 -0.6220  0.5225
10157TIP3    H130412   6.513   7.401   0.110  0.2239  2.2425 -0.1306
10157TIP3    H230413   6.622   7.460   0.196  2.0535 -0.1534 -0.7002
10158TIP3   OH230414   0.009   1.613   0.691 -0.1461  0.2393 -0.5409
10158TIP3    H130415   0.080   1.550   0.685 -1.6117 -1.7889  1.6874
10158TIP3    H230416  -0.053   1.586   0.623 -0.8243 -0.8443  0.4864
10159TIP3   OH230417   1.234   2.273   2.566 -0.1620  0.0143  0.3549
10159TIP3    H130418   1.219   2.239   2.478 -2.3462 -0.2729  0.7834
10159TIP3    H230419   1.189   2.357   2.567  0.8593  0.5732  0.8681
10160TIP3   OH230420   1.037   2.310   1.461  0.2131  0.2615 -0.3079
10160TIP3    H130421   0.991   2.268   1.534 -0.7341 -1.9086 -2.0735
10160TIP3    H230422   1.087   2.381   1.503 -0.5642 -0.6557  2.3858
10161TIP3   OH230423   0.469   3.690   4.620  0.1227 -0.1071 -0.0752
10161TIP3    H130424   0.405   3.680   4.550 -0.8076  2.0833  0.3799
10161TIP3    H230425   0.496   3.782   4.615  1.2839 -0.3227  1.4001
10162TIP3   OH230426   3.639   0.812   2.028  0.4185  0.1492  0.9667
10162TIP3    H130427   3.681   0.774   1.951  0.7149  0.2377  1.0866
10162TIP3    H230428   3.643   0.906   2.014  0.3342  0.1612  1.0193
10163TIP3   OH230429   6.633   5.095   1.326 -0.3347 -0.3831  0.2764
10163TIP3    H130430   6.648   5.184   1.359  0.0441 -0.3819  0.1151
10163TIP3    H230431   6.551   5.101   1.277  0.4790  0.2816 -1.0978
10164TIP3   OH230432   4.712   1.035   4.373 -0.0380  0.2513  0.5154
10164TIP3    H130433   4.631   1.044   4.424  0.5855  0.4299  1.4960
10164TIP3    H230434   4.768   1.106   4.405 -0.4116  1.7676 -1.9601
10165TIP3   OH230435   3.935   4.445   4.339  0.1450  0.3096  0.4224
10165TIP3    H130436   3.951   4.506   4.267  1.7444 -1.2259 -0.6165
10165TIP3    H230437   3.913   4.362   4.296 -0.5822 -0.2324  1.7565
10166TIP3   OH230438   1.334   3.471   5.756 -0.2261 -0.0295 -0.6734
10166TIP3    H130439   1.418   3.426   5.753  0.9206  1.7137  1.9918
10166TIP3    H230440   1.350   3.555   5.713 -0.4937  0.4529  0.1576
10167TIP3   OH230441   0.190   6.091   2.807 -0.2001 -0.0944  0.7229
10167TIP3    H130442   0.103   6.052   2.813 -0.5708  0.4560 -0.7414
10167TIP3    H230443   0.247   6.017   2.786 -0.8973  0.0627 -2.0278
10168TIP3   OH230444   7.084   3.117   4.341  0.3929  0.1428  0.4308
10168TIP3    H130445   7.130   3.033   4.336  1.4874  0.7652 -0.5774
10168TIP3    H230446   7.058   3.135   4.250  0.8585  1.2440  0.5015
10169TIP3   OH230447   6.685   6.223   4.890  0.2662  0.6087  0.0759
10169TIP3    H130448   6.667   6.316   4.875  0.1163  0.5376 -0.1946
10169TIP3    H230449   6.727   6.221   4.976 -4.0190  0.4646  2.4323
10170TIP3   OH230450   0.624   6.887   2.402  0.5409  0.4688  0.2495
10170TIP3    H130451   0.574   6.958   2.363  0.7179 -0.5683 -2.0225
10170TIP3    H230452   0.709   6.927   2.424 -0.3422  1.6128  1.7616
10171TIP3   OH230453   7.697   0.038   2.126  0.4605  0.0409 -0.1344
10171TIP3    H130454   7.775   0.046   2.182  1.4137  0.2324 -1.4503
10171TIP3    H230455   7.666   0.128   2.115  0.9906  0.1446 -0.8721
10172TIP3   OH230456   5.500   3.264   1.466 -0.2631 -0.0200  0.9315
10172TIP3    H130457   5.542   3.196   1.413  1.1347  1.0335  0.6122
10172TIP3    H230458   5.564   3.335   1.467 -1.4575  1.0729  1.7160
10173TIP3   OH230459   2.182   1.530   1.522 -0.0411  0.9144  0.5461
10173TIP3    H130460   2.137   1.533   1.438  1.2715 -0.2267 -0.2320
10173TIP3    H230461   2.274   1.539   1.500  0.5228 -1.6022  1.6282
10174TIP3   OH230462   5.036   5.285   1.443 -0.1046  0.0771 -0.1414
10174TIP3    H130463   5.016   5.238   1.362  0.2181 -1.3441  0.5608
10174TIP3    H230464   5.018   5.377   1.423 -0.8559 -0.3448 -1.5502
10175TIP3   OH230465   7.791   0.899   1.578  0.1114 -0.2696 -0.2467
10175TIP3    H130466   7.810   0.810   1.606 -1.6874 -1.1903 -1.8086
10175TIP3    H230467   7.837   0.908   1.494 -1.1541 -0.3800 -0.9744
10176TIP3   OH230468   0.047   5.878   5.325  0.2284 -0.3729  0.5020
10176TIP3    H130469  -0.035   5.907   5.366 -1.0502 -3.3166  0.3112
10176TIP3    H230470   0.056   5.933   5.248 -1.6861 -0.0680  0.4381
10177TIP3   OH230471   2.710   1.487   0.885 -0.1688 -0.1144 -0.4552
10177TIP3    H130472   2.703   1.450   0.973 -1.1086  0.8417 -0.1122
10177TIP3    H230473   2.637   1.449   0.836  0.9123 -1.4077 -1.1426
10178TIP3   OH230474   6.151   1.631   4.897  0.4712  0.0409  0.1800
10178TIP3    H130475   6.196   1.713   4.918  1.8172 -0.1519 -1.7833
10178TIP3    H230476   6.220   1.566   4.886 -0.3887 -0.7421 -0.9237
10179TIP3   OH230477   7.625   1.015   4.810 -0.4224  0.1147  0.0907
10179TIP3    H130478   7.633   0.919   4.814  0.0978  0.0746 -1.4093
10179TIP3    H230479   7.651   1.038   4.721 -1.1803  1.6075  0.2199
10180TIP3   OH230480   3.154   3.672   2.484  0.7705 -0.1628  0.5547
10180TIP3    H130481   3.097   3.698   2.556 -2.8290 -0.2605 -1.9273
10180TIP3    H230482   3.147   3.577   2.481  0.1922 -0.1105 -0.3408
10181TIP3   OH230483   7.623   3.161   4.556 -0.0406  0.1196 -0.1001
10181TIP3    H130484   7.655   3.186   4.469  0.9509  2.1563  0.7743
10181TIP3    H230485   7.667   3.222   4.616 -1.6991 -0.3676  1.7122
10182TIP3   OH230486   3.469   6.191   0.823 -0.5048  0.6483 -0.5510
10182TIP3    H130487   3.541   6.253   0.823  0.6679 -0.6698 -0.8711
10182TIP3    H230488   3.436   6.192   0.733 -1.6418  2.0653 -0.1446
10183TIP3   OH230489   0.183   5.770   6.507  0.9562  0.0757 -0.1069
10183TIP3    H130490   0.129   5.755   6.584 -0.0076 -0.0502 -0.7810
10183TIP3    H230491   0.261   5.716   6.521 -0.0475 -1.4263 -0.0513
10184TIP3   OH230492   4.237   2.787   6.698 -0.2821 -0.2321 -0.1820
10184TIP3    H130493   4.250   2.694   6.680 -0.5089 -0.1926 -0.5541
10184TIP3    H230494   4.201   2.790   6.787 -3.8946 -0.7502 -1.4878
10185TIP3   OH230495   4.934   3.227   1.923 -0.4100 -0.6152  0.0174
10185TIP3    H130496   4.936   3.168   1.848  0.7981 -1.0277  0.3482
10185TIP3    H230497   4.971   3.309   1.890 -0.3512 -0.6365  0.0301
10186TIP3   OH230498   3.240   1.142   6.589  0.7397  0.6522  0.1784
10186TIP3    H130499   3.171   1.203   6.615  1.8527  1.9849  0.1035
10186TIP3    H230500   3.264   1.169   6.501  0.1186 -0.9768 -0.5259
10187TIP3   OH230501   0.911   4.388   2.561  0.1494  0.1455 -0.3537
10187TIP3    H130502   0.842   4.392   2.627  1.3359  0.3938  0.9178
10187TIP3    H230503   0.876   4.332   2.492 -1.5502  0.7761 -0.0385
10188TIP3   OH230504   6.174   1.954   6.401 -0.1192  0.2048  0.3527
10188TIP3    H130505   6.177   1.861   6.377 -0.5084  0.3454 -0.2728
10188TIP3    H230506   6.099   1.988   6.352  0.7187  1.1052 -0.3410
10189TIP3   OH230507   3.358   7.889   2.992 -0.5523  0.1134 -0.1737
10189TIP3    H130508   3.281   7.851   2.950 -1.6110  0.9845  0.8943
10189TIP3    H230509   3.335   7.981   3.005  1.0433  0.6113 -0.6383
10190TIP3   OH230510   4.692   7.812   4.530  0.2018 -0.0546 -0.1929
10190TIP3    H130511   4.668   7.893   4.575 -0.6185 -0.0741 -0.5785
10190TIP3    H230512   4.733   7.841   4.449 -0.7977 -0.0204 -0.6924
10191TIP3   OH230513   1.882   1.335   0.904 -0.3523  0.4443  0.2174
10191TIP3    H130514   1.882   1.430   0.905  0.2276  0.4521  1.4332
10191TIP3    H230515   1.965   1.311   0.864 -0.5906  0.4431 -0.2815
10192TIP3   OH230516   7.896   6.425   6.638  0.5144 -0.2828 -0.2459
10192TIP3    H130517   7.891   6.337   6.675  1.0562  0.1875  0.9856
10192TIP3    H230518   7.981   6.458   6.665 -0.1230  1.0201  0.2599
10193TIP3   OH230519   4.777   6.791   1.732 -0.5413  0.1063 -0.0804
10193TIP3    H130520   4.869   6.817   1.732 -0.3066 -0.6898  0.0956
10193TIP3    H230521   4.748   6.802   1.822 -0.2454 -0.8766  0.1468
10194TIP3   OH230522   3.706   5.356   1.668  0.2227 -0.2483  0.6985
10194TIP3    H130523   3.712   5.441   1.711  0.7223 -0.0641  0.2719
10194TIP3    H230524   3.775   5.303   1.710 -0.2746 -0.5435  1.1670
10195TIP3   OH230525   7.303   7.341   3.850 -0.2212 -0.2224 -0.1569
10195TIP3    H130526   7.350   7.402   3.906 -0.6047  1.6784 -1.8117
10195TIP3    H230527   7.361   7.325   3.776 -1.5053  1.0477 -1.5230
10196TIP3   OH230528   3.576   6.176   2.289 -0.3626  0.1563  0.3654
10196TIP3    H130529   3.498   6.121   2.280 -0.0679 -0.2946  0.5307
10196TIP3    H230530   3.649   6.119   2.267 -0.0595  0.5202  0.4058
10197TIP3   OH230531   0.399   2.383   4.439  0.5051  0.1119 -0.2752
10197TIP3    H130532   0.425   2.444   4.508  0.5439  0.0150 -0.2031
10197TIP3    H230533   0.344   2.319   4.484 -1.2271  1.2114 -0.7192
10198TIP3   OH230534   2.502   2.039   2.101  0.3571  0.2641  0.1316
10198TIP3    H130535   2.529   2.015   2.012  2.0274 -0.1390  0.6944
10198TIP3    H230536   2.444   2.114   2.090  0.2310 -0.0211 -1.3155
10199TIP3   OH230537   1.047   0.797   4.902 -0.4916 -0.1549 -0.4749
10199TIP3    H130538   0.996   0.863   4.949  2.4588  0.4275  2.2762
10199TIP3    H230539   1.006   0.714   4.925 -0.7010  0.3357  1.0014
10200TIP3   OH230540   3.589   6.207   4.975  0.4363 -0.5249 -0.3968
10200TIP3    H130541   3.665   6.214   4.918  0.5404 -3.3622 -0.7444
10200TIP3    H230542   3.529   6.148   4.928 -0.0974 -1.7866  1.7246
10201TIP3   OH230543   5.135   7.663   6.613  0.1507  0.3922  0.3328
10201TIP3    H130544   5.127   7.688   6.705 -0.2903 -2.0350  1.0117
10201TIP3    H230545   5.045   7.649   6.584  0.3759 -0.9375  0.1996
10202TIP3   OH230546   5.726   3.793   1.373  0.4159  0.4950 -0.5540
10202TIP3    H130547   5.709   3.777   1.280 -1.8239  2.3870 -0.5691
10202TIP3    H230548   5.660   3.858   1.399 -0.3922 -1.4345  2.8774
10203TIP3   OH230549   2.973   6.852   4.172 -0.0480  0.1496  0.8359
10203TIP3    H130550   2.907   6.797   4.214 -1.2130  1.2853  0.5311
10203TIP3    H230551   2.924   6.923   4.131  1.2204  0.1805 -0.7527
10204TIP3   OH230552   4.444   3.018  -0.014 -0.2451  0.3291 -0.4443
10204TIP3    H130553   4.472   3.007   0.077 -0.3551 -0.2808 -0.4805
10204TIP3    H230554   4.356   2.980  -0.016  0.0671 -0.3805 -0.9838
10205TIP3   OH230555   5.949   7.098   5.772  0.0028 -0.2733  0.3694
10205TIP3    H130556   5.977   7.043   5.845  1.0267  0.4824  0.5694
10205TIP3    H230557   5.932   7.183   5.811  0.1592  0.0265 -0.1985
10206TIP3   OH230558   0.283   5.517   6.780 -0.2319 -0.0162 -0.2536
10206TIP3    H130559   0.290   5.595   6.836  0.0686 -0.3988  0.2595
10206TIP3    H230560   0.193   5.488   6.791  0.2848 -1.1486  1.5309
10207TIP3   OH230561   6.117   3.702   0.581  0.1112 -0.0289  0.1586
10207TIP3    H130562   6.097   3.796   0.581 -1.5742 -0.3416 -0.8284
10207TIP3    H230563   6.079   3.669   0.662  0.8527  0.1605  0.5875
10208TIP3   OH230564   5.874   2.790   0.550 -0.2609 -0.4179  0.1266
10208TIP3    H130565   5.894   2.870   0.599  1.3125 -0.6566 -0.0970
10208TIP3    H230566   5.870   2.819   0.459 -0.7763 -0.4102  0.1485
10209TIP3   OH230567   6.436   7.748   1.763  0.2544  0.3525 -0.7963
10209TIP3    H130568   6.385   7.732   1.684 -0.6901 -0.8730  0.0107
10209TIP3    H230569   6.371   7.774   1.829  0.7489 -0.5575  0.0774
10210TIP3   OH230570   5.559   5.067   4.269  0.1165  0.5444 -0.5006
10210TIP3    H130571   5.564   5.005   4.197  2.3196 -0.2731  0.2534
10210TIP3    H230572   5.571   5.153   4.229  0.9093  0.1328 -1.1767
10211TIP3   OH230573   3.979   6.999   3.247 -0.7995  0.4945  0.6180
10211TIP3    H130574   4.018   6.932   3.191  0.2798  2.1112 -0.6711
10211TIP3    H230575   3.956   6.953   3.328  2.7679 -0.8194  1.0466
10212TIP3   OH230576   1.592   5.550   0.260  0.2581  0.2264 -0.3285
10212TIP3    H130577   1.629   5.569   0.346 -0.1488 -2.5187  0.5482
10212TIP3    H230578   1.524   5.485   0.276 -0.5249  0.3619 -2.6375
10213TIP3   OH230579   1.871   0.336   3.459  0.2659  0.3044 -0.1216
10213TIP3    H130580   1.925   0.380   3.393  0.1172  0.7562  0.0587
10213TIP3    H230581   1.844   0.405   3.519  2.6454 -0.4668  2.0161
10214TIP3   OH230582   2.643   7.437   2.999  0.8305  0.7856  0.8679
10214TIP3    H130583   2.722   7.438   2.946  0.8101 -0.4978  0.7797
10214TIP3    H230584   2.674   7.443   3.090  0.9756  1.2259  0.7857
10215TIP3   OH230585   6.591   3.289   0.291 -0.1040  0.6953  0.1112
10215TIP3    H130586   6.562   3.219   0.349 -0.4101  1.3645  0.7716
10215TIP3    H230587   6.686   3.291   0.302  0.2150 -1.2343 -1.7623
10216TIP3   OH230588   1.529   6.365   2.030  0.3634  0.2229 -0.0300
10216TIP3    H130589   1.527   6.273   2.002 -2.7001  0.3479 -0.6063
10216TIP3    H230590   1.557   6.362   2.121 -1.0123 -1.4763  0.3924
10217TIP3   OH230591   7.536   0.498   4.209  0.8797 -0.1091 -0.7802
10217TIP3    H130592   7.459   0.444   4.222  0.0044  1.3230  0.2155
10217TIP3    H230593   7.610   0.438   4.217 -0.0030 -0.9763  1.4863
10218TIP3   OH230594   0.261   4.661   3.842  0.3970  0.2201 -0.5069
10218TIP3    H130595   0.340   4.698   3.881 -0.0427 -0.1438  0.8087
10218TIP3    H230596   0.272   4.567   3.851  0.3453  0.1148 -1.4441
10219TIP3   OH230597   6.824   0.272   0.857  0.1144 -0.0915 -0.5564
10219TIP3    H130598   6.781   0.258   0.773  0.1076 -0.6222 -0.4716
10219TIP3    H230599   6.834   0.367   0.864 -1.3084  0.0827 -0.4483
10220TIP3   OH230600   1.334   5.715   0.129  0.3935  0.3198  0.6751
10220TIP3    H130601   1.314   5.624   0.111  1.4721  0.4338 -1.4009
10220TIP3    H230602   1.250   5.754   0.154 -0.3774 -0.9019  0.0836
10221TIP3   OH230603   1.580   1.558   2.442  0.5906  0.0659  0.2250
10221TIP3    H130604   1.543   1.488   2.388  1.5438  0.0261 -0.3965
10221TIP3    H230605   1.675   1.547   2.435  0.7503 -0.3407  2.4569
10222TIP3   OH230606   7.901   2.388   1.368  0.0844 -0.1587  0.0743
10222TIP3    H130607   7.821   2.439   1.359 -0.6294 -1.2090  0.4086
10222TIP3    H230608   7.874   2.298   1.355  1.4431 -0.4207 -1.1767
10223TIP3   OH230609   4.867   5.491   3.445  0.1309 -0.5295  0.1939
10223TIP3    H130610   4.785   5.460   3.484  0.6481 -1.9533  0.2009
10223TIP3    H230611   4.918   5.525   3.519  0.2927 -1.3668  0.4730
10224TIP3   OH230612   5.592   6.030   3.729 -0.7271 -0.1501  0.1596
10224TIP3    H130613   5.640   6.077   3.661 -0.7653 -0.0401  0.2084
10224TIP3    H230614   5.581   5.941   3.694  0.4965 -0.5026  0.6211
10225TIP3   OH230615   5.222   3.811   4.499 -0.3633  0.3180 -0.2679
10225TIP3    H130616   5.192   3.830   4.587  0.8094  0.2311  0.1709
10225TIP3    H230617   5.143   3.786   4.451 -0.8933 -0.4843  0.9783
10226TIP3   OH230618   1.651   0.314   6.367 -0.3006 -0.0221  0.3689
10226TIP3    H130619   1.656   0.329   6.272  0.5573  0.3121  0.4560
10226TIP3    H230620   1.739   0.336   6.399 -0.2613 -1.1764  1.0984
10227TIP3   OH230621   4.910   4.196   0.237  0.4751 -0.0322 -0.1019
10227TIP3    H130622   4.993   4.231   0.269  0.5668 -1.2269  1.0880
10227TIP3    H230623   4.852   4.200   0.313 -0.5057  0.6014 -0.8702
10228TIP3   OH230624   0.925   2.005   1.978 -0.1321  0.3053  0.6958
10228TIP3    H130625   0.913   1.964   1.892  0.4297  2.3853 -0.4654
10228TIP3    H230626   0.842   1.992   2.023 -0.1284 -1.6542  0.2545
10229TIP3   OH230627   7.311   6.281   5.652  0.1009 -0.1831 -0.2725
10229TIP3    H130628   7.343   6.258   5.565  1.3183 -3.3087  0.8668
10229TIP3    H230629   7.216   6.268   5.648 -0.3720  2.7600 -1.8586
10230TIP3   OH230630   0.018   5.394   5.070  0.3996 -0.2133 -0.1216
10230TIP3    H130631   0.112   5.395   5.090  0.3970 -2.1524  0.2077
10230TIP3    H230632  -0.021   5.447   5.140  1.1036 -0.7249  0.6869
10231TIP3   OH230633   4.688   5.579   6.494 -0.2847  0.3393 -0.4933
10231TIP3    H130634   4.627   5.651   6.512 -0.7741 -0.4590  1.2189
10231TIP3    H230635   4.772   5.623   6.477 -0.8915  1.3583 -1.0014
10232TIP3   OH230636   6.510   6.532   2.419  0.1836  0.1577  0.5060
10232TIP3    H130637   6.533   6.604   2.477  0.6775  0.2569  0.1860
10232TIP3    H230638   6.421   6.552   2.390 -0.5261 -0.4626  2.1088
10233TIP3   OH230639   2.956   1.317   5.273 -0.4959 -0.0206  0.3614
10233TIP3    H130640   2.866   1.286   5.263  0.4199 -2.4805 -1.5321
10233TIP3    H230641   3.006   1.237   5.292  1.5261  0.9364 -0.6609
10234TIP3   OH230642   8.399   0.633   5.779 -0.4596  0.1531  0.1984
10234TIP3    H130643   8.311   0.649   5.745 -0.1843  5.3060  1.0885
10234TIP3    H230644   8.393   0.658   5.871  2.2031  2.2602 -0.1007
10235TIP3   OH230645   7.168   2.066   0.946  0.4537  0.5322 -0.4310
10235TIP3    H130646   7.224   2.143   0.932  1.0247  0.1353 -0.3618
10235TIP3    H230647   7.108   2.093   1.016  0.0689  1.2157 -1.0030
10236TIP3   OH230648   4.246   4.016   0.026  0.2525 -0.2076  0.0847
10236TIP3    H130649   4.274   3.951  -0.039  0.7967 -0.1468  0.2506
10236TIP3    H230650   4.259   3.972   0.111 -0.4683 -0.2930  0.1584
10237TIP3   OH230651   4.789   4.789   5.680 -0.6395  0.6511 -0.3762
10237TIP3    H130652   4.804   4.720   5.745 -3.2967 -1.3567 -1.6824
10237TIP3    H230653   4.813   4.870   5.725  1.1366 -0.9526  1.7783
10238TIP3   OH230654   0.565   0.060   3.932 -0.1806 -0.6814 -0.0200
10238TIP3    H130655   0.567  -0.036   3.927  2.9645 -0.6772 -0.4689
10238TIP3    H230656   0.590   0.089   3.844  1.1561  0.4849  0.7149
10239TIP3   OH230657   3.380   0.142   4.951 -0.1989 -0.5744 -0.1062
10239TIP3    H130658   3.291   0.121   4.981  0.0151 -0.1086  0.9014
10239TIP3    H230659   3.434   0.074   4.990  0.0430 -0.1358  0.3392
10240TIP3   OH230660   1.249   6.150   1.094 -0.4608 -0.1371 -0.0516
10240TIP3    H130661   1.168   6.101   1.105 -0.8564 -0.5076 -3.5190
10240TIP3    H230662   1.293   6.107   1.021  1.1588  2.1923 -0.5646
10241TIP3   OH230663   7.183   6.553   5.524  0.0573 -0.2073 -0.0355
10241TIP3    H130664   7.148   6.580   5.609 -0.1936 -0.8267  0.0672
10241TIP3    H230665   7.173   6.457   5.524 -0.8177 -0.1368 -1.1492
10242TIP3   OH230666   3.212   3.535   1.567  0.1837  0.4811  0.0860
10242TIP3    H130667   3.183   3.626   1.561  1.3819  0.8070 -1.2332
10242TIP3    H230668   3.190   3.509   1.657  2.2146  2.9318  1.4258
10243TIP3   OH230669   4.099   6.850   1.074 -0.2702 -0.2102 -0.6579
10243TIP3    H130670   4.021   6.856   1.130 -0.2779 -0.3888 -0.6500
10243TIP3    H230671   4.104   6.936   1.032  0.2897  0.2638  0.3457
10244TIP3   OH230672   0.879   7.473   4.315 -0.1490 -0.0686 -0.0441
10244TIP3    H130673   0.866   7.458   4.222  0.1522  1.2040 -0.3222
10244TIP3    H230674   0.804   7.432   4.358 -0.9416  0.4042 -0.9519
10245TIP3   OH230675   0.467   4.729   5.057 -0.3772  0.5141 -0.0794
10245TIP3    H130676   0.403   4.712   4.988 -2.6242  2.3006  1.4294
10245TIP3    H230677   0.522   4.651   5.058 -0.3901  0.3009 -3.6463
10246TIP3   OH230678   1.477   5.734   6.722 -0.1606  0.8697 -0.3342
10246TIP3    H130679   1.499   5.774   6.806  0.4019 -0.0364 -0.0270
10246TIP3    H230680   1.467   5.808   6.662  0.9645  1.4720  0.1812
10247TIP3   OH230681   7.688   2.734   3.323  0.1088 -0.5096  0.2711
10247TIP3    H130682   7.756   2.689   3.273 -0.3630  0.7216 -1.5737
10247TIP3    H230683   7.693   2.825   3.295 -1.4079 -0.1249  1.1091
10248TIP3   OH230684   8.045   1.784   4.824 -0.3144 -0.0759  0.1763
10248TIP3    H130685   8.015   1.737   4.746 -2.5283  1.8625 -0.2350
10248TIP3    H230686   8.032   1.722   4.896 -2.5242 -0.3808 -0.4301
10249TIP3   OH230687   1.097   6.461   3.769  0.3352 -0.3658  0.5444
10249TIP3    H130688   1.133   6.424   3.849  1.1171  0.2349  0.4704
10249TIP3    H230689   1.095   6.387   3.708  1.3497 -0.4341  0.5820
10250TIP3   OH230690   5.611   5.842   5.766 -0.2890 -0.5508  0.0567
10250TIP3    H130691   5.556   5.824   5.689 -0.1056  0.1445 -0.2442
10250TIP3    H230692   5.588   5.773   5.828 -1.0640 -0.6258 -0.2942
10251TIP3   OH230693   4.978   1.506   1.143  0.1786  0.0683  0.2000
10251TIP3    H130694   4.923   1.568   1.095  0.2590  0.0916  0.1386
10251TIP3    H230695   4.918   1.437   1.171  0.3192 -0.4943 -0.8406
10252TIP3   OH230696   2.787   7.916   3.721  0.1143 -0.2135  0.0214
10252TIP3    H130697   2.808   7.945   3.633  1.1458 -0.1506  0.2801
10252TIP3    H230698   2.750   7.828   3.709  0.4900 -0.3115 -0.4549
10253TIP3   OH230699   4.714   7.658   1.013  0.1216 -0.6291 -0.4686
10253TIP3    H130700   4.621   7.673   0.996 -0.3150 -1.9781  0.6179
10253TIP3    H230701   4.746   7.743   1.045 -1.3991 -0.8611  1.8840
10254TIP3   OH230702   2.741   6.445   5.835 -0.0645  0.3298  0.8122
10254TIP3    H130703   2.688   6.384   5.886 -0.4912  1.9894  2.4607
10254TIP3    H230704   2.795   6.389   5.779 -1.1393 -1.4994  1.5116
10255TIP3   OH230705   3.652   1.356   0.393  0.3091  0.0957  0.5561
10255TIP3    H130706   3.577   1.390   0.344  0.0002  0.0505  0.9938
10255TIP3    H230707   3.719   1.341   0.327 -0.3853 -0.7555  0.0377
10256TIP3   OH230708   3.010   3.363   1.464 -0.0206 -0.1314  0.5291
10256TIP3    H130709   3.072   3.402   1.526  0.9501  0.6585 -0.8984
10256TIP3    H230710   3.052   3.371   1.379 -2.1345  0.5195 -0.5294
10257TIP3   OH230711   1.908   7.517   1.660 -0.0895 -0.6085  0.1712
10257TIP3    H130712   1.921   7.473   1.745  1.7713  0.0798  0.2882
10257TIP3    H230713   1.982   7.578   1.653 -1.7767  1.4690 -0.6421
10258TIP3   OH230714   3.289   2.681   2.642  0.4054  0.6041  0.0726
10258TIP3    H130715   3.342   2.685   2.721  2.3322  1.8026 -1.1916
10258TIP3    H230716   3.201   2.704   2.670  0.5875 -0.9583  2.1785
10259TIP3   OH230717   0.208   5.055   2.304 -0.3375 -0.3247  0.1387
10259TIP3    H130718   0.209   4.995   2.229 -1.3909  1.6459 -1.5377
10259TIP3    H230719   0.266   5.126   2.279  0.2614 -0.2039  1.7486
10260TIP3   OH230720   2.846   4.930   1.746 -0.0423  0.6206  0.0566
10260TIP3    H130721   2.915   4.876   1.710 -1.6015 -0.9685 -0.7108
10260TIP3    H230722   2.889   4.983   1.814  1.6240 -1.3044  0.5855
10261TIP3   OH230723   8.198   6.778   3.850  0.2987  0.2317  0.0176
10261TIP3    H130724   8.208   6.735   3.935  0.8231  0.1280 -0.0901
10261TIP3    H230725   8.137   6.849   3.866  0.9210  0.6390  0.6431
10262TIP3   OH230726   3.503   6.587   4.452 -0.0075  0.5940  0.0511
10262TIP3    H130727   3.453   6.655   4.405  0.7921  1.8853  1.0092
10262TIP3    H230728   3.592   6.623   4.458  0.1933 -0.0878  1.4727
10263TIP3   OH230729   1.496   4.198   0.871 -0.7519 -0.2568  0.3084
10263TIP3    H130730   1.576   4.178   0.919 -1.0400  0.2042  0.9951
10263TIP3    H230731   1.501   4.292   0.853 -1.5827 -0.0246  1.2136
10264TIP3   OH230732   5.035   6.032   4.392  0.5348  0.3044 -0.3155
10264TIP3    H130733   5.036   5.975   4.315 -0.4523 -2.3978  1.5250
10264TIP3    H230734   5.062   5.975   4.464 -0.0323  2.3259  1.6071
10265TIP3   OH230735   0.824   4.492   3.349 -0.3955  0.2103  1.1194
10265TIP3    H130736   0.739   4.520   3.313  0.1147 -0.1612 -0.4382
10265TIP3    H230737   0.802   4.422   3.410 -1.3203  1.0971  1.8525
10266TIP3   OH230738   6.917   2.814   6.464 -0.0373 -1.0434  0.1446
10266TIP3    H130739   6.887   2.763   6.540  0.2128 -1.2847  0.0822
10266TIP3    H230740   6.890   2.762   6.389 -2.5897  0.3933 -0.0578
10267TIP3   OH230741   6.886   1.336   6.518 -0.3997 -0.3607 -0.0202
10267TIP3    H130742   6.972   1.303   6.493  0.8621  2.4828  0.1654
10267TIP3    H230743   6.882   1.424   6.480 -2.8383 -0.0451  0.7826
10268TIP3   OH230744   3.672   3.254   2.477  0.3004  0.1475  0.1195
10268TIP3    H130745   3.660   3.280   2.386  0.4660  0.1725  0.1043
10268TIP3    H230746   3.767   3.247   2.487  0.2768 -3.5371 -0.7606
10269TIP3   OH230747   0.970   5.916   5.393 -0.3892  0.8709 -0.2167
10269TIP3    H130748   1.033   5.862   5.441  0.1547 -0.4204 -2.3033
10269TIP3    H230749   0.981   6.004   5.431  1.2560  0.2694  0.8135
10270TIP3   OH230750   0.932   1.344   3.990  0.1531 -0.7663  0.0571
10270TIP3    H130751   0.848   1.382   3.965  1.2732  0.6581 -1.7772
10270TIP3    H230752   0.910   1.276   4.054 -2.3274 -0.1361 -0.0460
10271TIP3   OH230753   7.260   3.859   1.240 -0.2822 -0.1505  0.3073
10271TIP3    H130754   7.320   3.898   1.303  0.6447 -2.3525  0.8591
10271TIP3    H230755   7.188   3.825   1.293  1.0642 -3.0645  0.4355
10272TIP3   OH230756   0.968   0.400   6.737  0.4396  0.4846  0.2201
10272TIP3    H130757   1.047   0.398   6.683  0.7563  0.5730  0.6814
10272TIP3    H230758   0.986   0.467   6.803  0.0020  0.4629  0.3631
10273TIP3   OH230759   4.760   0.184   5.582 -0.0166 -0.3384 -0.5548
10273TIP3    H130760   4.837   0.241   5.579 -0.4737  0.3063 -0.2666
10273TIP3    H230761   4.691   0.235   5.539 -0.6468 -0.3415  0.4284
10274TIP3   OH230762   5.206   7.568   1.177  0.2359  0.0790 -0.5521
10274TIP3    H130763   5.191   7.577   1.271 -1.9997 -0.9752 -0.7398
10274TIP3    H230764   5.301   7.577   1.166  0.6588 -0.7896  1.9228
10275TIP3   OH230765   6.750   6.646   6.078  0.2044  0.1797 -0.5419
10275TIP3    H130766   6.732   6.699   6.000 -0.1754  0.7211 -0.0965
10275TIP3    H230767   6.799   6.571   6.045 -0.2906  0.2020 -1.3581
10276TIP3   OH230768   8.216   5.135   3.802 -0.0878  0.3077  0.1724
10276TIP3    H130769   8.227   5.041   3.790 -0.8439  0.0469  1.3913
10276TIP3    H230770   8.123   5.147   3.819 -0.2628  1.4576 -1.2764
10277TIP3   OH230771   4.313   7.639   0.512 -0.3925  0.6238 -0.6871
10277TIP3    H130772   4.295   7.671   0.423  0.9308  1.8573 -0.5403
10277TIP3    H230773   4.313   7.718   0.566 -1.0582 -0.1043  0.4135
10278TIP3   OH230774   8.094   5.200   1.064  0.0262 -0.4030 -1.0509
10278TIP3    H130775   8.046   5.282   1.049  0.8303  0.0115 -1.4261
10278TIP3    H230776   8.048   5.158   1.136 -0.3373  0.4398 -0.7804
10279TIP3   OH230777   4.902   6.523   0.305 -0.1976 -0.3147 -0.7406
10279TIP3    H130778   4.898   6.612   0.270  3.1954 -0.0563 -0.8322
10279TIP3    H230779   4.902   6.467   0.228 -2.3453 -0.4791 -0.6826
10280TIP3   OH230780   7.435   4.380   0.347 -0.2521 -0.3899 -0.2811
10280TIP3    H130781   7.490   4.422   0.412 -0.1864 -0.9206  0.0088
10280TIP3    H230782   7.365   4.444   0.329  0.6292  0.4282 -0.9083
10281TIP3   OH230783   1.125   1.637   5.257  0.1123  0.2035 -0.1691
10281TIP3    H130784   1.198   1.576   5.251 -0.1388 -0.0915 -0.2859
10281TIP3    H230785   1.077   1.626   5.175 -1.7788 -1.8384  1.0846
10282TIP3   OH230786   7.434   6.717   0.408 -0.5257  0.3246  0.2053
10282TIP3    H130787   7.351   6.759   0.385 -0.5093  0.3397  0.1746
10282TIP3    H230788   7.465   6.678   0.326 -0.2874  0.6866  0.1212
10283TIP3   OH230789   2.012   4.097   1.886  0.4636 -0.0652  0.3190
10283TIP3    H130790   2.097   4.080   1.845 -0.0483 -1.5220 -0.2319
10283TIP3    H230791   1.979   4.175   1.841  1.7777  0.9492  1.0315
10284TIP3   OH230792   0.088   7.201   1.101 -0.3036 -0.1757  0.6171
10284TIP3    H130793   0.082   7.240   1.188  3.6020  0.1344  0.9485
10284TIP3    H230794   0.105   7.275   1.042 -1.7195 -0.5196 -0.2894
10285TIP3   OH230795   4.045   7.699   2.296 -0.2724 -0.1710 -0.0222
10285TIP3    H130796   3.997   7.617   2.303  0.0710 -0.3207  0.7335
10285TIP3    H230797   4.127   7.676   2.252 -0.1107 -0.2649  0.3258
10286TIP3   OH230798   4.925   1.364   0.167 -0.7123  0.2750  0.2250
10286TIP3    H130799   4.865   1.435   0.194 -0.4295  0.3157  0.7444
10286TIP3    H230800   4.880   1.284   0.193 -1.5438  0.1950 -1.3472
10287TIP3   OH230801   3.250   0.826   4.940  0.3978  0.8948  0.3953
10287TIP3    H130802   3.318   0.763   4.964 -1.1650 -0.3538  1.7429
10287TIP3    H230803   3.203   0.785   4.868 -0.3119  0.7395  0.9394
10288TIP3   OH230804   2.978   3.943   6.168  0.7198  0.0632  0.2230
10288TIP3    H130805   3.044   3.982   6.110 -0.6782  1.5139 -0.4772
10288TIP3    H230806   3.017   3.945   6.255  2.1046 -0.3625 -0.3678
10289TIP3   OH230807   8.107   2.573   3.544  0.0590 -0.7438  0.3515
10289TIP3    H130808   8.081   2.661   3.518  0.7395 -0.3939  0.8185
10289TIP3    H230809   8.111   2.576   3.639 -1.1774 -1.6539  0.4530
10290TIP3   OH230810   5.187   3.492   2.056  0.0668 -0.0585  0.1481
10290TIP3    H130811   5.212   3.548   2.129  1.8931 -1.6745  0.8549
10290TIP3    H230812   5.177   3.405   2.095 -0.1536 -0.7197 -1.3116
10291TIP3   OH230813   0.285   1.743   0.579 -0.2362 -0.0491 -0.2069
10291TIP3    H130814   0.330   1.665   0.613  2.8838  1.4402 -0.6142
10291TIP3    H230815   0.201   1.744   0.626  1.0049 -1.8491  2.2952
10292TIP3   OH230816   4.782   5.909   4.301 -1.0277 -0.2301 -0.2563
10292TIP3    H130817   4.695   5.922   4.339 -0.7848  0.2709  0.1413
10292TIP3    H230818   4.766   5.888   4.209 -1.4971  2.4197 -0.8570
10293TIP3   OH230819   3.684   1.373   2.293 -0.5645 -0.0734  0.4317
10293TIP3    H130820   3.619   1.364   2.224 -1.2316  0.3347  0.9917
10293TIP3    H230821   3.691   1.467   2.308  1.0628 -0.0147 -0.4462
10294TIP3   OH230822   7.126   2.269   2.305  0.1002 -0.8087  0.0934
10294TIP3    H130823   7.147   2.343   2.249 -1.8121  0.0512  0.4195
10294TIP3    H230824   7.196   2.267   2.370  0.8276 -0.0687 -0.6516
10295TIP3   OH230825   6.714   1.644   3.130  0.3079  0.3768  0.0994
10295TIP3    H130826   6.699   1.552   3.154 -0.7547  0.5192  0.0388
10295TIP3    H230827   6.797   1.643   3.083  0.8275 -0.3945  0.9948
10296TIP3   OH230828   5.348   2.401   4.874 -0.1165 -0.6176 -0.4511
10296TIP3    H130829   5.358   2.366   4.962 -0.5955 -1.1788 -0.6146
10296TIP3    H230830   5.435   2.394   4.835  0.1023 -0.3443 -0.0223
10297TIP3   OH230831   6.606   4.052   5.562  0.2023  0.5482 -0.1858
10297TIP3    H130832   6.633   4.142   5.580  1.5230 -0.0409  1.0230
10297TIP3    H230833   6.683   4.000   5.583 -0.5101 -0.8686 -0.9556
10298TIP3   OH230834   3.436   4.205   2.323 -0.9157 -0.7283 -0.2911
10298TIP3    H130835   3.488   4.252   2.258  0.5785  0.7984  1.8549
10298TIP3    H230836   3.404   4.127   2.277  0.6863 -0.1341 -2.5849
10299TIP3   OH230837   6.692   5.314   5.199 -0.1909 -0.0174  0.0297
10299TIP3    H130838   6.636   5.342   5.126 -0.6052  0.0464  0.3665
10299TIP3    H230839   6.713   5.395   5.244 -1.2114 -0.2035  0.8805
10300TIP3   OH230840   3.194   2.370   3.845  0.3274 -0.1803  0.5913
10300TIP3    H130841   3.145   2.332   3.918 -0.2062  0.3740  0.5254
10300TIP3    H230842   3.281   2.331   3.852 -0.3819 -1.9244  0.1445
10301TIP3   OH230843   0.756   0.335   1.967  0.0934  0.1130 -0.3037
10301TIP3    H130844   0.839   0.380   1.979  0.6894 -1.0507  0.0256
10301TIP3    H230845   0.690   0.405   1.969  0.8679  0.8306  1.6045
10302TIP3   OH230846   3.541   3.367   1.925  0.1069  0.0928 -0.5801
10302TIP3    H130847   3.585   3.347   2.008 -0.7643 -0.1181 -0.1656
10302TIP3    H230848   3.553   3.287   1.873  0.1952  0.0267 -0.4607
10303TIP3   OH230849   1.104   2.082   4.146 -0.1422 -0.1766 -0.3342
10303TIP3    H130850   1.082   2.162   4.193  3.1027  0.3390  0.5258
10303TIP3    H230851   1.083   2.011   4.207 -0.9998  0.1362 -0.2608
10304TIP3   OH230852   3.788   5.214   4.827 -1.0622 -0.4629 -1.1557
10304TIP3    H130853   3.761   5.134   4.782 -1.8254 -0.3827 -0.8550
10304TIP3    H230854   3.847   5.258   4.765 -0.6828 -1.2202 -1.3452
10305TIP3   OH230855   7.876   4.824   1.641  0.2829 -0.1142 -0.3514
10305TIP3    H130856   7.843   4.867   1.562 -2.3246  0.1620  0.7752
10305TIP3    H230857   7.922   4.893   1.689 -1.8317  0.9172  0.3213
10306TIP3   OH230858   4.327   6.447   0.360 -0.2679  0.1973 -0.2576
10306TIP3    H130859   4.236   6.420   0.359 -0.3131  0.3375 -0.0813
10306TIP3    H230860   4.339   6.496   0.279  0.5323 -2.6455 -2.0179
10307TIP3   OH230861   6.190   0.461   4.815 -0.2660 -0.3334  0.1388
10307TIP3    H130862   6.121   0.447   4.879  0.1950 -0.9637  0.5100
10307TIP3    H230863   6.150   0.441   4.730 -0.6882 -0.1595  0.2980
10308TIP3   OH230864   2.168   2.708   2.806  0.2763 -0.5655  0.0453
10308TIP3    H130865   2.222   2.785   2.786 -1.0705  0.1656 -0.9878
10308TIP3    H230866   2.109   2.738   2.875  0.5930 -1.0737  0.5375
10309TIP3   OH230867   6.078   7.791   1.642 -0.1103 -0.3072  0.1192
10309TIP3    H130868   6.036   7.877   1.640  0.4964  0.0621  1.7241
10309TIP3    H230869   6.142   7.794   1.570 -0.8424  0.1681 -0.5226
10310TIP3   OH230870   7.282   6.925   3.788 -0.2165 -0.6293  0.4086
10310TIP3    H130871   7.301   6.888   3.702 -0.2799 -0.1433  0.1779
10310TIP3    H230872   7.355   6.984   3.805 -0.6579 -0.0271  0.2673
10311TIP3   OH230873   2.166   1.554   0.891 -0.4082  0.1257  0.2712
10311TIP3    H130874   2.227   1.609   0.841  1.1939 -0.9249  0.9491
10311TIP3    H230875   2.089   1.608   0.905  0.3038  1.4616 -0.7976
10312TIP3   OH230876   6.334   6.835   2.632 -0.2230 -0.0392  0.0921
10312TIP3    H130877   6.273   6.763   2.641 -0.5463 -0.3025 -3.1511
10312TIP3    H230878   6.420   6.796   2.646 -0.4190 -1.0221 -1.3271
10313TIP3   OH230879   4.120   7.181   2.508  0.3298 -0.3483  0.0818
10313TIP3    H130880   4.056   7.202   2.440  0.5226  2.2159  0.5647
10313TIP3    H230881   4.192   7.137   2.462 -0.1614  0.0811 -1.1201
10314TIP3   OH230882   7.220   3.946   3.902 -1.0740  0.2168  0.2923
10314TIP3    H130883   7.232   3.936   3.807 -1.9266 -1.2553  0.3100
10314TIP3    H230884   7.129   3.971   3.912 -1.1690 -0.3034  0.7596
10315TIP3   OH230885   0.923   1.464   3.583  0.2509  0.3537  0.4428
10315TIP3    H130886   0.985   1.487   3.652  0.7085  1.9185 -0.4546
10315TIP3    H230887   0.846   1.518   3.600 -0.3556 -0.5750  0.7466
10316TIP3   OH230888   1.180   2.502   6.811  0.3438  0.1245 -0.3201
10316TIP3    H130889   1.122   2.428   6.794  0.5124  0.1114 -0.8957
10316TIP3    H230890   1.128   2.579   6.788  0.0966  0.1972  0.4863
10317TIP3   OH230891   7.266   3.625   3.314 -0.4941  0.1008 -0.2473
10317TIP3    H130892   7.350   3.629   3.359 -1.1036 -1.1457  1.0850
10317TIP3    H230893   7.204   3.666   3.375 -1.3289 -1.6021  0.1092
10318TIP3   OH230894   8.234   3.032   1.294  0.0687  0.1961 -0.4344
10318TIP3    H130895   8.250   3.046   1.387 -1.9765 -0.4982  0.0742
10318TIP3    H230896   8.321   3.020   1.256  0.9483  0.6497  1.3446
10319TIP3   OH230897   7.086   5.197   4.540  0.1977 -0.1637  0.6879
10319TIP3    H130898   7.007   5.218   4.490 -0.8626 -0.8931  1.9814
10319TIP3    H230899   7.128   5.128   4.488  0.2126  0.5010 -0.2162
10320TIP3   OH230900   1.577   2.020   5.898 -0.0394  0.2278 -0.0102
10320TIP3    H130901   1.655   2.019   5.842  0.3818 -0.0376  0.5655
10320TIP3    H230902   1.528   1.942   5.873  1.3518 -1.2533  1.6119
10321TIP3   OH230903   4.541   4.279   5.887 -0.3255 -0.0324 -0.3391
10321TIP3    H130904   4.550   4.265   5.981 -1.7104 -0.8652 -0.2920
10321TIP3    H230905   4.613   4.231   5.848  1.8741  2.4867  0.3648
10322TIP3   OH230906   7.068   4.852   5.213 -0.0373 -0.4699 -0.4075
10322TIP3    H130907   7.085   4.892   5.299 -1.2812 -2.3371  0.7768
10322TIP3    H230908   6.974   4.840   5.210  0.0586 -1.0644 -1.7652
10323TIP3   OH230909   6.750   2.220   5.923 -0.7581 -0.6623 -0.0159
10323TIP3    H130910   6.715   2.233   6.011  0.5835  1.3766  0.2922
10323TIP3    H230911   6.805   2.142   5.929  0.4434  0.2329  1.3756
10324TIP3   OH230912   3.760   6.099   5.642 -0.0722 -0.0399  0.0822
10324TIP3    H130913   3.831   6.087   5.705  0.5366 -0.1322 -0.6136
10324TIP3    H230914   3.683   6.063   5.686  0.1866  0.5709  1.0693
10325TIP3   OH230915   7.964   1.588   4.992  0.3155 -0.0213  0.4469
10325TIP3    H130916   7.907   1.528   4.945 -0.4221  0.8075  0.2588
10325TIP3    H230917   7.906   1.632   5.054  1.0094 -0.0946  1.1585
10326TIP3   OH230918   2.851   3.560   0.355 -0.0455 -0.2157  0.2090
10326TIP3    H130919   2.884   3.648   0.335 -1.5227  0.8726  2.2255
10326TIP3    H230920   2.830   3.522   0.269  1.5755  0.9821 -0.7583
10327TIP3   OH230921   2.536   6.270   1.539 -0.3510  0.0972 -0.0402
10327TIP3    H130922   2.632   6.261   1.542  0.0202  2.7470 -1.1131
10327TIP3    H230923   2.510   6.281   1.630  0.3193 -0.8123  0.2809
10328TIP3   OH230924   3.208   1.739   6.780  0.3792 -0.0494 -0.3286
10328TIP3    H130925   3.242   1.807   6.722  0.8281 -0.2705 -0.3253
10328TIP3    H230926   3.283   1.682   6.797  0.0403 -0.4657 -0.2180
10329TIP3   OH230927   4.180   3.077   0.226  0.3676  0.0261 -0.1830
10329TIP3    H130928   4.226   3.067   0.309  0.8742  0.9546 -0.3454
10329TIP3    H230929   4.132   2.995   0.216 -1.4075  0.6874  2.0538
10330TIP3   OH230930   7.043   0.456   3.306 -0.7220 -0.0888 -0.3154
10330TIP3    H130931   7.049   0.490   3.395 -0.1951 -1.0194  0.0186
10330TIP3    H230932   7.029   0.534   3.252  1.6293  0.8492  0.2953
10331TIP3   OH230933   5.256   4.521   6.601  0.1069 -0.4264  0.0731
10331TIP3    H130934   5.186   4.462   6.629  0.2556 -0.5415  0.2092
10331TIP3    H230935   5.277   4.573   6.679  0.9459 -1.1738  0.3754
10332TIP3   OH230936   5.622   1.633   1.297  0.6987 -0.2440  0.2785
10332TIP3    H130937   5.543   1.619   1.348  0.3946 -1.0184 -0.3766
10332TIP3    H230938   5.654   1.719   1.324 -0.8975  0.5212 -0.1491
10333TIP3   OH230939   0.456   4.088   0.757  0.2448 -0.0162 -0.2062
10333TIP3    H130940   0.394   4.015   0.749 -1.4219  1.3369 -0.2479
10333TIP3    H230941   0.436   4.145   0.682  2.7373 -0.3449 -1.2004
10334TIP3   OH230942   1.979   2.782   0.956 -0.4707  0.2673  0.3322
10334TIP3    H130943   2.010   2.732   1.031 -1.5912  1.9039  1.9845
10334TIP3    H230944   2.053   2.838   0.931  0.4697 -1.4377 -0.9364
10335TIP3   OH230945   4.830   2.646   6.777 -0.4229  0.2239 -0.4711
10335TIP3    H130946   4.884   2.578   6.817 -0.8686  0.5702  0.7737
10335TIP3    H230947   4.766   2.599   6.724 -0.1168 -0.2735 -0.4077
10336TIP3   OH230948   7.540   7.769   0.815 -0.1069 -0.3034 -0.1815
10336TIP3    H130949   7.604   7.792   0.882 -1.4047 -0.1472  1.0459
10336TIP3    H230950   7.535   7.673   0.818  0.3661 -0.3395 -0.5614
10337TIP3   OH230951   4.681   7.721   2.463  0.1187 -0.0789 -0.5026
10337TIP3    H130952   4.775   7.736   2.464  0.5265 -2.3054 -0.2489
10337TIP3    H230953   4.666   7.660   2.391 -1.0053 -0.4272 -0.0067
10338TIP3   OH230954   1.730   7.280   3.514  0.1334 -0.1105  0.3545
10338TIP3    H130955   1.774   7.211   3.562  1.8600 -0.6276 -1.8149
10338TIP3    H230956   1.647   7.292   3.560  0.6053 -2.2612  1.9208
10339TIP3   OH230957   1.505   4.009   4.319 -0.3433  0.1295  0.0268
10339TIP3    H130958   1.485   4.090   4.273  0.2255  1.0545  1.3625
10339TIP3    H230959   1.501   4.032   4.412  1.6904 -0.8987  0.4280
10340TIP3   OH230960   1.799   5.293   2.898 -0.0263  0.4913 -0.2930
10340TIP3    H130961   1.806   5.296   2.803 -1.2168 -0.2840 -0.4205
10340TIP3    H230962   1.707   5.271   2.915 -0.0707  1.5614  1.0469
10341TIP3   OH230963   1.104   0.912   3.727  0.5184 -0.1749 -0.2166
10341TIP3    H130964   1.021   0.903   3.774  0.7498 -1.0234  0.0634
10341TIP3    H230965   1.160   0.844   3.766  0.4754 -1.4181 -2.2071
10342TIP3   OH230966   1.799   1.256   1.427 -0.6839  0.2646 -0.5354
10342TIP3    H130967   1.877   1.217   1.387  0.2344 -1.4838  2.5972
10342TIP3    H230968   1.816   1.350   1.427  0.6181  0.0515 -1.4681
10343TIP3   OH230969   4.835   3.777   3.415  0.5056  0.0988  0.3080
10343TIP3    H130970   4.906   3.840   3.402 -1.5523  2.5960  0.3180
10343TIP3    H230971   4.801   3.760   3.327 -1.2453  1.9911  0.5283
10344TIP3   OH230972   1.368   6.090   2.834 -0.3940  0.2677 -0.0349
10344TIP3    H130973   1.327   6.174   2.852  0.2319  1.0946 -2.1426
10344TIP3    H230974   1.362   6.042   2.916  0.6603  2.9517  1.7497
10345TIP3   OH230975   3.935   7.837   4.165  0.0311  0.6793 -0.2931
10345TIP3    H130976   3.977   7.764   4.119  1.3692  0.9926  0.3626
10345TIP3    H230977   3.931   7.907   4.100  0.4644  0.6160 -0.3928
10346TIP3   OH230978   7.087   1.086   4.910  0.1683 -0.3067 -0.5388
10346TIP3    H130979   7.091   1.175   4.947  0.7958 -1.0442  1.2587
10346TIP3    H230980   7.074   1.029   4.985 -1.0066 -1.7086 -1.7465
10347TIP3   OH230981   3.036   7.363   6.319 -0.3744 -0.8077  0.4590
10347TIP3    H130982   3.025   7.415   6.399 -0.0409 -0.0166  0.0042
10347TIP3    H230983   2.955   7.312   6.313  0.2371 -2.0430  2.1078
10348TIP3   OH230984   6.872   7.580   2.992  0.4783  0.4662  0.2135
10348TIP3    H130985   6.865   7.672   3.017  0.0617  0.2046  1.0958
10348TIP3    H230986   6.789   7.561   2.948  0.0456  0.1957  1.1273
10349TIP3   OH230987   2.171   1.071   1.832 -0.2483 -1.0656  0.1209
10349TIP3    H130988   2.146   1.127   1.759 -1.5728 -0.3935  1.0616
10349TIP3    H230989   2.170   1.129   1.909  1.0918 -1.7579  0.6928
10350TIP3   OH230990   2.277   0.713   4.127  0.4469  0.1024  0.3279
10350TIP3    H130991   2.329   0.737   4.204  1.1441  0.3151 -0.1954
10350TIP3    H230992   2.343   0.693   4.060 -0.1449  0.9804 -0.5397
10351TIP3   OH230993   8.285   5.521   0.558  0.1010  0.0439  0.1950
10351TIP3    H130994   8.327   5.488   0.638  0.9508  1.1899  0.2526
10351TIP3    H230995   8.250   5.607   0.583  0.8436  0.6521 -0.7822
10352TIP3   OH230996   6.017   3.021   1.526 -0.0487  0.3461 -0.0909
10352TIP3    H130997   6.078   3.004   1.598 -0.4412  0.0909  0.1815
10352TIP3    H230998   6.030   2.948   1.466 -0.6511 -0.1306  0.3508
10353TIP3   OH230999   1.405   7.090   4.935  0.1662  0.3385  0.0761
10353TIP3    H131000   1.478   7.152   4.941  0.0907  0.7800 -2.3129
10353TIP3    H231001   1.415   7.034   5.011  2.9352  0.4697 -0.0804
10354TIP3   OH231002   1.825   3.367   5.451 -0.0983  0.3572  0.0252
10354TIP3    H131003   1.873   3.341   5.530  0.3355  1.1151  0.0229
10354TIP3    H231004   1.878   3.333   5.379  2.1705  3.6901 -0.1204
10355TIP3   OH231005   2.883   0.235   1.745  0.0860 -0.0644 -0.6462
10355TIP3    H131006   2.849   0.267   1.828 -0.5383 -0.6373 -0.6764
10355TIP3    H231007   2.888   0.314   1.690 -2.4255 -0.1203 -1.0615
10356TIP3   OH231008   1.652   4.203   0.139 -0.3456  0.7676 -0.3393
10356TIP3    H131009   1.712   4.264   0.183  0.6853  0.4051 -1.2130
10356TIP3    H231010   1.631   4.246   0.056  0.5626 -0.1304 -1.0618
10357TIP3   OH231011   0.830   6.958   2.602  0.1164 -0.0579  0.3469
10357TIP3    H131012   0.807   6.969   2.694 -1.5513  0.8845 -0.1459
10357TIP3    H231013   0.800   7.038   2.559  0.7874 -0.5038 -1.0386
10358TIP3   OH231014   7.285   6.174   1.734 -0.1500 -0.3353 -0.0259
10358TIP3    H131015   7.303   6.262   1.766 -0.5861  0.0107 -0.7050
10358TIP3    H231016   7.200   6.182   1.690 -1.0894 -1.5050  1.4902
10359TIP3   OH231017   6.242   0.839   1.200 -0.1209 -0.3970 -0.1200
10359TIP3    H131018   6.228   0.824   1.294  1.0344  0.2396  0.1739
10359TIP3    H231019   6.183   0.778   1.157 -0.9371 -0.4545  1.0259
10360TIP3   OH231020   3.343   6.022   4.973 -0.0972  0.1379 -0.1974
10360TIP3    H131021   3.280   6.068   4.918 -1.3019  0.0002  0.9900
10360TIP3    H231022   3.377   5.952   4.917  3.0990  3.3407 -2.6276
10361TIP3   OH231023   6.769   4.668   1.774  0.5378  0.1130 -0.0840
10361TIP3    H131024   6.706   4.599   1.794 -0.2440  0.9970  0.6099
10361TIP3    H231025   6.768   4.675   1.679  2.1321 -2.1736 -0.3576
10362TIP3   OH231026   4.257   1.991   0.282 -0.3631 -0.1340  0.4371
10362TIP3    H131027   4.340   1.943   0.275  0.1986  0.9935 -1.6249
10362TIP3    H231028   4.190   1.925   0.264  0.3475 -0.3388 -1.7287
10363TIP3   OH231029   5.984   0.345   4.980  0.3619  0.2239 -0.2154
10363TIP3    H131030   5.937   0.427   4.997  0.6125  0.6664 -1.5944
10363TIP3    H231031   5.917   0.286   4.946 -0.1402 -0.6696  2.1001
10364TIP3   OH231032   0.562   5.511   5.973 -0.1852 -0.3985 -1.0911
10364TIP3    H131033   0.612   5.434   5.946 -0.3516 -1.1022  0.4567
10364TIP3    H231034   0.572   5.513   6.068 -0.2667  1.4637 -1.0985
10365TIP3   OH231035   5.057   2.356   2.644 -0.1878 -0.1240  0.3459
10365TIP3    H131036   5.064   2.350   2.740 -0.1383 -1.3318  0.2761
10365TIP3    H231037   5.134   2.406   2.618  0.3187 -0.6135  0.8629
10366TIP3   OH231038   1.878   6.078   4.641  0.5546  0.0353 -0.0758
10366TIP3    H131039   1.823   6.156   4.646  0.0204 -0.3210 -0.2423
10366TIP3    H231040   1.874   6.041   4.729  1.8378  0.8663  0.3623
10367TIP3   OH231041   4.398   0.806   0.465  0.1585 -0.1027 -0.0523
10367TIP3    H131042   4.434   0.831   0.379  1.2070  2.3651  1.0094
10367TIP3    H231043   4.332   0.739   0.444  1.2632 -0.5391 -2.6356
10368TIP3   OH231044   6.617   3.272   1.134  0.1685  0.4814  0.1183
10368TIP3    H131045   6.681   3.343   1.135 -0.2631  0.8889  1.6050
10368TIP3    H231046   6.541   3.307   1.180  0.1286 -1.0828  1.3739
10369TIP3   OH231047   4.212   2.332   6.769 -0.1077  0.8639 -0.5191
10369TIP3    H131048   4.155   2.392   6.723 -0.5678  0.7444 -0.1162
10369TIP3    H231049   4.294   2.381   6.781 -0.9075  1.9124  0.9601
10370TIP3   OH231050   3.386   4.801   5.569 -0.3262 -0.3695 -0.5171
10370TIP3    H131051   3.308   4.745   5.565  0.8394 -2.2344  1.0071
10370TIP3    H231052   3.418   4.803   5.479 -2.1270  0.5148 -1.1960
10371TIP3   OH231053   0.333   3.829   4.991 -0.1614  0.3146  0.2122
10371TIP3    H131054   0.304   3.760   4.930  0.7994 -0.0403  0.1319
10371TIP3    H231055   0.364   3.781   5.068 -1.8931  0.7822  1.2568
10372TIP3   OH231056   5.322   4.807   4.382  0.4902 -0.2302 -0.3885
10372TIP3    H131057   5.379   4.815   4.306  0.3769 -0.8331 -0.5383
10372TIP3    H231058   5.347   4.881   4.438  1.4741 -0.5350 -0.4132
10373TIP3   OH231059   5.899   1.608   0.584 -0.6650 -0.2393  0.0694
10373TIP3    H131060   5.830   1.544   0.566 -2.3542  1.4526  0.2098
10373TIP3    H231061   5.973   1.555   0.616 -1.6556 -2.1690 -0.6747
10374TIP3   OH231062   1.772   2.475   0.399 -0.4027  0.0838 -0.4808
10374TIP3    H131063   1.763   2.565   0.366 -1.3817  0.6632  1.1957
10374TIP3    H231064   1.853   2.443   0.361  1.5226  2.7119  1.0736
10375TIP3   OH231065   7.564   2.750   0.795  0.2336 -0.0108 -0.6439
10375TIP3    H131066   7.480   2.777   0.757  0.3693 -1.1884 -1.8544
10375TIP3    H231067   7.604   2.832   0.825 -1.3498  0.5710  0.0227
10376TIP3   OH231068   5.154   1.511   2.001 -0.1467  0.2965  0.1666
10376TIP3    H131069   5.125   1.591   2.045  0.6661  0.6696  0.0415
10376TIP3    H231070   5.214   1.470   2.064 -2.0227 -1.2395  1.0563
10377TIP3   OH231071   5.606   5.549   4.960  0.0533  0.0052 -0.5360
10377TIP3    H131072   5.515   5.525   4.972  0.2087 -1.0969 -1.3752
10377TIP3    H231073   5.613   5.638   4.995 -0.6409 -0.9716  2.3717
10378TIP3   OH231074   5.273   5.748   1.385  0.1383  0.1352 -0.1615
10378TIP3    H131075   5.350   5.763   1.331  0.5354  1.9142  0.8224
10378TIP3    H231076   5.217   5.824   1.369 -1.1264 -0.7768 -0.3130
10379TIP3   OH231077   2.526   5.710   2.314 -0.0178  0.1877  0.0763
10379TIP3    H131078   2.512   5.680   2.224  0.4051 -0.8778  0.3545
10379TIP3    H231079   2.495   5.800   2.314 -1.6723 -0.3471 -0.7040
10380TIP3   OH231080   5.858   1.606   1.130  0.5734 -0.1210  0.4569
10380TIP3    H131081   5.793   1.634   1.195  2.7354 -1.4063  3.4155
10380TIP3    H231082   5.847   1.511   1.123 -0.8483  0.1384 -2.6914
10381TIP3   OH231083   5.462   4.604   0.860  0.1417  0.5415  0.1773
10381TIP3    H131084   5.486   4.640   0.775  0.0233  1.8352  0.6795
10381TIP3    H231085   5.530   4.539   0.879  1.2488  1.6057 -0.0391
10382TIP3   OH231086   5.313   7.558   3.932  0.6522 -0.5293  0.3505
10382TIP3    H131087   5.287   7.645   3.901  0.1888 -0.8168 -0.0885
10382TIP3    H231088   5.288   7.499   3.861  0.0925 -1.1387  1.0365
10383TIP3   OH231089   7.120   5.915   1.646 -0.2030 -0.0925  0.1760
10383TIP3    H131090   7.054   5.927   1.715 -1.9510 -0.3745 -1.3778
10383TIP3    H231091   7.134   5.820   1.644  1.4070  0.0712  1.4748
10384TIP3   OH231092   4.848   3.056   0.064  0.5421 -0.3083  0.1029
10384TIP3    H131093   4.830   3.143   0.028 -2.4255 -0.8627 -0.0107
10384TIP3    H231094   4.864   3.001  -0.013  2.8990  0.1532  0.1960
10385TIP3   OH231095   0.929   6.641   6.312  0.0081 -0.4476  0.1925
10385TIP3    H131096   1.023   6.628   6.301 -0.3622 -1.2253 -3.1149
10385TIP3    H231097   0.917   6.736   6.309  0.6533 -0.3553  0.3801
10386TIP3   OH231098   0.129   1.702   1.166  0.1909 -0.1077  0.1544
10386TIP3    H131099   0.067   1.714   1.095 -0.6034  0.0343  0.8652
10386TIP3    H231100   0.193   1.639   1.131  0.6012  0.9978 -1.1601
10387TIP3   OH231101   8.429   1.467   1.017  0.0496  0.4503  0.2959
10387TIP3    H131102   8.358   1.407   0.996  0.9666 -0.8201  0.6622
10387TIP3    H231103   8.394   1.554   0.998 -2.1808  0.0251  2.0500
10388TIP3   OH231104   4.580   2.897   4.431 -1.0449  0.0270  0.9323
10388TIP3    H131105   4.599   2.804   4.419 -1.4688  0.0038  0.4148
10388TIP3    H231106   4.627   2.921   4.511  2.5985  0.3586 -1.0627
10389TIP3   OH231107   6.117   6.828   1.304 -0.3456  0.1820 -0.3457
10389TIP3    H131108   6.035   6.798   1.266 -0.2009  0.8914 -1.2407
10389TIP3    H231109   6.114   6.924   1.296  0.0151  0.3021  0.7616
10390TIP3   OH231110   0.309   7.374   5.309 -0.0298  0.2311  0.4992
10390TIP3    H131111   0.233   7.419   5.346  0.6051  0.1227  1.9993
10390TIP3    H231112   0.383   7.432   5.327  0.5635 -0.6682  1.0528
10391TIP3   OH231113   5.881   4.219   4.352 -0.2602 -0.1754 -0.4654
10391TIP3    H131114   5.862   4.285   4.285 -0.3338 -0.3322 -0.5987
10391TIP3    H231115   5.811   4.155   4.343  0.7526 -1.1892 -1.5095
10392TIP3   OH231116   3.585   6.405   0.649  0.3763  0.1883 -0.2410
10392TIP3    H131117   3.621   6.362   0.572  0.7603  0.5548 -0.2714
10392TIP3    H231118   3.502   6.442   0.620  0.1506 -0.3353 -0.2715
10393TIP3   OH231119   0.302   3.256   2.874  0.1168 -0.4332  0.1851
10393TIP3    H131120   0.256   3.188   2.825 -1.8942  0.4137  0.7917
10393TIP3    H231121   0.275   3.243   2.965 -2.1893  2.4917  0.0385
10394TIP3   OH231122   2.133   1.767   1.724 -0.1309  0.1012 -0.1832
10394TIP3    H131123   2.190   1.696   1.693  0.1476  0.6494 -0.9700
10394TIP3    H231124   2.094   1.733   1.804  1.2095 -0.3374  0.3109
10395TIP3   OH231125   6.762   5.424   3.874 -0.3281  0.4798 -0.2194
10395TIP3    H131126   6.740   5.343   3.919  1.1752  0.3377  0.3236
10395TIP3    H231127   6.821   5.397   3.803  0.8931  1.1394  0.4980
10396TIP3   OH231128   1.417   0.913   4.425 -0.7109 -0.4483 -0.2034
10396TIP3    H131129   1.330   0.951   4.409 -1.6218 -1.8794  1.0574
10396TIP3    H231130   1.439   0.942   4.513  0.1828  0.0347 -0.5770
10397TIP3   OH231131   7.997   6.333   4.447 -0.6728  0.3638  0.1552
10397TIP3    H131132   8.030   6.345   4.358 -3.5665 -1.4622 -1.3304
10397TIP3    H231133   8.066   6.284   4.491  0.4097  0.4097 -1.3899
10398TIP3   OH231134   8.388   3.781   4.452  0.2460 -0.2022 -0.2181
10398TIP3    H131135   8.295   3.776   4.474  0.7089 -0.7348  1.8384
10398TIP3    H231136   8.397   3.864   4.405 -1.2667 -0.1865 -0.5413
10399TIP3   OH231137   6.147   0.899   5.655 -0.3758 -0.0787 -0.0940
10399TIP3    H131138   6.080   0.910   5.587 -0.8247 -1.7595  0.0196
10399TIP3    H231139   6.224   0.865   5.608 -0.7576 -1.4569  0.2082
10400TIP3   OH231140   7.938   5.210   5.189 -0.4358  0.4864  0.3969
10400TIP3    H131141   7.998   5.215   5.264 -0.4922  0.7238  0.4288
10400TIP3    H231142   7.876   5.282   5.204 -0.7473  0.2272  0.3818
10401TIP3   OH231143   4.353   0.831   2.716 -0.1087  0.0403 -0.1777
10401TIP3    H131144   4.360   0.876   2.800  0.4836  2.8882 -1.6229
10401TIP3    H231145   4.437   0.786   2.705  0.3034  0.6987  0.2152
10402TIP3   OH231146   6.715   1.804   2.502  0.0959  0.7967  0.6686
10402TIP3    H131147   6.685   1.720   2.537  2.6981  0.1423  1.4898
10402TIP3    H231148   6.636   1.843   2.464 -1.7917 -0.7525  2.7305
10403TIP3   OH231149   1.177   1.755   2.871 -0.0714 -0.1236 -0.7150
10403TIP3    H131150   1.161   1.711   2.787  0.7006  0.6189 -1.2706
10403TIP3    H231151   1.258   1.803   2.858 -0.3435  0.6270  0.2150
10404TIP3   OH231152   4.303   5.289   5.152 -0.5129  0.2066  0.1239
10404TIP3    H131153   4.371   5.238   5.107  0.5088 -0.9087  2.7310
10404TIP3    H231154   4.250   5.326   5.081  1.3812 -0.8401 -1.9650
10405TIP3   OH231155   5.252   2.088   6.685 -0.3183 -0.3919  0.1778
10405TIP3    H131156   5.165   2.100   6.647 -0.3030  0.3402  0.3470
10405TIP3    H231157   5.311   2.132   6.624  0.2977 -3.0922 -1.3188
10406TIP3   OH231158   1.447   7.569   3.971  0.7063  0.5559 -0.0342
10406TIP3    H131159   1.431   7.562   4.065  2.8390  0.2742  0.3519
10406TIP3    H231160   1.539   7.591   3.964  0.6884  0.1525 -2.0815
10407TIP3   OH231161   3.978   2.825   2.311  0.0637 -0.1372  0.0333
10407TIP3    H131162   3.953   2.745   2.264  0.0024  0.1886 -0.4954
10407TIP3    H231163   4.023   2.878   2.245 -1.9485  1.2855 -0.2916
10408TIP3   OH231164   6.841   4.449   1.353 -0.3056 -0.2939  0.0138
10408TIP3    H131165   6.819   4.509   1.424 -0.7080 -0.3454 -0.0644
10408TIP3    H231166   6.861   4.366   1.397 -0.9389 -0.4354  0.0480
10409TIP3   OH231167   6.737   7.617   0.579 -0.0213  0.5470  0.5119
10409TIP3    H131168   6.784   7.591   0.658 -0.6113  0.6373  0.8962
10409TIP3    H231169   6.789   7.689   0.543  0.4932  0.2084  0.5700
10410TIP3   OH231170   6.344   6.821   0.629 -0.5018 -0.0904  0.7857
10410TIP3    H131171   6.253   6.799   0.608 -0.1436 -2.1897  1.2198
10410TIP3    H231172   6.386   6.830   0.543 -0.6532 -1.3214  0.5633
10411TIP3   OH231173   4.545   3.887   0.395  0.0185 -0.2767  0.8323
10411TIP3    H131174   4.532   3.957   0.459 -1.3708  0.3922 -0.1264
10411TIP3    H231175   4.578   3.931   0.317 -1.3792 -0.5843  0.0384
10412TIP3   OH231176   6.969   5.712   5.165 -0.0439  0.0178 -0.7821
10412TIP3    H131177   7.011   5.635   5.202  0.5615 -0.2514 -1.9646
10412TIP3    H231178   6.953   5.689   5.073 -0.5863  1.0010 -0.9512
10413TIP3   OH231179   8.189   0.320   1.633  0.5183  0.1449 -0.2127
10413TIP3    H131180   8.262   0.374   1.664  0.8234 -0.7291  0.6567
10413TIP3    H231181   8.117   0.382   1.621  1.5516  1.1358 -1.7294
10414TIP3   OH231182   5.040   1.877   0.422  0.0279  0.6900 -0.6897
10414TIP3    H131183   5.073   1.841   0.505 -0.9081  0.7307 -0.2855
10414TIP3    H231184   5.058   1.809   0.358 -1.8689 -0.6462  0.0976
10415TIP3   OH231185   6.674   2.036   5.260 -0.1678 -0.0667 -0.4051
10415TIP3    H131186   6.656   1.975   5.332  1.7477 -0.5675 -0.2921
10415TIP3    H231187   6.763   2.068   5.278 -0.1801  0.8125 -1.8336
10416TIP3   OH231188   2.542   4.892   2.103  0.2005  0.2546  0.4262
10416TIP3    H131189   2.587   4.831   2.044  1.1593  0.7312  0.6636
10416TIP3    H231190   2.453   4.898   2.066 -0.8404 -3.3814  1.8865
10417TIP3   OH231191   0.363   5.861   3.374 -0.1634  0.3948 -0.0538
10417TIP3    H131192   0.447   5.822   3.400 -0.1816 -0.1584 -0.7857
10417TIP3    H231193   0.319   5.882   3.457 -0.2540 -1.3728  0.3887
10418TIP3   OH231194   2.268   2.258   0.918 -0.5101  0.3687 -0.3716
10418TIP3    H131195   2.314   2.340   0.937  2.1437 -1.0976 -0.0016
10418TIP3    H231196   2.179   2.286   0.894 -0.1275  3.2235  1.0606
10419TIP3   OH231197   7.349   7.053   3.320  0.7623 -0.6889 -0.1321
10419TIP3    H131198   7.418   7.026   3.380  1.0733 -0.5408 -0.4251
10419TIP3    H231199   7.332   6.975   3.267  2.8524  0.1127 -2.1436
10420TIP3   OH231200   0.174   6.041   6.670 -0.4700  0.3634  0.1546
10420TIP3    H131201   0.120   6.016   6.744  0.3916 -0.7873  0.4165
10420TIP3    H231202   0.189   5.960   6.622 -1.4030  1.1621 -1.5705
10421TIP3   OH231203   1.066   4.605   0.498 -0.2976  0.3368  0.0209
10421TIP3    H131204   1.052   4.589   0.405  0.6898 -1.4662  0.1348
10421TIP3    H231205   0.988   4.569   0.540  0.5993 -1.7169  0.0546
10422TIP3   OH231206   7.128   2.847   0.044 -0.1662 -0.2090 -0.1019
10422TIP3    H131207   7.105   2.817  -0.044  0.0305  2.5930 -1.2228
10422TIP3    H231208   7.058   2.909   0.067 -0.0329 -0.6389  1.5958
10423TIP3   OH231209   7.675   1.052   4.555  0.0114  0.3005  0.1793
10423TIP3    H131210   7.707   1.135   4.520 -3.9363  1.5578 -1.0033
10423TIP3    H231211   7.611   1.022   4.490 -2.2853 -1.0907  2.8959
10424TIP3   OH231212   4.980   6.055   3.792  0.1422  0.0012  0.6310
10424TIP3    H131213   4.970   6.150   3.786  1.2689  0.1335  0.6059
10424TIP3    H231214   5.048   6.042   3.859  0.4235 -0.7568  0.2181
10425TIP3   OH231215   1.737   2.316   2.106 -0.9273 -0.3919 -0.1464
10425TIP3    H131216   1.712   2.408   2.111 -2.5926 -0.8513  0.7610
10425TIP3    H231217   1.832   2.316   2.113 -0.9739  1.1927  0.8354
10426TIP3   OH231218   3.715   6.163   2.597 -0.4544  0.1394 -0.1166
10426TIP3    H131219   3.655   6.126   2.663 -1.6789  1.1047 -0.6553
10426TIP3    H231220   3.667   6.156   2.515  0.2121  0.8671 -0.5751
10427TIP3   OH231221   7.984   7.261   1.211  0.1879 -0.1501 -0.0078
10427TIP3    H131222   8.033   7.342   1.199  0.0059  0.0098  0.3383
10427TIP3    H231223   7.899   7.288   1.243 -0.1554 -0.4297 -0.6584
10428TIP3   OH231224   4.345   7.365   2.628 -0.1625 -0.2195 -0.1435
10428TIP3    H131225   4.292   7.286   2.630 -1.2191  0.4563 -0.6050
10428TIP3    H231226   4.347   7.391   2.536  2.3149 -1.0666 -0.4235
10429TIP3   OH231227   2.656   6.209   1.039  0.1701 -1.0197  0.1965
10429TIP3    H131228   2.646   6.251   0.954  0.1969 -2.0585 -0.3304
10429TIP3    H231229   2.667   6.282   1.100 -1.8823 -0.1728 -0.3781
10430TIP3   OH231230   0.449   2.546   4.670  0.2579  0.2327  0.0756
10430TIP3    H131231   0.471   2.560   4.762 -0.8695 -1.6404  0.6711
10430TIP3    H231232   0.395   2.621   4.646  1.7347  1.4729  0.4897
10431TIP3   OH231233   4.253   0.066   4.539  0.2457 -0.2227 -0.4134
10431TIP3    H131234   4.312   0.042   4.610  1.3353  0.8432 -0.9331
10431TIP3    H231235   4.253   0.162   4.538 -1.8953 -0.1665 -0.1211
10432TIP3   OH231236   7.178   1.363   0.895 -0.6437 -0.1047  0.0457
10432TIP3    H131237   7.101   1.358   0.952 -1.5920 -2.9913 -1.2608
10432TIP3    H231238   7.142   1.369   0.806  0.6743  0.2123 -0.4889
10433TIP3   OH231239   3.469   3.640   4.284 -0.2418 -0.8201  0.0332
10433TIP3    H131240   3.477   3.596   4.369  0.2126  0.6218  0.7899
10433TIP3    H231241   3.440   3.572   4.224 -0.1751 -1.9839  1.2591
10434TIP3   OH231242   3.118   2.313   4.605  0.4137 -0.3705  0.4362
10434TIP3    H131243   3.059   2.239   4.615  1.2148 -1.0361  0.3413
10434TIP3    H231244   3.110   2.361   4.688 -2.0738  0.9578 -0.4548
10435TIP3   OH231245   1.747   0.108   4.463 -0.3748  0.1716 -0.1845
10435TIP3    H131246   1.804   0.040   4.427 -0.3170  0.3248 -0.3838
10435TIP3    H231247   1.670   0.061   4.495 -1.0588  0.1645 -1.7750
10436TIP3   OH231248   0.351   1.697   5.907 -0.3463  0.1360  0.1486
10436TIP3    H131249   0.309   1.617   5.876 -0.2542 -0.0093  0.3993
10436TIP3    H231250   0.381   1.741   5.827 -1.2233  0.3846 -0.0605
10437TIP3   OH231251   5.361   5.313   2.537 -0.1681 -0.3326  0.0195
10437TIP3    H131252   5.357   5.356   2.623 -1.6493 -0.0386 -0.1655
10437TIP3    H231253   5.314   5.372   2.479  1.0458 -0.4084 -1.0674
10438TIP3   OH231254   3.908   2.821   3.931  0.4762  0.2165  0.5852
10438TIP3    H131255   3.869   2.830   4.018  0.5128 -2.1455  0.9059
10438TIP3    H231256   4.002   2.832   3.945  0.4040  0.7529  0.6765
10439TIP3   OH231257   3.963   6.747   6.374  0.2160 -0.0567 -0.0649
10439TIP3    H131258   3.999   6.660   6.394  1.3720  0.1862 -0.9846
10439TIP3    H231259   3.914   6.735   6.293 -1.1574 -0.2102  0.7570
10440TIP3   OH231260   5.900   1.644   3.604 -0.1501 -0.2581  0.1837
10440TIP3    H131261   5.931   1.716   3.659 -0.0954  0.0771 -0.2830
10440TIP3    H231262   5.913   1.566   3.658  1.5769 -0.1470  0.0020
10441TIP3   OH231263   4.589   6.631   2.962  0.2045  0.6081 -0.2864
10441TIP3    H131264   4.624   6.629   3.051 -1.5323 -0.5649  0.4351
10441TIP3    H231265   4.636   6.561   2.917  0.7984  0.9352 -0.1944
10442TIP3   OH231266   7.012   6.843   6.809 -0.1266 -0.1840 -0.2588
10442TIP3    H131267   6.920   6.860   6.788  0.1254  0.1705 -1.0860
10442TIP3    H231268   7.036   6.769   6.755 -0.7987 -2.4137  2.2633
10443TIP3   OH231269   7.326   0.939   2.260 -0.0111 -0.5919 -0.1554
10443TIP3    H131270   7.331   0.985   2.344  0.0986 -1.1010  0.1273
10443TIP3    H231271   7.233   0.922   2.246 -0.0262 -0.5440 -0.1096
10444TIP3   OH231272   1.168   1.356   6.100  0.5878  0.2591 -0.1985
10444TIP3    H131273   1.205   1.386   6.183 -0.3845  2.0382 -0.3634
10444TIP3    H231274   1.075   1.375   6.108  0.4407  0.1886 -1.6001
10445TIP3   OH231275   1.810   5.928   1.575 -0.4582  0.3766 -0.1087
10445TIP3    H131276   1.868   5.978   1.517  0.1142  1.2617  1.1624
10445TIP3    H231277   1.797   5.986   1.651  1.2604 -1.8475  2.0443
10446TIP3   OH231278   8.134   7.482   4.718 -0.3523 -0.7296 -0.1357
10446TIP3    H131279   8.202   7.549   4.712 -1.7230  0.6783 -0.5463
10446TIP3    H231280   8.135   7.454   4.809  1.2294 -1.2575 -0.2873
10447TIP3   OH231281  -0.013   2.920   5.510  0.3412 -0.2703  0.1589
10447TIP3    H131282   0.066   2.867   5.520 -0.2698 -1.0194  1.2083
10447TIP3    H231283  -0.005   2.989   5.576  0.0231 -0.4607  0.3952
10448TIP3   OH231284   8.206   3.657   4.153  0.2484 -0.5258 -0.5408
10448TIP3    H131285   8.152   3.607   4.214  0.5517  1.0652  1.1007
10448TIP3    H231286   8.295   3.645   4.186  0.5496 -0.5241 -1.3372
10449TIP3   OH231287   1.532   2.463   2.887 -0.0067  0.3243 -0.0700
10449TIP3    H131288   1.484   2.446   2.969 -0.4834 -0.8597 -0.5677
10449TIP3    H231289   1.571   2.378   2.865  0.7922  0.8271 -0.6638
10450TIP3   OH231290   4.227   4.963   0.775  0.3552  0.1963 -1.1232
10450TIP3    H131291   4.221   5.055   0.803  2.2154 -0.0577  0.3394
10450TIP3    H231292   4.319   4.940   0.789 -0.1627 -2.0331 -0.9909
10451TIP3   OH231293   1.121   1.568   1.398  0.1527  0.0005 -0.2966
10451TIP3    H131294   1.213   1.592   1.393  0.1097  0.0001 -1.2150
10451TIP3    H231295   1.120   1.481   1.438  0.4151  0.7699  1.4957
10452TIP3   OH231296   4.026   0.532   5.185  0.4870  0.3498  0.0213
10452TIP3    H131297   4.065   0.604   5.135 -0.9972  1.0801 -0.1185
10452TIP3    H231298   3.945   0.511   5.139  0.5226 -0.9264  0.4913
10453TIP3   OH231299   7.315   6.720   4.394 -0.6102  0.0127  0.0502
10453TIP3    H131300   7.241   6.678   4.351  1.7669 -2.3877 -2.0491
10453TIP3    H231301   7.364   6.761   4.324  2.1196 -1.9545  0.6155
10454TIP3   OH231302   0.842   2.314   4.092 -0.3963  0.6468 -0.2493
10454TIP3    H131303   0.793   2.282   4.016 -0.5950  2.4270 -0.9246
10454TIP3    H231304   0.775   2.342   4.154 -0.2811  1.9813 -0.6875
10455TIP3   OH231305   6.820   7.390   6.242  0.1813 -0.2054  0.6713
10455TIP3    H131306   6.839   7.324   6.175 -1.0537  0.8189 -0.7615
10455TIP3    H231307   6.788   7.339   6.317 -0.9614 -1.2610 -0.4684
10456TIP3   OH231308   0.639   6.172   5.285 -0.0169  0.6264  0.0966
10456TIP3    H131309   0.547   6.180   5.257 -0.4953  0.3790  1.5387
10456TIP3    H231310   0.682   6.248   5.247 -1.1768  1.6631  0.7861
10457TIP3   OH231311   7.768   5.029   2.264 -0.1285 -0.2082  0.2001
10457TIP3    H131312   7.731   4.976   2.193  0.3743 -1.4393  0.8368
10457TIP3    H231313   7.858   4.998   2.272  0.2828  1.0022  0.3599
10458TIP3   OH231314   0.705   0.607   4.261  0.3073  0.1239 -0.5940
10458TIP3    H131315   0.711   0.518   4.226 -0.7786 -0.0904 -0.2757
10458TIP3    H231316   0.782   0.616   4.318 -0.8075 -1.5235  1.3332
10459TIP3   OH231317   4.143   2.494   2.559 -0.0712 -0.3498  0.1281
10459TIP3    H131318   4.089   2.418   2.579  0.6155 -1.1382 -0.8898
10459TIP3    H231319   4.226   2.477   2.605  0.2264 -0.4245 -0.4240
10460TIP3   OH231320   0.582   5.060   0.549 -0.4418 -0.2262  0.0820
10460TIP3    H131321   0.555   4.969   0.556  0.5635 -0.8929 -3.2694
10460TIP3    H231322   0.657   5.067   0.609 -0.3412 -1.6781  0.1577
10461TIP3   OH231323   6.826   4.739   3.332 -0.0642  0.3383  0.8597
10461TIP3    H131324   6.841   4.648   3.307  0.6442  1.0301 -1.5179
10461TIP3    H231325   6.896   4.758   3.395  1.4051 -0.0694 -0.5843
10462TIP3   OH231326   3.031   7.416   4.660 -0.0440 -0.2926 -0.9530
10462TIP3    H131327   3.024   7.341   4.600 -0.1603 -1.1693  0.1260
10462TIP3    H231328   3.118   7.406   4.700 -0.5936 -0.6283  0.1830
10463TIP3   OH231329   6.441   1.271   5.103  0.1079  0.6768 -0.7212
10463TIP3    H131330   6.376   1.308   5.163  0.6470  0.1369  0.2278
10463TIP3    H231331   6.476   1.346   5.055  0.2463  1.2383  0.2357
10464TIP3   OH231332   1.235   5.168   2.877 -0.5658  0.1633  0.2938
10464TIP3    H131333   1.251   5.210   2.793 -1.4974  1.2654  0.6365
10464TIP3    H231334   1.140   5.153   2.879 -0.8127  1.5419  1.7153
10465TIP3   OH231335   5.057   2.727   2.821 -0.3091  0.4350 -0.2959
10465TIP3    H131336   4.983   2.708   2.763  0.5115 -2.3226 -0.5892
10465TIP3    H231337   5.045   2.668   2.895  1.1245  0.6039  0.0975
10466TIP3   OH231338   7.242   0.505   1.918  0.0756 -0.0733 -0.1006
10466TIP3    H131339   7.299   0.479   1.846 -0.3148  1.3974 -0.9795
10466TIP3    H231340   7.291   0.573   1.964  0.1032 -0.6366  0.7231
10467TIP3   OH231341   1.974   7.524   5.317 -0.6541 -0.3593 -1.0140
10467TIP3    H131342   2.017   7.587   5.375 -0.7311 -1.9144  0.8167
10467TIP3    H231343   1.881   7.530   5.339 -0.5401 -1.8800  0.0198
10468TIP3   OH231344   3.060   2.700   6.321  0.4662 -0.0117  0.0485
10468TIP3    H131345   3.019   2.786   6.336  2.8911  1.0364  1.2347
10468TIP3    H231346   2.987   2.638   6.326 -0.9519  1.6606  2.5088
10469TIP3   OH231347   7.234   4.739   0.697 -0.0771 -0.0428 -0.0950
10469TIP3    H131348   7.281   4.783   0.627  1.0097 -0.5273  0.2975
10469TIP3    H231349   7.252   4.646   0.684  0.6390 -0.1111  1.1269
10470TIP3   OH231350   3.885   7.192   4.879  0.2045 -0.0784 -0.3831
10470TIP3    H131351   3.796   7.185   4.845  0.7780  0.3498 -2.0563
10470TIP3    H231352   3.940   7.151   4.812  1.2181 -1.0294  0.9725
10471TIP3   OH231353   0.398   2.319   5.595 -0.0164  0.3328 -0.3984
10471TIP3    H131354   0.434   2.255   5.535 -1.2514 -0.1878 -0.6157
10471TIP3    H231355   0.395   2.274   5.680 -2.0141 -0.3743 -0.7931
10472TIP3   OH231356   1.719   4.264   2.671 -0.0001 -0.2880 -0.4619
10472TIP3    H131357   1.761   4.350   2.661  0.7475 -0.6106 -0.1558
10472TIP3    H231358   1.769   4.206   2.614 -0.0327 -0.6776 -0.0971
10473TIP3   OH231359   3.135   2.367   5.970 -0.2958 -0.2928  0.3571
10473TIP3    H131360   3.054   2.410   5.998  0.3280  1.0686  0.1183
10473TIP3    H231361   3.185   2.357   6.051 -0.7445 -1.3019  0.5349
10474TIP3   OH231362   2.790   3.799   5.365  0.1199  0.3667 -0.4542
10474TIP3    H131363   2.832   3.805   5.451  1.6997 -0.0980 -1.1602
10474TIP3    H231364   2.811   3.711   5.334 -1.5916  0.0300 -0.7605
10475TIP3   OH231365   4.189   7.399   1.100 -0.3821 -0.0329 -0.1913
10475TIP3    H131366   4.187   7.307   1.074  1.1535 -0.2374  0.3487
10475TIP3    H231367   4.183   7.447   1.018  2.7854 -0.6684 -0.9384
10476TIP3   OH231368   1.713   5.441   0.836  0.5780 -0.1917  0.1461
10476TIP3    H131369   1.741   5.518   0.787 -0.4427 -0.7216 -1.3412
10476TIP3    H231370   1.780   5.375   0.816  1.1046  0.1026  0.9009
10477TIP3   OH231371   7.393   0.515   3.437  0.3912 -0.3869  0.9932
10477TIP3    H131372   7.339   0.589   3.464  0.3486  0.1954 -0.5489
10477TIP3    H231373   7.478   0.554   3.416  0.6126 -0.8933  0.9369
10478TIP3   OH231374   5.026   3.952   3.365  0.1319  0.1567  0.1811
10478TIP3    H131375   4.998   4.014   3.298  0.0670  1.5631  1.4449
10478TIP3    H231376   5.079   3.887   3.317 -0.7547  0.5193 -1.3592
10479TIP3   OH231377   3.320   4.358   4.130  0.2456  0.0226 -0.2154
10479TIP3    H131378   3.414   4.343   4.128  0.4417  0.0214  3.2162
10479TIP3    H231379   3.310   4.441   4.177 -1.4720 -0.5230  0.4856
10480TIP3   OH231380   0.691   1.982   0.809 -0.1935  0.6145  0.4354
10480TIP3    H131381   0.762   2.027   0.764  0.0944  3.2240  3.1636
10480TIP3    H231382   0.612   2.028   0.782 -0.9699 -1.9981 -2.2429
10481TIP3   OH231383   4.034   0.518   0.097 -0.3505  0.0038 -0.1582
10481TIP3    H131384   3.989   0.590   0.140 -3.3447 -1.4867 -0.5092
10481TIP3    H231385   3.966   0.476   0.044  1.6006 -2.2007 -1.0886
10482TIP3   OH231386   7.785   2.577   3.726 -0.0498 -0.5341  0.6833
10482TIP3    H131387   7.744   2.491   3.735 -0.6680 -0.2518  0.6318
10482TIP3    H231388   7.876   2.563   3.750  0.4115 -1.7097 -1.4767
10483TIP3   OH231389   5.281   4.137   0.143 -0.1274 -0.3576 -0.7373
10483TIP3    H131390   5.239   4.155   0.227 -0.1956  1.0793 -1.0605
10483TIP3    H231391   5.266   4.215   0.091 -0.1984 -1.2822 -2.1523
10484TIP3   OH231392   0.575   4.442   5.054  0.4401 -0.1606 -0.1837
10484TIP3    H131393   0.502   4.393   5.018  0.8152 -1.2180  0.4749
10484TIP3    H231394   0.650   4.416   5.000 -0.0504  2.9600 -2.6879
10485TIP3   OH231395   6.797   2.894   0.299 -0.4034  0.6134 -0.1924
10485TIP3    H131396   6.778   2.824   0.362 -2.3030 -0.5533 -1.9468
10485TIP3    H231397   6.806   2.973   0.353 -1.1199 -0.4686  1.5966
10486TIP3   OH231398   6.797   7.895   1.844 -0.1807 -0.3763 -0.3634
10486TIP3    H131399   6.716   7.873   1.890 -0.2937 -0.2327 -0.4900
10486TIP3    H231400   6.865   7.895   1.911 -0.4831  0.6646 -0.0433
10487TIP3   OH231401   3.870   4.480   0.116  0.0873 -0.7208  0.1235
10487TIP3    H131402   3.962   4.453   0.123  0.6943  1.1574 -0.1107
10487TIP3    H231403   3.833   4.462   0.203  0.7962 -1.0567  0.3630
10488TIP3   OH231404   2.079   5.619   0.910 -0.0889 -0.3425 -0.5650
10488TIP3    H131405   2.094   5.524   0.913 -0.2804 -0.3574  1.4728
10488TIP3    H231406   2.024   5.636   0.987 -0.6886  1.3307 -1.3260
10489TIP3   OH231407   4.751   6.932   6.813 -0.2721 -0.5554  0.0196
10489TIP3    H131408   4.826   6.975   6.771 -1.0568  0.8645  0.0066
10489TIP3    H231409   4.770   6.939   6.907  0.1641 -1.2582 -0.0102
10490TIP3   OH231410   1.886   5.642   4.129  0.2925 -0.0748 -0.4369
10490TIP3    H131411   1.801   5.600   4.122  0.6705 -0.7202 -1.4865
10490TIP3    H231412   1.910   5.633   4.221 -1.1783  0.9842  0.0834
10491TIP3   OH231413   2.229   4.871   6.709  0.1454 -0.5433  0.0405
10491TIP3    H131414   2.306   4.877   6.766 -0.8574 -2.2833  1.7242
10491TIP3    H231415   2.156   4.851   6.769 -1.1034 -1.8069 -1.7600
10492TIP3   OH231416   0.218   1.557   6.110 -0.2410  0.1803 -0.2261
10492TIP3    H131417   0.250   1.601   6.032 -0.3226 -0.3828 -0.5847
10492TIP3    H231418   0.123   1.554   6.098 -0.4130  1.4759  0.6350
10493TIP3   OH231419   5.973   3.240   4.182 -0.4780 -1.0304 -0.1116
10493TIP3    H131420   5.984   3.328   4.217  0.9399 -1.3961  0.3966
10493TIP3    H231421   5.930   3.254   4.097  0.2985  0.1999 -0.3358
10494TIP3   OH231422   1.661   3.520   5.138 -0.1448 -0.3946  0.0427
10494TIP3    H131423   1.664   3.446   5.077  0.0246 -0.4919  0.1688
10494TIP3    H231424   1.752   3.535   5.163 -0.1828 -0.1646  0.0434
10495TIP3   OH231425   2.412   1.360   4.382 -0.0105 -0.0039  0.3351
10495TIP3    H131426   2.400   1.265   4.380 -0.3408  0.0345  0.4429
10495TIP3    H231427   2.441   1.378   4.472 -1.3948  0.1608  0.7719
10496TIP3   OH231428   5.365   3.660   3.818 -0.3120 -0.1129  0.1348
10496TIP3    H131429   5.387   3.652   3.911 -0.4894  0.7751  0.2555
10496TIP3    H231430   5.273   3.684   3.816 -0.2522  0.1003 -0.2671
10497TIP3   OH231431   0.552   3.819   5.896 -0.0611 -0.0856  0.4378
10497TIP3    H131432   0.476   3.861   5.936  0.9851  1.9210  0.4275
10497TIP3    H231433   0.616   3.814   5.967  0.2492 -0.6159  0.1266
10498TIP3   OH231434   2.110   1.326   0.756 -0.0816 -0.0089  0.4874
10498TIP3    H131435   2.193   1.279   0.746  0.8110  1.7840 -1.2508
10498TIP3    H231436   2.136   1.417   0.771 -1.6996  0.7704 -1.0853
10499TIP3   OH231437   7.546   3.584   0.358 -0.2633  0.2900  0.1435
10499TIP3    H131438   7.588   3.497   0.355 -0.9382 -0.1918  2.4872
10499TIP3    H231439   7.615   3.642   0.390 -0.2543  0.2974  0.1102
10500TIP3   OH231440   6.579   5.152   4.908 -0.2268  0.0174 -0.2316
10500TIP3    H131441   6.557   5.242   4.931  0.3300  0.6390 -1.9760
10500TIP3    H231442   6.601   5.155   4.815 -0.7667 -2.0337 -0.4924
10501TIP3   OH231443   6.871   3.942   1.839 -0.3041  0.0353 -0.1787
10501TIP3    H131444   6.901   3.964   1.927 -1.1343 -0.4254  0.2301
10501TIP3    H231445   6.872   4.025   1.791  0.2638  0.2665  0.2281
10502TIP3   OH231446   2.479   4.218   3.151  0.2130 -0.4045  0.4878
10502TIP3    H131447   2.390   4.204   3.183 -0.0854  0.4780  0.0897
10502TIP3    H231448   2.467   4.243   3.059  0.7355  1.2798  0.8466
10503TIP3   OH231449   4.499   5.020   1.229 -0.0363 -0.0100  0.0016
10503TIP3    H131450   4.519   5.109   1.259 -0.0264 -0.4897  1.4773
10503TIP3    H231451   4.568   5.000   1.166  0.0209  0.9781 -0.2679
10504TIP3   OH231452   5.745   3.761   4.151  0.0200  0.5397 -0.0240
10504TIP3    H131453   5.757   3.689   4.213  0.1747  1.5786  1.1737
10504TIP3    H231454   5.817   3.751   4.089 -0.2695 -0.6415 -0.2138
10505TIP3   OH231455   0.696   6.587   3.966  0.6047 -0.5205  0.7192
10505TIP3    H131456   0.786   6.615   3.946  0.5491  0.1138  1.3034
10505TIP3    H231457   0.687   6.502   3.924  1.6684 -0.8450  1.1246
10506TIP3   OH231458   2.895   2.942   5.550 -0.2944 -0.0650 -0.7225
10506TIP3    H131459   2.900   3.032   5.515  0.3534  0.5191  0.7992
10506TIP3    H231460   2.856   2.952   5.636  3.7130 -0.5921  1.4157
10507TIP3   OH231461   3.272   3.044   2.026 -0.1589 -0.1996  0.2569
10507TIP3    H131462   3.320   2.964   2.003 -0.7240 -0.7392  0.8834
10507TIP3    H231463   3.337   3.098   2.073  0.2187 -0.3009 -0.1431
10508TIP3   OH231464   2.580   3.518   5.843 -0.2363 -0.2228  0.1506
10508TIP3    H131465   2.567   3.580   5.771 -0.7945  1.4184  1.5889
10508TIP3    H231466   2.503   3.461   5.840 -0.3561 -0.0346 -0.4243
10509TIP3   OH231467   0.044   7.122   5.259  0.0515 -0.6246  0.6298
10509TIP3    H131468   0.080   7.158   5.178 -0.6467 -0.0207  0.5723
10509TIP3    H231469  -0.003   7.195   5.298 -1.6318 -1.5304  0.3882
10510TIP3   OH231470   6.164   0.132   0.476 -0.7201 -0.1044 -0.0438
10510TIP3    H131471   6.088   0.183   0.451  0.0542  0.5722 -1.0907
10510TIP3    H231472   6.203   0.104   0.393  1.0697  0.9263  0.3828
10511TIP3   OH231473   3.955   5.834   5.968 -0.6047  0.3418  0.3719
10511TIP3    H131474   3.989   5.756   5.925 -1.0048  0.9107 -1.0437
10511TIP3    H231475   3.860   5.829   5.954 -1.0834 -0.7083  3.3631
10512TIP3   OH231476   7.943   4.088   4.767  0.0609  0.2027  0.6204
10512TIP3    H131477   7.970   4.177   4.787 -1.6719  0.8383  0.2622
10512TIP3    H231478   7.870   4.097   4.707  0.9848 -1.5208 -0.8911
10513TIP3   OH231479   0.546   3.300   0.360 -0.0845  0.0824  0.3323
10513TIP3    H131480   0.617   3.244   0.327 -0.5654 -0.1116 -0.4132
10513TIP3    H231481   0.490   3.313   0.284 -0.7067  0.4535  0.8493
10514TIP3   OH231482   0.768   6.856   6.080 -0.2604  0.4913 -0.2150
10514TIP3    H131483   0.797   6.823   5.994 -1.9551 -2.4961  0.2193
10514TIP3    H231484   0.838   6.830   6.140 -0.0310  0.7397 -0.3717
10515TIP3   OH231485   8.016   7.275   5.491 -0.0882  0.4802 -0.6243
10515TIP3    H131486   7.987   7.324   5.568 -0.8690 -0.4736 -0.2843
10515TIP3    H231487   7.965   7.311   5.419  1.3507  2.0584 -0.9210
10516TIP3   OH231488   4.333   1.370   0.269 -0.1210  0.4160  0.3237
10516TIP3    H131489   4.368   1.314   0.199 -0.9405  1.8464 -1.3045
10516TIP3    H231490   4.248   1.400   0.236 -1.1053  0.2237  2.4632
10517TIP3   OH231491   3.880   3.613   3.375 -0.5610 -0.2717  0.3054
10517TIP3    H131492   3.914   3.621   3.464 -1.5954  1.7919  0.5587
10517TIP3    H231493   3.792   3.576   3.386 -0.4439 -0.6225  0.0794
10518TIP3   OH231494   2.747   1.350   4.727  0.1130 -0.4818  0.2714
10518TIP3    H131495   2.783   1.426   4.683  0.3468 -0.5392  0.3609
10518TIP3    H231496   2.759   1.368   4.820  2.3901 -1.6781  0.2668
10519TIP3   OH231497   3.837   5.688   4.625  0.0659  0.2041 -0.2282
10519TIP3    H131498   3.914   5.736   4.594 -0.3004  0.9288 -0.0378
10519TIP3    H231499   3.824   5.720   4.715 -1.2890  1.1528 -0.7408
10520TIP3   OH231500   7.096   6.259   0.849 -0.0180  0.2162 -0.0185
10520TIP3    H131501   7.187   6.260   0.877  0.2003 -2.6964 -0.2991
10520TIP3    H231502   7.100   6.269   0.754 -0.0353  0.5224  0.0118
10521TIP3   OH231503   2.681   4.711   3.316  0.2036 -0.5660 -0.0300
10521TIP3    H131504   2.640   4.663   3.244  0.7755  0.3238 -0.9910
10521TIP3    H231505   2.774   4.713   3.293  0.0575  2.0657 -0.7346
10522TIP3   OH231506   1.925   6.910   0.659  0.3346  0.2549  0.4262
10522TIP3    H131507   1.902   6.866   0.577 -1.1130 -0.6812  1.2916
10522TIP3    H231508   1.903   7.002   0.644 -3.1552 -0.3907  0.7931
10523TIP3   OH231509   3.865   0.262   0.653  0.2011  0.0969 -0.6144
10523TIP3    H131510   3.814   0.318   0.710 -0.3227 -0.4411 -0.5474
10523TIP3    H231511   3.904   0.197   0.712  0.9233  0.4702 -0.6703
10524TIP3   OH231512   6.891   6.529   5.358  0.5194 -0.4703 -0.3946
10524TIP3    H131513   6.912   6.450   5.408  2.2648  0.5072  0.5419
10524TIP3    H231514   6.814   6.506   5.307  0.3981 -2.4516  0.5902
10525TIP3   OH231515   3.002   7.183   0.333 -0.4542 -0.2484 -0.6697
10525TIP3    H131516   3.029   7.139   0.413 -2.7308  0.7828  0.7794
10525TIP3    H231517   3.058   7.261   0.328 -0.8332  0.1206  0.4258
10526TIP3   OH231518   7.161   1.579   1.172  0.3955 -0.1601 -0.5331
10526TIP3    H131519   7.144   1.648   1.236  1.3718 -0.7670  0.4330
10526TIP3    H231520   7.184   1.625   1.092 -0.2941  0.6214 -0.2935
10527TIP3   OH231521   2.738   2.180   2.838  0.0224 -0.2358 -0.1942
10527TIP3    H131522   2.741   2.089   2.810  1.0703 -0.0611 -0.6800
10527TIP3    H231523   2.827   2.212   2.827 -0.6343  1.2755 -1.4451
10528TIP3   OH231524   3.584   2.233   5.669 -0.4405  0.0967  0.0315
10528TIP3    H131525   3.504   2.286   5.677 -0.2068  0.9669 -2.3655
10528TIP3    H231526   3.553   2.145   5.651 -0.8688  0.3015 -0.2511
10529TIP3   OH231527   3.915   2.658   4.515 -0.6819  0.0630 -0.1027
10529TIP3    H131528   3.824   2.638   4.540 -0.1664 -0.4799  1.4300
10529TIP3    H231529   3.968   2.606   4.574  0.6549  0.4538 -0.9203
10530TIP3   OH231530   1.416   0.804   5.272  0.9479  0.1456  0.2035
10530TIP3    H131531   1.322   0.797   5.255  1.2007  0.1240 -1.3800
10530TIP3    H231532   1.454   0.728   5.227  1.9613  1.5910 -1.5627
10531TIP3   OH231533   5.364   3.123   2.743 -0.3675  0.5460 -0.2463
10531TIP3    H131534   5.340   3.177   2.818  0.4557  1.3292 -0.5309
10531TIP3    H231535   5.453   3.151   2.720  0.2337 -1.1796 -0.1793
10532TIP3   OH231536   7.027   0.470   0.288  0.6690 -0.0011 -0.6553
10532TIP3    H131537   6.988   0.529   0.353  1.7328  1.2398 -1.1042
10532TIP3    H231538   7.007   0.510   0.204  0.8458 -0.6430 -1.0095
10533TIP3   OH231539   0.736   2.718   2.221  0.1975 -0.2938  0.5218
10533TIP3    H131540   0.745   2.623   2.230  1.9166 -0.5450 -2.4996
10533TIP3    H231541   0.826   2.750   2.219 -0.2853  1.0940 -0.8270
10534TIP3   OH231542   6.492   0.968   1.367 -0.2490  0.3819  0.1861
10534TIP3    H131543   6.463   0.992   1.279  2.7756 -0.9705 -1.3424
10534TIP3    H231544   6.510   1.052   1.410 -1.8443  1.0669 -0.4039
10535TIP3   OH231545   2.071   0.921   2.723 -0.3670 -0.0643 -0.1147
10535TIP3    H131546   2.027   0.947   2.642 -1.5060 -1.3803  0.0284
10535TIP3    H231547   2.155   0.967   2.722 -0.3846 -0.0174 -2.0159
10536TIP3   OH231548   8.074   0.002   0.362  0.9946 -0.3797  0.7526
10536TIP3    H131549   8.027   0.060   0.422  0.1872 -2.1882  1.9768
10536TIP3    H231550   8.084   0.053   0.281 -2.4615  0.3679  0.6670
10537TIP3   OH231551   1.526   4.120   4.604  0.0441  0.8980  0.1232
10537TIP3    H131552   1.448   4.113   4.659 -0.9614 -0.3462 -1.3667
10537TIP3    H231553   1.586   4.055   4.641 -0.3251  0.5995  0.2118
10538TIP3   OH231554   1.177   6.059   1.421  0.1714  0.1544  0.1520
10538TIP3    H131555   1.202   5.999   1.350 -1.1254 -1.2626  0.8420
10538TIP3    H231556   1.259   6.082   1.463  0.9777  0.9753 -1.7302
10539TIP3   OH231557   7.036   0.108   4.024 -0.3492 -0.1287 -0.3210
10539TIP3    H131558   6.982   0.131   3.948  1.5547  1.6279 -1.2524
10539TIP3    H231559   7.003   0.163   4.095  0.7225  1.6570 -1.1337
10540TIP3   OH231560   5.897   1.267   1.708  0.3191  0.1523 -0.3765
10540TIP3    H131561   5.833   1.203   1.738  1.0461 -0.0478  0.8207
10540TIP3    H231562   5.903   1.331   1.779  1.4961  0.1280 -0.4342
10541TIP3   OH231563   4.631   3.323   4.978 -0.2484 -0.1194 -0.4394
10541TIP3    H131564   4.547   3.345   4.937 -0.0232 -0.0775 -0.8784
10541TIP3    H231565   4.642   3.388   5.047 -1.7412 -1.5333  1.2616
10542TIP3   OH231566   5.679   6.287   4.023 -0.1967 -1.0027  0.3380
10542TIP3    H131567   5.688   6.381   4.035  1.1429 -1.0619  0.0010
10542TIP3    H231568   5.636   6.277   3.938  0.9101 -0.6931 -0.2732
10543TIP3   OH231569   8.364   5.435   0.116  0.0698 -0.5230 -0.7544
10543TIP3    H131570   8.426   5.371   0.150  0.2769 -0.0556 -0.2359
10543TIP3    H231571   8.282   5.387   0.108  0.3445 -0.9824 -0.8583
10544TIP3   OH231572   4.605   5.278   1.305 -0.0155  0.2531  0.1558
10544TIP3    H131573   4.643   5.364   1.288  0.0468 -0.0593 -1.4225
10544TIP3    H231574   4.620   5.263   1.398  4.8157 -0.3317 -0.4676
10545TIP3   OH231575   0.767   5.091   3.422  0.1484 -0.2892  0.2219
10545TIP3    H131576   0.749   5.106   3.329  2.9395 -0.9728 -0.5146
10545TIP3    H231577   0.765   4.996   3.432 -1.8897 -0.2013  1.3470
10546TIP3   OH231578   3.963   7.111   0.124 -0.2256 -0.1386  0.4624
10546TIP3    H131579   3.963   7.053   0.200  0.7911 -0.9688 -0.1521
10546TIP3    H231580   4.046   7.094   0.080 -0.5818  0.6830 -0.5770
10547TIP3   OH231581   7.887   4.423   1.619  0.0387  0.2413  0.7306
10547TIP3    H131582   7.964   4.480   1.618 -0.8647  1.5025 -0.8640
10547TIP3    H231583   7.916   4.346   1.668  2.9284 -0.1869 -1.3744
10548TIP3   OH231584   1.451   2.707   2.136  0.2219 -0.3039 -0.3788
10548TIP3    H131585   1.419   2.769   2.070  0.9940  0.0545 -0.4299
10548TIP3    H231586   1.460   2.759   2.216  1.3414 -0.2150 -0.5461
10549TIP3   OH231587   5.382   2.481   4.085 -0.0291  0.7123 -0.9201
10549TIP3    H131588   5.329   2.435   4.149  2.1326 -0.6871 -0.0227
10549TIP3    H231589   5.413   2.559   4.131  0.3456  0.4512 -0.7181
10550TIP3   OH231590   3.311   6.915   0.862 -0.5124  0.2390  0.3676
10550TIP3    H131591   3.273   6.850   0.921  1.6732 -2.4710 -1.0175
10550TIP3    H231592   3.402   6.922   0.889  0.6057 -1.2338 -2.6938
10551TIP3   OH231593   5.076   7.879   1.207  0.3327  0.2003  0.0604
10551TIP3    H131594   4.997   7.924   1.177 -0.4888 -1.9250 -1.1451
10551TIP3    H231595   5.058   7.859   1.299 -0.7136 -0.6180 -0.3131
10552TIP3   OH231596   7.708   3.721   3.695 -0.0705  0.0952  0.2703
10552TIP3    H131597   7.638   3.786   3.688 -0.0103  0.2273  0.8601
10552TIP3    H231598   7.758   3.748   3.772 -1.3867 -1.9025  1.9494
10553TIP3   OH231599   0.280   7.257   0.608 -0.0558 -0.4476  0.5973
10553TIP3    H131600   0.289   7.168   0.574  0.5057  0.2865 -1.3200
10553TIP3    H231601   0.192   7.283   0.584 -0.0085 -0.2655  0.6219
10554TIP3   OH231602   4.086   6.494   6.394  0.2214 -0.2095  0.6748
10554TIP3    H131603   4.181   6.489   6.384  0.2724  0.2443  0.9156
10554TIP3    H231604   4.055   6.406   6.375  0.6696 -0.3006  0.3495
10555TIP3   OH231605   4.095   5.164   0.965  0.0712 -0.0493  0.1312
10555TIP3    H131606   4.175   5.214   0.947  0.8737 -0.7040  1.6579
10555TIP3    H231607   4.062   5.200   1.046  0.7011 -1.9476  1.3124
10556TIP3   OH231608   6.826   4.827   2.705 -0.2381 -0.0810 -0.1819
10556TIP3    H131609   6.813   4.821   2.800 -0.4578 -1.9360 -0.2804
10556TIP3    H231610   6.746   4.792   2.668 -0.7394  1.9485 -1.1231
10557TIP3   OH231611   3.330   1.696   0.520 -0.6430 -0.0433  0.2454
10557TIP3    H131612   3.355   1.667   0.608  1.8253  3.4621  0.9160
10557TIP3    H231613   3.414   1.712   0.476 -1.7969  1.7349 -1.4442
10558TIP3   OH231614   1.908   4.541   3.249  0.1952 -0.0768 -0.2367
10558TIP3    H131615   1.961   4.461   3.253  0.8294  0.4166  1.9830
10558TIP3    H231616   1.894   4.555   3.155 -0.2423 -2.9759 -0.6909
10559TIP3   OH231617   4.378   2.234   1.364 -0.3931  0.2231  0.7662
10559TIP3    H131618   4.369   2.146   1.401 -2.5855 -0.5750 -1.4319
10559TIP3    H231619   4.471   2.241   1.342  0.3866 -0.4088  3.4567
10560TIP3   OH231620   3.835   2.744   1.574  0.1143  0.3956 -0.1743
10560TIP3    H131621   3.831   2.737   1.479 -0.6900  0.8928 -0.1885
10560TIP3    H231622   3.887   2.668   1.602 -1.5655 -1.0731 -0.8485
10561TIP3   OH231623   4.984   7.440   4.791 -0.3048  0.4525  0.4895
10561TIP3    H131624   5.005   7.521   4.744 -1.8023  1.1869  1.0278
10561TIP3    H231625   5.021   7.452   4.878  2.9503 -1.1312 -0.5206
10562TIP3   OH231626   0.322   1.016   6.504 -0.4710 -0.6304 -0.4603
10562TIP3    H131627   0.298   1.093   6.452 -1.5754 -1.0913 -0.6599
10562TIP3    H231628   0.253   1.008   6.569 -0.6961 -1.7922 -0.8235
10563TIP3   OH231629   0.487   2.934   4.599 -0.4367 -0.3189 -0.2577
10563TIP3    H131630   0.393   2.941   4.588 -0.4394  0.4620  0.1907
10563TIP3    H231631   0.499   2.921   4.693 -0.0648  0.3949 -0.1987
10564TIP3   OH231632   6.920   1.493   4.706 -0.4896 -1.3483  0.4725
10564TIP3    H131633   6.860   1.564   4.730  0.4806  0.4841 -2.0370
10564TIP3    H231634   6.869   1.439   4.646  0.1901  0.1811 -1.6201
10565TIP3   OH231635   6.113   1.449   4.608 -0.5285  0.0720 -0.1453
10565TIP3    H131636   6.076   1.521   4.659  0.4389  0.4976 -0.0158
10565TIP3    H231637   6.122   1.377   4.671 -0.1091  0.3317  0.1021
10566TIP3   OH231638   1.132   3.194   2.542 -0.7828 -0.1229 -0.3926
10566TIP3    H131639   1.110   3.141   2.619 -2.2697  1.9503  0.7399
10566TIP3    H231640   1.184   3.266   2.578 -1.9512  1.1671 -1.2001
10567TIP3   OH231641   5.208   1.259   1.306 -0.2758  0.3021  0.0334
10567TIP3    H131642   5.260   1.194   1.352 -0.2286 -0.5494 -1.1765
10567TIP3    H231643   5.162   1.307   1.375  1.5968  0.6589  1.0830
10568TIP3   OH231644   6.466   6.224   6.274  0.5696  0.4432 -0.0607
10568TIP3    H131645   6.507   6.299   6.232  0.1766  1.0228  0.5550
10568TIP3    H231646   6.404   6.263   6.336  1.1363 -0.3589  1.0570
10569TIP3   OH231647   5.812   7.828   2.290 -0.2618  0.2051  0.0975
10569TIP3    H131648   5.797   7.771   2.214 -1.8774 -0.6117  0.9692
10569TIP3    H231649   5.882   7.887   2.262  0.2366 -1.0477 -1.4772
10570TIP3   OH231650   2.443   2.666   1.846 -0.4399 -0.1244  0.0690
10570TIP3    H131651   2.459   2.668   1.940 -0.0904  0.7019 -0.0008
10570TIP3    H231652   2.377   2.597   1.834 -2.1675  1.2286  1.1855
10571TIP3   OH231653   6.293   5.950   5.289 -0.1411 -0.5286 -0.4314
10571TIP3    H131654   6.299   5.907   5.374 -0.0184  0.6326  0.1759
10571TIP3    H231655   6.357   6.022   5.294 -2.0037  1.2160 -0.4830
10572TIP3   OH231656   8.301   4.859   3.350  0.7091 -0.4190  0.0884
10572TIP3    H131657   8.275   4.895   3.435  1.5952  1.5609 -0.4150
10572TIP3    H231658   8.230   4.885   3.291  0.7937 -0.5286 -0.0609
10573TIP3   OH231659   3.738   2.047   2.694 -0.6234 -0.3928 -0.6418
10573TIP3    H131660   3.648   2.062   2.667 -0.7355 -1.1095 -0.6770
10573TIP3    H231661   3.771   1.980   2.634  0.2315  0.5139 -1.2251
10574TIP3   OH231662   6.672   5.247   0.218 -0.1533  0.6740 -0.2835
10574TIP3    H131663   6.735   5.319   0.218 -1.2266  1.6556  0.0303
10574TIP3    H231664   6.645   5.239   0.310 -1.0271  0.7888 -0.5178
10575TIP3   OH231665   4.285   1.568   5.052  0.1562 -0.4379 -0.3161
10575TIP3    H131666   4.375   1.600   5.059  0.0328  0.2266 -1.4350
10575TIP3    H231667   4.292   1.492   4.995  0.2618 -1.6452  1.2429
10576TIP3   OH231668   0.799   7.654   6.555 -0.4469 -0.0109  0.2098
10576TIP3    H131669   0.781   7.739   6.595 -0.6995  0.7229 -1.3773
10576TIP3    H231670   0.716   7.626   6.518 -0.6510 -1.5275  1.6550
10577TIP3   OH231671   8.215   4.903   2.717  0.3344  0.2302  0.0492
10577TIP3    H131672   8.123   4.892   2.691  0.4613  1.7488 -1.1270
10577TIP3    H231673   8.237   4.992   2.693  2.4095 -0.3872 -0.5616
10578TIP3   OH231674   1.859   1.294   0.486  0.0412 -0.6433 -0.2500
10578TIP3    H131675   1.851   1.212   0.535 -1.0824 -1.4328 -1.6734
10578TIP3    H231676   1.786   1.347   0.518 -0.6763 -1.1475 -1.0094
10579TIP3   OH231677   2.671   5.893   4.141 -0.2421 -0.1538 -0.0932
10579TIP3    H131678   2.647   5.837   4.214  1.8928 -0.2811  0.5680
10579TIP3    H231679   2.624   5.856   4.066  1.3247 -3.0807  0.2415
10580TIP3   OH231680   6.289   5.001   5.700  0.0351  0.2954  0.1015
10580TIP3    H131681   6.358   5.067   5.709  0.7549 -0.4693  0.3167
10580TIP3    H231682   6.326   4.934   5.642 -0.4257 -0.2507  0.4196
10581TIP3   OH231683   8.224   3.463   1.480  0.5749 -0.0158  0.2580
10581TIP3    H131684   8.264   3.404   1.545  1.0608 -0.4317 -0.4124
10581TIP3    H231685   8.288   3.533   1.468  1.9747 -1.5594 -2.0924
10582TIP3   OH231686   3.909   2.540   5.817  0.0259 -0.1581  0.0444
10582TIP3    H131687   3.930   2.494   5.898  0.1204  1.0055  0.6886
10582TIP3    H231688   3.814   2.536   5.810 -0.0413  0.3934  0.6091
10583TIP3   OH231689   5.141   3.388   5.371 -0.0138 -0.1524 -0.5570
10583TIP3    H131690   5.126   3.467   5.320 -0.0907  1.6031  2.0188
10583TIP3    H231691   5.146   3.418   5.462 -0.4069 -3.1548  0.5765
10584TIP3   OH231692   7.969   5.729   3.222  0.6681 -0.4064 -0.4788
10584TIP3    H131693   7.903   5.661   3.209  0.1879  0.0772 -0.6408
10584TIP3    H231694   8.051   5.682   3.232  0.2319 -1.0446  0.1769
10585TIP3   OH231695   7.103   3.893   4.475  0.4151 -0.2672 -0.0458
10585TIP3    H131696   7.065   3.929   4.555 -1.2542 -1.9604  0.0047
10585TIP3    H231697   7.028   3.882   4.416  0.9474 -2.6638 -0.3977
10586TIP3   OH231698   6.875   0.327   5.349  0.0575  0.0888  0.0130
10586TIP3    H131699   6.881   0.372   5.265 -0.8381 -2.0980 -1.3051
10586TIP3    H231700   6.877   0.234   5.327  0.6700 -0.5614  2.5026
10587TIP3   OH231701   1.066   1.791   0.643  0.7555 -0.2191  0.2299
10587TIP3    H131702   0.975   1.777   0.616  1.1696 -2.2533 -0.3364
10587TIP3    H231703   1.062   1.863   0.705 -1.1326  0.2580 -0.3741
10588TIP3   OH231704   4.431   6.521   3.873  0.3498 -0.4240 -0.0334
10588TIP3    H131705   4.468   6.524   3.962  2.7112  0.0261 -0.9506
10588TIP3    H231706   4.466   6.599   3.830 -0.7556 -0.6397 -1.3843
10589TIP3   OH231707   1.887   7.785   2.458 -0.2766 -0.0238 -0.1259
10589TIP3    H131708   1.856   7.765   2.546 -0.5167  0.6227 -0.0593
10589TIP3    H231709   1.882   7.702   2.411  1.2372 -0.7289  0.8644
10590TIP3   OH231710   6.306   0.810   0.862 -0.6060 -0.2722  0.3119
10590TIP3    H131711   6.227   0.833   0.814 -0.8720  1.4143  1.4719
10590TIP3    H231712   6.276   0.751   0.931 -0.2935 -2.3184 -1.2039
10591TIP3   OH231713   0.276   1.233   5.578  1.0118  0.3755 -0.3402
10591TIP3    H131714   0.237   1.285   5.507  1.6278  0.0175 -0.9617
10591TIP3    H231715   0.351   1.189   5.536  0.1243 -1.5467 -0.0350
10592TIP3   OH231716   1.154   0.309   6.099 -0.1378 -0.3685  0.2787
10592TIP3    H131717   1.166   0.254   6.022  1.1980  0.6083 -0.2564
10592TIP3    H231718   1.242   0.318   6.136  0.0861  2.8689 -0.7206
10593TIP3   OH231719   5.462   7.311   1.401 -0.1511 -0.3581 -0.0381
10593TIP3    H131720   5.453   7.257   1.323 -0.6082 -0.3646  0.0132
10593TIP3    H231721   5.513   7.387   1.373 -0.0418 -0.5144 -0.2635
10594TIP3   OH231722   6.796   1.951   2.205  0.4352 -0.1007  0.1141
10594TIP3    H131723   6.857   1.983   2.272  2.0871 -0.6332 -1.0743
10594TIP3    H231724   6.776   1.861   2.231 -0.1659  0.1973  0.7094
10595TIP3   OH231725   7.022   0.955   3.806  0.1825  0.3909 -0.1099
10595TIP3    H131726   6.970   0.877   3.787 -0.1052  0.3557  0.8078
10595TIP3    H231727   7.025   0.960   3.901  2.1495  0.2046 -0.1145
10596TIP3   OH231728   2.991   6.262   3.414  0.0114  0.4275 -0.4241
10596TIP3    H131729   2.973   6.289   3.323  0.2685  0.2075 -0.5427
10596TIP3    H231730   3.059   6.195   3.406  1.0920  1.4307  0.0261
10597TIP3   OH231731   3.620   1.531   6.144  0.4727  0.1954  0.1264
10597TIP3    H131732   3.684   1.598   6.165 -0.1590  1.0454 -0.6005
10597TIP3    H231733   3.654   1.452   6.186  0.5032  1.2586  2.2334
10598TIP3   OH231734   6.894   1.928   5.028 -0.0306 -0.2903  0.0311
10598TIP3    H131735   6.909   1.871   5.104 -0.4625 -0.0181  0.3292
10598TIP3    H231736   6.963   1.905   4.966  0.5851 -0.2275  0.6793
10599TIP3   OH231737   2.857   4.161   0.404 -0.1022 -0.3722 -0.4728
10599TIP3    H131738   2.779   4.213   0.384 -1.0611 -1.5751  0.0576
10599TIP3    H231739   2.855   4.088   0.342 -0.3694 -1.3655  0.6718
10600TIP3   OH231740   3.504   2.381   6.305 -0.2865  0.2932 -0.2946
10600TIP3    H131741   3.480   2.459   6.256 -1.2530 -0.1257 -0.5122
10600TIP3    H231742   3.582   2.347   6.260  0.5540  1.4793  0.2069
10601TIP3   OH231743   3.315   2.469   2.068  0.5314 -0.7703 -0.2263
10601TIP3    H131744   3.358   2.481   2.153  1.2861 -0.2569 -0.6653
10601TIP3    H231745   3.278   2.381   2.072 -0.6601 -0.2517  1.1504
10602TIP3   OH231746   1.079   7.008   4.810 -0.0364 -0.1851 -0.5213
10602TIP3    H131747   1.041   6.997   4.897  0.5087  0.8828 -0.1312
10602TIP3    H231748   1.173   7.017   4.826  0.4143 -2.3775 -1.4315
10603TIP3   OH231749   7.867   7.414   5.697 -0.8428 -0.1648  0.5100
10603TIP3    H131750   7.856   7.382   5.787  2.2135  0.4985  1.2464
10603TIP3    H231751   7.911   7.499   5.707 -2.3157  0.9215 -1.5943
10604TIP3   OH231752   6.339   4.063   5.486  0.2165  0.1456  0.4285
10604TIP3    H131753   6.338   4.027   5.398 -0.3552  1.0043  0.0672
10604TIP3    H231754   6.431   4.063   5.511  0.5007  0.7854 -0.5618
10605TIP3   OH231755   3.925   7.872   5.107 -0.0176 -0.4487  0.2473
10605TIP3    H131756   3.919   7.856   5.012  0.6596 -0.9770  0.2812
10605TIP3    H231757   3.872   7.949   5.122  2.0501  1.3380 -1.0314
10606TIP3   OH231758   2.008   5.497   6.444  0.4317  0.4550 -0.0817
10606TIP3    H131759   2.064   5.570   6.417  1.4682 -0.5834 -0.8322
10606TIP3    H231760   1.983   5.455   6.362  0.0973 -0.2269  0.3624
10607TIP3   OH231761   5.728   3.237   0.049 -0.4196  0.2793  0.3760
10607TIP3    H131762   5.687   3.320   0.075  1.0424  0.8560  0.9383
10607TIP3    H231763   5.755   3.252  -0.042 -1.6686 -0.2058 -0.0945
10608TIP3   OH231764   6.950   2.561   5.621 -0.2115  0.0772  0.4672
10608TIP3    H131765   7.020   2.496   5.615  0.5874  0.8552  0.9898
10608TIP3    H231766   6.994   2.641   5.649 -1.2478  0.7188  0.3417
10609TIP3   OH231767   6.694   0.561   3.552  0.2600  0.4326  0.1493
10609TIP3    H131768   6.640   0.484   3.536  0.5939  0.2979 -0.3719
10609TIP3    H231769   6.672   0.588   3.641 -0.3613  0.1403  0.0931
10610TIP3   OH231770   1.550   6.490   3.106  0.1213  0.2685  0.7928
10610TIP3    H131771   1.481   6.547   3.139 -0.0978  0.4770  0.0049
10610TIP3    H231772   1.621   6.499   3.168 -0.1492  0.9211  1.0102
10611TIP3   OH231773   7.550   4.039   4.088 -0.5539  0.8858  0.3083
10611TIP3    H131774   7.471   4.092   4.101 -1.7313 -0.8525  0.4640
10611TIP3    H231775   7.538   3.998   4.003  0.4809  1.0444  0.0675
10612TIP3   OH231776   3.646   7.757   2.651  0.2040 -0.3336  0.1436
10612TIP3    H131777   3.626   7.817   2.723  0.9862 -1.0263  0.9653
10612TIP3    H231778   3.650   7.813   2.573 -0.6960  0.4235  0.6184
10613TIP3   OH231779   5.711   4.783   1.743  0.1964  0.1134  0.4676
10613TIP3    H131780   5.723   4.735   1.661  2.1032  1.1617  0.0679
10613TIP3    H231781   5.660   4.860   1.718 -2.3544 -1.3081  1.0003
10614TIP3   OH231782   0.028   0.114   1.619  0.0721  0.8683 -0.0835
10614TIP3    H131783  -0.001   0.205   1.612 -1.3602  0.4201 -0.4020
10614TIP3    H231784   0.083   0.100   1.542 -1.3908  0.9209 -1.2053
10615TIP3   OH231785   5.840   3.605   5.449  0.3169  0.2615 -0.5164
10615TIP3    H131786   5.886   3.644   5.523 -0.8160  0.2244  0.2245
10615TIP3    H231787   5.764   3.662   5.436  0.0567 -0.2138 -1.1120
10616TIP3   OH231788   6.909   0.779   1.940  0.5638 -0.0155  0.6495
10616TIP3    H131789   6.822   0.760   1.903  0.2767  0.4789  1.0658
10616TIP3    H231790   6.943   0.850   1.886  0.3816  0.3221  0.9791
10617TIP3   OH231791   0.026   3.040   1.594 -0.1683 -0.3398  0.4437
10617TIP3    H131792   0.049   3.126   1.559 -0.1079 -0.0494  1.1933
10617TIP3    H231793  -0.007   3.057   1.682  0.5949 -1.1529  0.9101
10618TIP3   OH231794   3.114   2.068   5.045 -0.1594  0.6200  0.3289
10618TIP3    H131795   3.143   2.074   5.136  0.4386  0.1871  0.1751
10618TIP3    H231796   3.065   1.986   5.041 -0.8185  0.9981  0.4214
10619TIP3   OH231797   6.454   6.698   5.966  0.5879 -0.1681 -0.6051
10619TIP3    H131798   6.502   6.740   5.894  1.3181 -0.6324 -0.4015
10619TIP3    H231799   6.411   6.623   5.926  1.2559 -0.6130 -0.5070
10620TIP3   OH231800   5.039   2.242   3.627 -0.3263 -0.5959 -0.2346
10620TIP3    H131801   4.946   2.231   3.645 -0.1080 -0.8860  0.7594
10620TIP3    H231802   5.051   2.199   3.542 -0.9216 -1.4241  0.0795
10621TIP3   OH231803   2.710   7.895   0.894 -0.0972  0.0616 -0.4094
10621TIP3    H131804   2.713   7.989   0.913  0.3105 -0.2158  1.0477
10621TIP3    H231805   2.617   7.872   0.900 -0.0205  0.0225  1.3082
10622TIP3   OH231806   3.412   1.267   4.112  0.4366 -0.1770 -0.1181
10622TIP3    H131807   3.362   1.347   4.130 -0.1949 -0.3716 -0.9616
10622TIP3    H231808   3.487   1.272   4.172 -0.3916  0.2921  0.9130
10623TIP3   OH231809   7.808   6.340   0.993  0.1682  0.0297 -0.3078
10623TIP3    H131810   7.722   6.299   0.999 -0.1676  0.4403 -1.7435
10623TIP3    H231811   7.850   6.297   0.918  0.5531  0.9525 -0.6381
10624TIP3   OH231812   5.027   0.141   4.203  0.3537  0.9897 -0.1652
10624TIP3    H131813   4.968   0.170   4.134  2.4448  1.4460 -1.8778
10624TIP3    H231814   5.050   0.051   4.180  1.6123  1.3751 -0.5125
10625TIP3   OH231815   1.416   4.693   2.821  0.5467  0.5425  0.3568
10625TIP3    H131816   1.369   4.619   2.858  0.0764  1.4464  1.6371
10625TIP3    H231817   1.348   4.757   2.801  0.8720  0.3587 -1.4456
10626TIP3   OH231818   0.353   5.180   6.366 -0.0755  0.1566  0.4421
10626TIP3    H131819   0.268   5.177   6.410 -0.3024 -0.9019 -0.0268
10626TIP3    H231820   0.335   5.226   6.284 -0.0901  0.3568  0.5572
10627TIP3   OH231821   0.294   4.314   0.068 -0.6860  0.3702 -0.1266
10627TIP3    H131822   0.230   4.243   0.063  1.0335 -1.5817  2.7109
10627TIP3    H231823   0.257   4.375   0.132 -0.1256 -0.4431  1.0308
10628TIP3   OH231824   3.758   4.233   6.595 -0.2013 -0.5022 -0.4843
10628TIP3    H131825   3.819   4.304   6.577 -0.5989  0.5250  1.9324
10628TIP3    H231826   3.675   4.276   6.613 -1.0258 -1.7371 -1.1153
10629TIP3   OH231827   7.118   2.344   2.942 -0.2231  0.4347 -0.0323
10629TIP3    H131828   7.082   2.265   2.902 -1.8660 -0.1775  2.4268
10629TIP3    H231829   7.103   2.413   2.877 -3.6872 -0.2907 -0.2263
10630TIP3   OH231830   0.170   3.350   6.012 -0.5593  0.2340  0.2207
10630TIP3    H131831   0.163   3.260   6.043  0.4423  0.4158  1.0442
10630TIP3    H231832   0.085   3.389   6.031 -1.3218 -0.7693 -0.9792
10631TIP3   OH231833   0.171   4.261   2.338 -0.0460 -0.2783  0.2380
10631TIP3    H131834   0.149   4.308   2.419 -0.5341 -0.6759  0.3425
10631TIP3    H231835   0.245   4.206   2.362 -0.6971 -1.0003  0.6467
10632TIP3   OH231836   0.810   6.524   1.757 -0.4041  0.2582 -0.1341
10632TIP3    H131837   0.775   6.440   1.788 -0.0956  0.2941  0.3336
10632TIP3    H231838   0.793   6.524   1.663  2.8829 -1.9881 -0.8951
10633TIP3   OH231839   0.757   1.104   3.940  0.5333  0.1561 -0.5388
10633TIP3    H131840   0.694   1.102   4.012 -0.4944 -0.2550 -1.4087
10633TIP3    H231841   0.726   1.176   3.884  1.3191  0.4733 -0.5720
10634TIP3   OH231842   4.638   2.671   2.487  0.1297 -0.7539 -0.2015
10634TIP3    H131843   4.642   2.590   2.537 -1.1273 -1.4750 -1.1941
10634TIP3    H231844   4.545   2.696   2.489  0.6899  1.5165  1.3470
10635TIP3   OH231845   5.622   3.327   6.836 -0.3983  0.4864 -0.4832
10635TIP3    H131846   5.704   3.311   6.789 -0.5392 -0.4800 -0.4300
10635TIP3    H231847   5.556   3.282   6.783 -0.7948  0.6948 -0.1664
10636TIP3   OH231848   1.775   0.297   0.821 -0.3187 -0.2309  0.1312
10636TIP3    H131849   1.858   0.323   0.780  0.9585  0.4246  2.8491
10636TIP3    H231850   1.718   0.275   0.748  1.2474  2.2140 -2.0413
10637TIP3   OH231851   4.492   6.352   5.624  0.3857  0.2260 -0.0483
10637TIP3    H131852   4.445   6.272   5.599  0.1501  0.5111 -0.5281
10637TIP3    H231853   4.579   6.342   5.585 -0.1908  0.9727 -1.6051
10638TIP3   OH231854   2.607   4.092   6.079  0.5057  0.4278  0.3079
10638TIP3    H131855   2.630   4.057   5.993  1.8202  0.9021  0.4471
10638TIP3    H231856   2.667   4.048   6.139 -0.6089 -0.1367  1.0472
10639TIP3   OH231857   5.438   0.243   1.005  0.5047  0.2191  0.3614
10639TIP3    H131858   5.426   0.251   1.099 -1.3940  3.6711 -0.0341
10639TIP3    H231859   5.507   0.305   0.983 -0.8581  1.4157 -0.7553
10640TIP3   OH231860   3.758   3.652   5.107  0.3192  0.3922 -0.2465
10640TIP3    H131861   3.804   3.669   5.025  1.2543  0.4646  0.2789
10640TIP3    H231862   3.760   3.736   5.154 -0.3779  0.4034 -0.2292
10641TIP3   OH231863   5.376   6.460   6.288  0.8785  0.2328 -0.2260
10641TIP3    H131864   5.325   6.500   6.218  2.4555 -0.2114 -1.7140
10641TIP3    H231865   5.362   6.366   6.277 -0.8336  0.2024  1.6792
10642TIP3   OH231866   2.699   2.667   2.984 -0.2072  0.3151  0.6822
10642TIP3    H131867   2.614   2.623   2.981  0.3372 -0.8152  1.3073
10642TIP3    H231868   2.688   2.736   3.050 -1.2531  1.5832 -0.7515
10643TIP3   OH231869   6.261   2.671   4.469 -0.3205 -0.4542  0.4805
10643TIP3    H131870   6.337   2.638   4.421  0.5796  0.9335  0.8862
10643TIP3    H231871   6.286   2.666   4.561 -0.9959 -0.6189  0.6626
10644TIP3   OH231872   2.650   1.522   6.582 -0.1008  0.2021  0.0343
10644TIP3    H131873   2.570   1.566   6.553 -0.4058 -1.0353 -1.0702
10644TIP3    H231874   2.671   1.460   6.512  1.4936  0.0694  0.5784
10645TIP3   OH231875   2.339   0.462   2.967  0.2137 -0.0468 -0.1897
10645TIP3    H131876   2.415   0.514   2.940  1.5729 -1.5095  0.6561
10645TIP3    H231877   2.376   0.378   2.993 -1.3462  0.0556  2.7781
10646TIP3   OH231878   1.490   5.723   3.337  0.2019  1.1014  0.4357
10646TIP3    H131879   1.573   5.764   3.360  0.6447 -0.1377  1.1315
10646TIP3    H231880   1.500   5.697   3.245 -0.0292  2.3759  0.0324
10647TIP3   OH231881   0.967   5.975   3.212 -0.0466 -0.7166  0.0508
10647TIP3    H131882   0.881   5.942   3.187 -0.1966 -0.3552  0.0894
10647TIP3    H231883   1.029   5.915   3.169 -0.3166 -1.1205  0.2242
10648TIP3   OH231884   5.770   5.439   2.799 -0.3914 -0.3203 -0.1258
10648TIP3    H131885   5.808   5.523   2.774  0.4393 -0.6224  0.0911
10648TIP3    H231886   5.727   5.408   2.719  0.7217 -0.4533 -0.6944
10649TIP3   OH231887   6.539   7.942   0.350 -0.2697  0.3064  0.2184
10649TIP3    H131888   6.536   7.912   0.259 -0.8333 -1.6855  0.8621
10649TIP3    H231889   6.502   7.870   0.401 -0.2446  1.5000  2.0182
10650TIP3   OH231890   0.693   7.351   4.463 -0.3351 -0.3225 -0.0085
10650TIP3    H131891   0.630   7.282   4.486 -1.1649  0.2352 -0.5208
10650TIP3    H231892   0.747   7.362   4.541 -1.2419 -0.4392  0.6521
10651TIP3   OH231893   5.357   7.550   1.957  0.6995 -0.0385 -0.1132
10651TIP3    H131894   5.342   7.639   1.927  1.0310 -0.1239 -0.5461
10651TIP3    H231895   5.298   7.539   2.032 -0.6082 -0.0250 -1.1068
10652TIP3   OH231896   3.917   4.098   6.847 -0.1404  0.0263  0.2196
10652TIP3    H131897   3.928   4.088   6.752  0.0817 -2.1745  0.4326
10652TIP3    H231898   3.822   4.091   6.861 -0.1587  0.2008  0.1940
10653TIP3   OH231899   3.193   4.778   3.977 -0.1998  0.4105 -0.1552
10653TIP3    H131900   3.207   4.781   4.072 -0.2599 -0.7317 -0.0968
10653TIP3    H231901   3.137   4.854   3.958  1.9690  2.2508  0.3190
10654TIP3   OH231902   6.727   4.302   5.286  0.1265 -0.5954 -0.1545
10654TIP3    H131903   6.774   4.361   5.346 -0.1013 -0.6316  0.0617
10654TIP3    H231904   6.744   4.338   5.199 -3.4877  2.4147  0.1178
10655TIP3   OH231905   1.691   0.050   5.550  0.8259  0.0499  0.5016
10655TIP3    H131906   1.687   0.048   5.645  2.2987 -0.1210  0.5882
10655TIP3    H231907   1.690  -0.042   5.523 -0.3697  0.1117  0.2908
10656TIP3   OH231908   1.722   1.307   5.198  0.1475  0.4377 -0.1584
10656TIP3    H131909   1.660   1.256   5.145  1.9550 -0.3293 -1.6369
10656TIP3    H231910   1.671   1.334   5.274 -1.1929 -2.8410  0.2982
10657TIP3   OH231911   5.001   7.349   3.751  0.4354 -0.1698  0.1561
10657TIP3    H131912   4.964   7.397   3.825 -0.8139 -0.0447 -0.5222
10657TIP3    H231913   4.984   7.257   3.771 -0.0717 -0.1246 -0.0547
10658TIP3   OH231914   4.866   2.260   5.337 -0.4391  0.2349  0.1474
10658TIP3    H131915   4.936   2.312   5.298  1.7149 -1.6922  1.2239
10658TIP3    H231916   4.812   2.232   5.263  2.0400 -1.1944 -1.2268
10659TIP3   OH231917   3.527   4.369   4.397 -0.2968  0.0538  0.6076
10659TIP3    H131918   3.557   4.351   4.308  0.3070  1.4243  0.5068
10659TIP3    H231919   3.606   4.395   4.444 -0.6066 -0.6772  1.5594
10660TIP3   OH231920   4.560   0.263   3.427  0.7777  0.8524 -0.4443
10660TIP3    H131921   4.556   0.194   3.493 -2.6367  0.5478 -0.8072
10660TIP3    H231922   4.595   0.220   3.349  0.2305 -0.0587 -0.2017
10661TIP3   OH231923   5.014   6.429   2.622 -0.5081  0.3610 -0.0666
10661TIP3    H131924   4.973   6.374   2.690 -2.1196  0.5693 -0.8301
10661TIP3    H231925   4.983   6.517   2.640  0.9832  0.8474  0.3230
10662TIP3   OH231926   3.857   0.040   1.030 -0.2028 -1.1916  0.3854
10662TIP3    H131927   3.945   0.011   1.004 -0.5050 -0.7962 -1.1723
10662TIP3    H231928   3.857   0.031   1.126  1.9331 -0.1198  0.5588
10663TIP3   OH231929   7.768   7.536   3.128  0.1925  0.1268 -0.1707
10663TIP3    H131930   7.811   7.460   3.089  2.0811  1.2287 -0.3763
10663TIP3    H231931   7.815   7.550   3.211 -0.9839  0.3253  0.4932
10664TIP3   OH231932   1.548   3.165   5.133  0.7407 -0.2536 -0.3594
10664TIP3    H131933   1.567   3.180   5.226 -0.2700  0.7948 -0.2923
10664TIP3    H231934   1.634   3.162   5.091  1.1742  2.1127  0.2151
10665TIP3   OH231935   2.065   6.346   5.760  0.0065 -0.1304 -0.0759
10665TIP3    H131936   1.986   6.298   5.783 -0.3357 -0.6835 -2.2234
10665TIP3    H231937   2.120   6.339   5.838 -1.5504 -0.7609  1.0276
10666TIP3   OH231938   6.626   1.630   3.755 -0.1344  0.6191 -0.1869
10666TIP3    H131939   6.681   1.615   3.832  0.0539  0.2110 -0.3954
10666TIP3    H231940   6.636   1.723   3.737  0.1317  0.6396  0.0505
10667TIP3   OH231941   4.550   2.581   0.646 -0.5582 -0.7001  0.3902
10667TIP3    H131942   4.607   2.596   0.722  1.5012 -1.8157 -0.8371
10667TIP3    H231943   4.474   2.535   0.681 -0.4212  0.2313  1.9969
10668TIP3   OH231944   2.897   7.019   6.194 -0.1969 -0.5740  0.0708
10668TIP3    H131945   2.855   6.939   6.225 -1.1032 -0.0573  0.1924
10668TIP3    H231946   2.866   7.087   6.254 -0.7962  0.1764 -1.0649
10669TIP3   OH231947   1.549   6.139   6.709  0.0625  0.0575 -0.2184
10669TIP3    H131948   1.601   6.073   6.755 -0.1954  0.1052  0.1527
10669TIP3    H231949   1.478   6.090   6.669  1.2645 -0.2299 -2.0840
10670TIP3   OH231950   7.103   6.128   4.486  0.1993 -0.4290  0.2726
10670TIP3    H131951   7.122   6.184   4.411  0.0166 -0.8623 -0.0981
10670TIP3    H231952   7.041   6.180   4.538  0.5400 -0.0140  0.2724
10671TIP3   OH231953   4.978   4.891   1.022  0.3873  0.1509 -0.0258
10671TIP3    H131954   4.982   4.796   1.006 -1.1862  0.1365 -0.4158
10671TIP3    H231955   5.011   4.930   0.941  1.8509 -0.0438  0.4418
10672TIP3   OH231956   7.220   2.508   0.126 -0.1104  0.0278 -0.1425
10672TIP3    H131957   7.279   2.433   0.115 -0.0317  0.2072 -1.0189
10672TIP3    H231958   7.278   2.583   0.139 -0.1354  0.2018 -0.9856
10673TIP3   OH231959   6.344   6.246   2.421 -0.0496  0.0701  0.0791
10673TIP3    H131960   6.345   6.320   2.359  1.4192 -1.7290 -2.2053
10673TIP3    H231961   6.398   6.179   2.379 -0.7670 -2.0854  2.3769
10674TIP3   OH231962   6.064   7.681   6.710 -0.0762 -0.0856 -0.3229
10674TIP3    H131963   6.072   7.738   6.634  0.2626  0.5248  0.1677
10674TIP3    H231964   6.023   7.736   6.777 -1.6699 -1.0143 -0.4812
10675TIP3   OH231965   1.519   4.860   2.478  0.1525 -0.1718  0.0436
10675TIP3    H131966   1.429   4.882   2.500  0.6209  1.9350  0.0916
10675TIP3    H231967   1.571   4.901   2.548  1.1790 -0.7655 -0.3533
10676TIP3   OH231968   6.123   1.717   1.930  0.5205 -0.0041  0.6523
10676TIP3    H131969   6.161   1.805   1.934  0.2936  0.1165  0.1227
10676TIP3    H231970   6.128   1.693   1.838 -0.3174 -0.1535  0.6419
10677TIP3   OH231971   6.595   3.546   0.488  0.1200 -0.1451  0.5283
10677TIP3    H131972   6.515   3.496   0.471  1.2519 -1.9965  0.3883
10677TIP3    H231973   6.592   3.618   0.425 -2.1769  0.7794  1.5823
10678TIP3   OH231974   1.813   2.231   5.514 -0.3340 -0.1132  0.2227
10678TIP3    H131975   1.883   2.174   5.484 -0.7801  0.2788 -1.7141
10678TIP3    H231976   1.804   2.296   5.444 -1.5228  0.8065  1.1988
10679TIP3   OH231977   7.508   7.049   6.349 -0.0910  0.2294  0.4737
10679TIP3    H131978   7.596   7.011   6.353  0.6554  1.3854 -2.6735
10679TIP3    H231979   7.450   6.978   6.376  1.7386 -0.4625  2.9934
10680TIP3   OH231980   0.481   7.209   4.563 -0.5368  0.2606 -0.4327
10680TIP3    H131981   0.403   7.165   4.528 -1.0476  0.2960  0.6309
10680TIP3    H231982   0.447   7.269   4.629  0.3570  0.6630 -0.3206
10681TIP3   OH231983   5.037   7.839   6.809  0.3930  0.2486  0.2181
10681TIP3    H131984   4.974   7.856   6.738 -0.6265 -1.0362  0.7825
10681TIP3    H231985   5.073   7.925   6.830  1.5263  0.5642 -2.5635
10682TIP3   OH231986   0.192   0.908   4.031  0.1376  0.0337 -0.6173
10682TIP3    H131987   0.106   0.868   4.040  0.2793 -0.1420  0.0959
10682TIP3    H231988   0.253   0.838   4.056  0.7606 -1.0535 -4.5805
10683TIP3   OH231989   6.068   2.156   1.081 -0.1068  0.2436  0.6165
10683TIP3    H131990   6.027   2.226   1.030 -0.7717 -0.9104 -0.4634
10683TIP3    H231991   6.001   2.087   1.086  0.5930 -0.3949  1.5281
10684TIP3   OH231992   7.843   3.656   6.826  0.6720 -0.1828  0.0212
10684TIP3    H131993   7.879   3.743   6.808  0.2069  0.0097 -0.0029
10684TIP3    H231994   7.837   3.614   6.740 -1.0696  0.5473 -0.2523
10685TIP3   OH231995   5.049   3.750   0.043 -0.2881 -0.0929  0.6405
10685TIP3    H131996   5.032   3.793   0.127 -0.4492 -0.2085  0.6684
10685TIP3    H231997   5.141   3.769   0.024 -0.2857  0.0365  0.7839
10686TIP3   OH231998   6.355   3.222   2.862  0.0196 -0.7419 -0.5325
10686TIP3    H131999   6.333   3.313   2.842 -1.2820 -0.7034  0.8550
10686TIP3    H232000   6.316   3.172   2.791 -1.0125 -0.3388 -0.2706
10687TIP3   OH232001   7.883   2.960   6.523 -0.1743  0.4939 -0.2223
10687TIP3    H132002   7.926   3.028   6.574  0.7478  1.1001 -1.7302
10687TIP3    H232003   7.891   2.881   6.576 -0.6786  1.3987  1.2642
10688TIP3   OH232004   0.484   0.143   1.635 -0.2204  0.5369  0.1478
10688TIP3    H132005   0.551   0.172   1.574 -0.4215  0.5458 -0.0719
10688TIP3    H232006   0.446   0.224   1.669 -0.3658  0.5335 -0.0035
10689TIP3   OH232007   5.599   0.315   3.726  0.2615 -0.1914  0.6386
10689TIP3    H132008   5.540   0.388   3.706  2.5369  1.5436 -0.2429
10689TIP3    H232009   5.580   0.249   3.660  0.0586  0.8069 -0.3181
10690TIP3   OH232010   3.505   1.621   6.777  0.1655  0.1500  0.5429
10690TIP3    H132011   3.548   1.564   6.840  1.5952  1.9051  1.2197
10690TIP3    H232012   3.533   1.709   6.800 -1.8588  1.1616 -0.5488
10691TIP3   OH232013   7.215   3.827   1.689 -0.3180  0.2038  0.2736
10691TIP3    H132014   7.310   3.822   1.699  0.0390  0.7580 -2.1506
10691TIP3    H232015   7.183   3.742   1.720  0.9603 -0.0406  1.0129
10692TIP3   OH232016   5.844   7.299   0.838  0.5010 -0.6013 -0.5195
10692TIP3    H132017   5.801   7.373   0.795 -1.1228 -2.1827 -1.7551
10692TIP3    H232018   5.803   7.294   0.924  0.0121 -0.5524 -0.7444
10693TIP3   OH232019   0.755   5.842   2.990 -0.1877 -0.0130 -0.1645
10693TIP3    H132020   0.676   5.896   2.992 -0.6108 -0.5677 -1.0950
10693TIP3    H232021   0.801   5.870   2.910  1.2596  1.2495  1.0578
10694TIP3   OH232022   7.805   1.869   0.537 -0.7797  0.8257  0.8596
10694TIP3    H132023   7.826   1.957   0.567 -2.6947  1.3758  0.7321
10694TIP3    H232024   7.709   1.863   0.544 -0.7103 -1.2263  0.8111
10695TIP3   OH232025   6.839   3.384   1.735 -0.5643 -0.0693 -0.7168
10695TIP3    H132026   6.850   3.478   1.721  1.9760 -0.4642 -1.8719
10695TIP3    H232027   6.919   3.345   1.700 -1.7944 -2.7223 -0.8028
10696TIP3   OH232028   0.930   6.692   3.879 -0.3546 -0.2454  0.0156
10696TIP3    H132029   0.974   6.696   3.964 -2.8302 -0.7864  1.4096
10696TIP3    H232030   0.982   6.630   3.828  2.0352  1.1986  0.5306
10697TIP3   OH232031   6.237   5.722   5.648 -0.0888  0.0865 -0.2646
10697TIP3    H132032   6.201   5.757   5.730 -0.6115  0.0939 -0.4903
10697TIP3    H232033   6.198   5.635   5.641  0.6324 -0.2615 -0.0760
10698TIP3   OH232034   1.517   7.163   0.879 -0.5057 -0.1234 -0.6114
10698TIP3    H132035   1.562   7.192   0.958 -1.1157  1.1346 -0.7107
10698TIP3    H232036   1.539   7.228   0.813  1.0327 -1.8271 -1.8754
10699TIP3   OH232037   0.766   3.848   6.075  0.3062 -0.6872 -0.4261
10699TIP3    H132038   0.817   3.770   6.052  0.7466 -1.0098  1.4593
10699TIP3    H232039   0.823   3.921   6.053  1.0169 -1.0006  0.3501
10700TIP3   OH232040   7.864   2.585   2.043  0.4575 -0.0500 -0.0448
10700TIP3    H132041   7.831   2.646   2.109  0.9521  0.1422  0.0259
10700TIP3    H232042   7.788   2.532   2.020  0.0030  0.6348 -0.1562
10701TIP3   OH232043   3.262   2.323   2.433  0.4213 -0.7504  0.1605
10701TIP3    H132044   3.341   2.374   2.452 -0.2517  0.5433 -0.3543
10701TIP3    H232045   3.191   2.374   2.473 -0.2483 -1.4270 -0.1542
10702TIP3   OH232046   2.995   0.437   3.791 -0.8319  0.4159  0.1621
10702TIP3    H132047   3.085   0.451   3.821 -2.1775  1.9193  4.1141
10702TIP3    H232048   2.970   0.353   3.829 -1.6956  0.9925  0.9134
10703TIP3   OH232049   8.111   1.987  -0.001  0.1675  0.0065 -0.5019
10703TIP3    H132050   8.194   1.958  -0.040 -0.5690 -1.3882 -1.1119
10703TIP3    H232051   8.137   2.034   0.078  1.8305  4.2221 -3.1992
10704TIP3   OH232052   7.499   2.975   5.187 -0.2325  0.2218 -0.0361
10704TIP3    H132053   7.593   2.959   5.173  0.3177  1.2684  2.1134
10704TIP3    H232054   7.495   3.030   5.265 -2.6807 -0.1846  0.2053
10705TIP3   OH232055   5.284   6.470   6.558  0.5825  0.3876 -0.3553
10705TIP3    H132056   5.210   6.528   6.539 -0.4047 -0.7372 -0.0860
10705TIP3    H232057   5.333   6.466   6.476 -0.1762  0.4293 -0.8232
10706TIP3   OH232058   2.075   7.423   5.643  0.0549 -0.9519  0.1680
10706TIP3    H132059   2.077   7.514   5.612 -1.3645 -1.8945 -3.1072
10706TIP3    H232060   2.156   7.413   5.693 -0.1662  2.3055  1.4592
10707TIP3   OH232061   4.906   1.262   5.284  0.3399 -0.7933  0.2449
10707TIP3    H132062   4.811   1.273   5.276  0.2741 -0.2050  1.5399
10707TIP3    H232063   4.916   1.185   5.340  0.5689  0.0466  1.4042
10708TIP3   OH232064   0.429   6.571   1.655 -0.4250  0.6866 -0.0854
10708TIP3    H132065   0.466   6.595   1.740 -0.3421 -1.0307  0.4165
10708TIP3    H232066   0.338   6.550   1.675  0.0870 -1.7296  0.0466
10709TIP3   OH232067   7.557   3.801   2.364  0.0508  0.1334  0.0318
10709TIP3    H132068   7.501   3.746   2.309  0.8538  1.1252 -1.8961
10709TIP3    H232069   7.644   3.761   2.357  0.1465  0.2303  0.6516
10710TIP3   OH232070   7.479   2.035   5.594 -0.3596 -1.0746  0.3955
10710TIP3    H132071   7.453   2.040   5.686  0.7890 -0.3942  0.6992
10710TIP3    H232072   7.564   1.990   5.596  0.6453  0.7352 -0.1177
10711TIP3   OH232073   2.752   3.377   5.442  0.6224  0.2901  0.0868
10711TIP3    H132074   2.796   3.297   5.411  0.8728 -0.1470  1.5051
10711TIP3    H232075   2.659   3.360   5.427  0.7870  0.4884 -1.2810
10712TIP3   OH232076   3.221   7.181   6.688  0.2198  0.2158 -0.0736
10712TIP3    H132077   3.178   7.115   6.741 -0.3082 -0.4446 -1.2724
10712TIP3    H232078   3.295   7.136   6.648 -1.7360 -0.5919 -3.1567
10713TIP3   OH232079   7.379   5.610   4.621  0.0235 -0.3489  0.3249
10713TIP3    H132080   7.324   5.666   4.676  0.9972  0.9290  0.0450
10713TIP3    H232081   7.322   5.583   4.549 -0.2728  0.9038  0.0647
10714TIP3   OH232082   2.471   1.312   2.237  0.2542 -0.6022  0.0100
10714TIP3    H132083   2.388   1.359   2.230  1.1210  1.1638  0.8707
10714TIP3    H232084   2.535   1.380   2.258  2.0125 -1.8447 -1.0767
10715TIP3   OH232085   6.987   5.129   2.285 -0.5607  0.1450  0.7386
10715TIP3    H132086   7.009   5.210   2.238  0.5702 -0.9164 -0.6463
10715TIP3    H232087   7.065   5.111   2.338 -0.6900 -0.2020  0.8108
10716TIP3   OH232088   5.616   3.895   5.100  0.0956  0.1290 -1.3958
10716TIP3    H132089   5.575   3.930   5.179 -0.4855 -2.2066 -0.5900
10716TIP3    H232090   5.666   3.969   5.065  1.1682  1.0207  1.6563
10717TIP3   OH232091   0.726   6.682   6.526 -0.1086 -0.2169  0.1468
10717TIP3    H132092   0.726   6.610   6.589 -0.0539 -0.5678 -0.2531
10717TIP3    H232093   0.760   6.643   6.445 -1.0752 -0.0095 -0.3704
10718TIP3   OH232094   3.327   4.417   4.576 -0.0402  0.4480 -0.1521
10718TIP3    H132095   3.355   4.462   4.656  0.1319 -0.6964  0.4517
10718TIP3    H232096   3.408   4.397   4.529  0.2282 -2.2683  1.2717
10719TIP3   OH232097   3.344   1.084   2.269  0.2479 -0.0430  0.2132
10719TIP3    H132098   3.386   0.998   2.276 -1.7363 -1.1420 -0.5735
10719TIP3    H232099   3.292   1.091   2.349 -0.4698 -0.0679 -0.2523
10720TIP3   OH232100   0.889   0.683   3.234  0.1918 -0.2551 -0.0659
10720TIP3    H132101   0.946   0.611   3.205  0.5546  0.0159 -0.0246
10720TIP3    H232102   0.937   0.725   3.305  1.5876  2.1880 -2.3023
10721TIP3   OH232103   7.339   6.320   1.436  0.5972  0.2181 -0.2014
10721TIP3    H132104   7.359   6.244   1.381 -0.6455 -0.0326 -0.3262
10721TIP3    H232105   7.261   6.295   1.484  1.1923  0.7595  1.0865
10722TIP3   OH232106   3.451   4.562   5.337 -0.0310 -0.1188  0.5426
10722TIP3    H132107   3.358   4.572   5.356 -0.5091 -2.5322 -0.1520
10722TIP3    H232108   3.461   4.594   5.247 -0.0224  0.7814  0.8529
10723TIP3   OH232109   5.889   6.338   2.076 -0.3231 -0.0591  0.3379
10723TIP3    H132110   5.864   6.265   2.019  0.1935 -0.4135  0.5488
10723TIP3    H232111   5.816   6.348   2.136 -0.8712  0.3150 -0.3816
10724TIP3   OH232112   4.360   6.779   1.242 -0.4194 -0.2861 -0.3359
10724TIP3    H132113   4.275   6.809   1.211 -1.1258 -0.0286  1.6718
10724TIP3    H232114   4.385   6.842   1.309  0.3326 -1.5132  0.5981
10725TIP3   OH232115   3.965   7.385   3.539  0.1966  0.1805 -0.5285
10725TIP3    H132116   3.954   7.348   3.452 -1.1614 -0.6765 -0.0284
10725TIP3    H232117   3.909   7.463   3.540 -0.0158  0.0254 -0.3264
10726TIP3   OH232118   6.449   4.367   5.391 -0.1722  0.3144  0.0956
10726TIP3    H132119   6.442   4.352   5.297 -0.5670  0.2175  0.1361
10726TIP3    H232120   6.532   4.325   5.416 -2.0215 -3.6066  0.5158
10727TIP3   OH232121   1.408   3.454   3.799  0.2995 -0.3068 -0.2334
10727TIP3    H132122   1.500   3.476   3.783  1.4595 -2.1278  3.0018
10727TIP3    H232123   1.407   3.422   3.889 -3.3998 -1.1604 -0.4483
10728TIP3   OH232124   4.468   3.993   1.411  0.2559 -0.4587  0.1673
10728TIP3    H132125   4.549   3.968   1.455 -1.0893 -1.1758  2.3507
10728TIP3    H232126   4.435   4.068   1.461 -1.1175 -1.0534  0.2131
10729TIP3   OH232127   7.101   3.407   2.594 -0.3482 -0.2250  0.1145
10729TIP3    H132128   7.148   3.473   2.645 -0.3846  0.4001 -0.6459
10729TIP3    H232129   7.072   3.343   2.659 -0.0774  0.3633  0.8315
10730TIP3   OH232130   4.304   1.705   3.158  0.1184 -0.0875  0.4943
10730TIP3    H132131   4.376   1.669   3.105 -0.4745 -1.6421  0.7003
10730TIP3    H232132   4.289   1.639   3.226 -1.0304  0.5518  0.8876
10731TIP3   OH232133   7.155   6.485   0.499 -0.0738 -0.3293 -0.3351
10731TIP3    H132134   7.210   6.474   0.422 -0.5336  0.8138 -0.8470
10731TIP3    H232135   7.148   6.397   0.537  0.3352 -0.8597 -1.4641
10732TIP3   OH232136   1.733   0.107   6.657  0.0115  0.5888  0.0889
10732TIP3    H132137   1.774   0.166   6.720 -0.5258  0.2520  0.7620
10732TIP3    H232138   1.696   0.036   6.710 -0.1773  0.1401 -0.6283
10733TIP3   OH232139   7.394   0.179   5.366  0.4221  0.3268  0.4159
10733TIP3    H132140   7.460   0.187   5.298  0.0779 -0.0326  0.0333
10733TIP3    H232141   7.344   0.101   5.342  0.7808 -0.2635  1.4948
10734TIP3   OH232142   3.259   7.130   3.626 -0.1733 -0.2543 -0.4795
10734TIP3    H132143   3.188   7.188   3.657 -0.9505 -0.8033 -1.1928
10734TIP3    H232144   3.324   7.134   3.696 -0.6303  0.7401 -0.0750
10735TIP3   OH232145   7.351   3.959   6.224 -0.1212 -0.1404 -0.3688
10735TIP3    H132146   7.368   4.005   6.306  2.7289 -0.9029 -0.4299
10735TIP3    H232147   7.350   4.028   6.158 -1.6923  0.3895  0.1461
10736TIP3   OH232148   3.599   1.477   0.627  0.3301  0.0712 -0.2812
10736TIP3    H132149   3.625   1.463   0.536  0.7760 -0.9024 -0.0146
10736TIP3    H232150   3.506   1.452   0.629  0.5378 -0.7258 -0.2948
10737TIP3   OH232151   4.705   1.760   3.077 -0.2618  0.5941 -0.5129
10737TIP3    H132152   4.684   1.669   3.058 -1.1130  0.8757 -0.9617
10737TIP3    H232153   4.702   1.766   3.173  0.1946  0.0636 -0.4633
10738TIP3   OH232154   5.077   7.636   4.625  0.0841 -0.0493 -0.0919
10738TIP3    H132155   5.168   7.643   4.594 -0.1714 -0.4294 -0.9455
10738TIP3    H232156   5.036   7.718   4.596 -0.0283 -0.1872 -0.3202
10739TIP3   OH232157   7.943   6.769   6.461 -0.7813  1.1654 -0.0539
10739TIP3    H132158   7.909   6.687   6.426 -0.6585  0.5482  1.2369
10739TIP3    H232159   7.901   6.837   6.408 -2.6196  0.3634  0.3125
10740TIP3   OH232160   7.547   5.886   4.584 -0.0768  0.5244 -0.3068
10740TIP3    H132161   7.502   5.849   4.660 -0.4899 -0.5549 -1.0505
10740TIP3    H232162   7.482   5.882   4.513  0.6928  0.3836 -1.0172
10741TIP3   OH232163   1.815   2.090   3.071 -0.5731  0.4476 -0.1247
10741TIP3    H132164   1.844   2.014   3.120 -2.2678 -0.9409 -1.1573
10741TIP3    H232165   1.895   2.125   3.031  0.6335  0.8033  2.3631
10742TIP3   OH232166   4.118   1.038   4.203 -0.5708  0.3277 -0.1314
10742TIP3    H132167   4.143   1.058   4.113  0.2754 -0.9249 -0.1944
10742TIP3    H232168   4.022   1.030   4.200 -0.5325  0.1369 -0.9487
10743TIP3   OH232169   3.178   3.347   0.304 -0.3003 -0.0645  0.0114
10743TIP3    H132170   3.271   3.329   0.301 -0.4801 -1.0090 -0.1463
10743TIP3    H232171   3.169   3.437   0.270  0.5462  0.0632  0.1216
10744TIP3   OH232172   2.767   2.981   1.612  0.1021  0.1118 -0.1174
10744TIP3    H132173   2.816   2.969   1.531  1.2689  0.9500  0.4164
10744TIP3    H232174   2.796   2.910   1.669 -0.6803 -0.4489 -0.4095
10745TIP3   OH232175   2.590   2.081   3.592 -0.2797 -0.1924  0.0719
10745TIP3    H132176   2.563   2.045   3.508 -0.5531 -1.3157  0.6291
10745TIP3    H232177   2.520   2.058   3.653 -0.0289  0.4953  0.6410
10746TIP3   OH232178   3.567   1.223   4.977  0.1680  0.3973 -0.4471
10746TIP3    H132179   3.550   1.146   4.923  1.4716  0.8375 -1.5197
10746TIP3    H232180   3.647   1.201   5.025 -1.7126 -0.6081  2.5859
10747TIP3   OH232181   1.227   2.913   6.471  0.4921  0.0303  0.1337
10747TIP3    H132182   1.270   2.997   6.454 -1.0167  0.8419  0.2284
10747TIP3    H232183   1.136   2.926   6.445  0.4497 -1.9355 -0.8804
10748TIP3   OH232184   3.383   5.278   3.434 -0.5978  0.1065  0.0002
10748TIP3    H132185   3.477   5.273   3.451 -0.6842 -1.1391  0.1677
10748TIP3    H232186   3.362   5.196   3.389 -1.6470  0.2520  0.2036
10749TIP3   OH232187   3.784   6.227   5.957 -0.4747 -0.4234  0.3770
10749TIP3    H132188   3.869   6.260   5.987  0.3667 -0.1861 -2.0607
10749TIP3    H232189   3.730   6.306   5.946  0.2479 -0.1347 -1.5986
10750TIP3   OH232190   6.458   2.490   6.580 -0.7601  0.0803  0.6268
10750TIP3    H132191   6.472   2.520   6.490 -2.1901 -1.8621 -0.3189
10750TIP3    H232192   6.365   2.509   6.597 -0.7922 -0.6040  1.2489
10751TIP3   OH232193   4.043   5.806   3.119 -0.7822 -0.1639  0.2190
10751TIP3    H132194   4.094   5.759   3.186  0.4165 -0.4795 -0.8653
10751TIP3    H232195   3.952   5.796   3.147 -0.3546 -0.7842  1.4865
10752TIP3   OH232196   7.266   7.488   5.356 -0.2102  0.2934  0.2192
10752TIP3    H132197   7.281   7.393   5.358  3.6149  0.6991 -0.4359
10752TIP3    H232198   7.204   7.501   5.285 -0.1483 -1.6821 -0.2611
10753TIP3   OH232199   4.561   3.715   1.345 -0.2227  0.4293  0.3213
10753TIP3    H132200   4.606   3.631   1.336  1.5908  1.4229 -0.5365
10753TIP3    H232201   4.620   3.768   1.398 -0.6624  1.6002 -0.3116
10754TIP3   OH232202  -0.002   6.450   3.572  0.2417  0.3342  0.0771
10754TIP3    H132203   0.056   6.469   3.498 -1.1562  1.1390 -0.8673
10754TIP3    H232204   0.007   6.355   3.585  2.5213  0.5834  0.6668
10755TIP3   OH232205   0.103   3.649   3.845 -0.2762 -0.0146 -0.1515
10755TIP3    H132206   0.042   3.640   3.771  0.2827 -0.7189 -0.5447
10755TIP3    H232207   0.149   3.731   3.829 -0.7587  0.2634 -0.1265
10756TIP3   OH232208   0.146   6.342   2.924 -0.0406 -0.0245 -0.3748
10756TIP3    H132209   0.190   6.258   2.911 -0.7490 -0.2886 -1.1679
10756TIP3    H232210   0.062   6.332   2.878  0.4110  1.5755 -1.6101
10757TIP3   OH232211   5.285   1.568   6.823  0.3623 -0.3825 -0.4143
10757TIP3    H132212   5.252   1.658   6.827 -0.4461 -0.6353 -0.9692
10757TIP3    H232213   5.280   1.537   6.913 -0.1734 -0.1404 -0.3511
10758TIP3   OH232214   2.668   4.381   3.035 -0.0916 -0.2190  0.3947
10758TIP3    H132215   2.643   4.472   3.043  2.0584  0.4761  0.0066
10758TIP3    H232216   2.623   4.349   2.957 -0.4852  0.6390  0.2692
10759TIP3   OH232217   7.050   4.393   2.553 -0.6621  0.3701  0.4004
10759TIP3    H132218   7.087   4.448   2.485 -0.8231  0.2497  0.2161
10759TIP3    H232219   6.956   4.391   2.535 -0.5037 -1.1559 -0.4871
10760TIP3   OH232220   6.297   5.352   0.554 -0.2356 -0.8503  0.2760
10760TIP3    H132221   6.301   5.395   0.640 -0.5690 -0.4648  0.0981
10760TIP3    H232222   6.388   5.354   0.523  0.1638 -2.2602  1.2269
10761TIP3   OH232223   1.139   2.246   3.495 -0.7396 -0.2455 -1.0388
10761TIP3    H132224   1.088   2.296   3.432 -1.5836 -0.6219 -0.6634
10761TIP3    H232225   1.144   2.158   3.458  2.0076  0.3646 -2.4514
10762TIP3   OH232226   3.923   2.527   2.832 -0.0858 -0.3401  0.7939
10762TIP3    H132227   3.990   2.509   2.898 -0.0465 -3.3428  0.1249
10762TIP3    H232228   3.867   2.449   2.834  0.1623 -0.7968 -2.8848
10763TIP3   OH232229   0.304   0.828   5.228 -0.0494  0.0439  0.1646
10763TIP3    H132230   0.271   0.910   5.192  0.1993 -0.2563 -0.7834
10763TIP3    H232231   0.320   0.847   5.320 -0.6564  0.8550  0.1141
10764TIP3   OH232232   8.092   3.773   4.473  0.1874  0.2178  0.0912
10764TIP3    H132233   8.025   3.833   4.440  0.6000 -0.0015 -1.1870
10764TIP3    H232234   8.047   3.689   4.480 -0.4830  0.6882  2.1973
10765TIP3   OH232235   3.816   5.428   4.593  0.2361  0.3590  0.0456
10765TIP3    H132236   3.802   5.522   4.606 -1.0133 -0.0430  1.9906
10765TIP3    H232237   3.745   5.401   4.535 -1.7639  0.0064  2.4996
10766TIP3   OH232238   3.638   3.490   3.884  0.4578 -0.5831 -0.1487
10766TIP3    H132239   3.724   3.531   3.896  0.7566 -0.8389 -1.2457
10766TIP3    H232240   3.640   3.457   3.794 -0.3463 -1.6489  0.1982
10767TIP3   OH232241   3.613   3.575   5.344  0.1566  0.2180  0.3167
10767TIP3    H132242   3.694   3.567   5.293  0.5215  1.2436  0.7076
10767TIP3    H232243   3.552   3.620   5.286 -0.0994 -0.4300  0.0724
10768TIP3   OH232244   0.721   7.367   6.515  0.1168  0.3891  0.1461
10768TIP3    H132245   0.773   7.357   6.435 -1.2669 -1.4870 -0.5857
10768TIP3    H232246   0.784   7.351   6.586  1.2573  1.5973 -0.5473
10769TIP3   OH232247   4.605   4.537   3.054  0.1316  0.3239 -0.6870
10769TIP3    H132248   4.616   4.589   2.975  1.8719 -0.8351 -1.2658
10769TIP3    H232249   4.679   4.560   3.110 -0.0935 -0.1800 -0.1630
10770TIP3   OH232250   4.790   5.536   5.287 -0.2013 -0.1713  0.0079
10770TIP3    H132251   4.810   5.557   5.378 -0.7411 -1.0224  0.3403
10770TIP3    H232252   4.730   5.605   5.258 -2.7716 -1.6641  1.3916
10771TIP3   OH232253   4.887   6.661   2.671  0.1725  0.3020  0.0550
10771TIP3    H132254   4.959   6.724   2.673  0.2624  0.1959  0.2954
10771TIP3    H232255   4.829   6.687   2.742 -0.2361  0.6218 -0.3874
10772TIP3   OH232256   2.011   7.449   5.041 -0.0064  0.8246 -0.1931
10772TIP3    H132257   2.041   7.360   5.059 -0.3160  0.7297 -0.1403
10772TIP3    H232258   1.984   7.483   5.126  2.7945  2.0057  0.3411
10773TIP3   OH232259   6.570   2.253   1.876 -0.5029 -0.0569  0.2222
10773TIP3    H132260   6.580   2.231   1.968  1.6689 -0.1568  0.0167
10773TIP3    H232261   6.613   2.338   1.866  1.3921 -1.0704 -1.0498
10774TIP3   OH232262   1.952   0.367   4.889  0.5771  0.3130  0.1249
10774TIP3    H132263   1.878   0.420   4.920  0.6549  0.9085 -0.6748
10774TIP3    H232264   2.010   0.361   4.964 -0.3494 -0.2907  0.8149
10775TIP3   OH232265   4.186   1.736   4.121  0.6536 -0.0871  0.4134
10775TIP3    H132266   4.141   1.791   4.057  1.2765  0.6840  0.6146
10775TIP3    H232267   4.123   1.723   4.191 -0.6287 -2.2964 -1.0338
10776TIP3   OH232268   6.888   5.317   3.638  0.1477  0.1940 -0.0268
10776TIP3    H132269   6.951   5.385   3.615  0.6526  0.2432  1.3634
10776TIP3    H232270   6.937   5.235   3.628  0.2885  0.2001  0.5493
10777TIP3   OH232271   3.560   1.510   3.056  0.3781 -0.2726 -0.0436
10777TIP3    H132272   3.471   1.493   3.025  0.0076  2.0621 -0.4486
10777TIP3    H232273   3.616   1.455   3.002 -0.6708 -0.0577 -1.3940
10778TIP3   OH232274   1.238   0.200   2.665  0.5514  0.2487 -0.3940
10778TIP3    H132275   1.200   0.288   2.659  0.3948  0.0984 -2.9009
10778TIP3    H232276   1.228   0.164   2.577  2.1249 -1.6620  0.1335
10779TIP3   OH232277   1.162   1.352   3.499  0.0236  0.3098 -0.1547
10779TIP3    H132278   1.075   1.360   3.536  0.4437  1.4126  0.6357
10779TIP3    H232279   1.147   1.319   3.410 -1.1358 -0.1753  0.1992
10780TIP3   OH232280   6.984   3.477   2.973  0.2285 -0.0189 -0.1665
10780TIP3    H132281   6.893   3.509   2.975  0.2311 -0.0406  0.7615
10780TIP3    H232282   6.997   3.438   3.059  2.0092  2.4388  0.7677
10781TIP3   OH232283   5.547   5.293   0.455 -0.2120 -0.6006  0.1755
10781TIP3    H132284   5.608   5.221   0.439  0.8198  0.1472  0.6301
10781TIP3    H232285   5.601   5.361   0.494 -1.4003  0.0006  0.8041
10782TIP3   OH232286   2.887   7.253   2.465 -0.1753  0.1609  0.2808
10782TIP3    H132287   2.956   7.209   2.514  0.8619  1.0177 -0.3669
10782TIP3    H232288   2.932   7.323   2.417 -1.5302  0.8861  0.0160
10783TIP3   OH232289   5.434   4.345   5.781  0.3294 -0.1331  0.2514
10783TIP3    H132290   5.444   4.345   5.686 -1.0611 -0.7747  0.0732
10783TIP3    H232291   5.499   4.282   5.812  1.1126  0.4245 -0.2173
10784TIP3   OH232292   8.080   7.729   3.082 -0.1660  0.5121  0.0787
10784TIP3    H132293   8.048   7.808   3.126 -0.1509  0.3399  0.3973
10784TIP3    H232294   8.172   7.723   3.107  0.4604  1.6113 -1.6935
10785TIP3   OH232295   2.815   7.919   0.634  0.7155 -0.7092  0.3080
10785TIP3    H132296   2.743   7.925   0.572  0.5997 -2.2846  0.2391
10785TIP3    H232297   2.774   7.894   0.717  0.7885  2.0261  1.2531
10786TIP3   OH232298   4.543   3.271   6.238 -0.2964  0.2097  0.4232
10786TIP3    H132299   4.596   3.347   6.261 -0.7493  0.7938 -0.4143
10786TIP3    H232300   4.561   3.257   6.145  0.4071 -1.2123  0.7459
10787TIP3   OH232301   2.881   1.644   0.661  0.1653  0.2669 -0.1473
10787TIP3    H132302   2.827   1.573   0.696  1.6907 -0.5091  0.6997
10787TIP3    H232303   2.864   1.718   0.720 -0.1919  0.1243 -0.0655
10788TIP3   OH232304   2.691   4.843   5.113 -0.4087  0.2708  0.2537
10788TIP3    H132305   2.624   4.908   5.137 -0.7673  0.7603 -1.8835
10788TIP3    H232306   2.773   4.881   5.145 -0.7768  1.1941  0.1455
10789TIP3   OH232307   2.073   4.457   6.649  0.1207  0.1588  0.0893
10789TIP3    H132308   2.099   4.376   6.604 -0.4383  0.4102 -0.7191
10789TIP3    H232309   1.984   4.440   6.679 -0.5485  0.9406 -1.3288
10790TIP3   OH232310   4.781   6.240   1.488 -0.2726  0.3827 -0.0510
10790TIP3    H132311   4.697   6.241   1.534 -0.0982 -0.8841  0.3259
10790TIP3    H232312   4.778   6.161   1.435  0.7041  0.2946  0.0073
10791TIP3   OH232313   4.924   0.969   0.276  0.0536 -0.3498  0.3470
10791TIP3    H132314   4.918   1.022   0.196  2.2294  0.4518  0.6401
10791TIP3    H232315   4.911   1.031   0.347 -0.2626 -0.7658  0.6552
10792TIP3   OH232316   5.193   1.895   1.056 -0.0372  0.7088 -0.1211
10792TIP3    H132317   5.150   1.977   1.032  0.9622  1.6651  1.2344
10792TIP3    H232318   5.284   1.907   1.030  0.1679  0.1147  0.3012
10793TIP3   OH232319   2.353   0.277   4.646 -0.0531 -0.6423  0.1563
10793TIP3    H132320   2.271   0.315   4.614 -0.5018 -0.0194  1.9011
10793TIP3    H232321   2.421   0.340   4.619 -0.0264 -1.4140 -1.7445
10794TIP3   OH232322   2.955   5.762   5.541  0.0572  0.4817  0.3545
10794TIP3    H132323   2.973   5.721   5.626 -0.8794 -1.0743 -0.1411
10794TIP3    H232324   2.931   5.852   5.562 -2.9080 -0.5646  2.0827
10795TIP3   OH232325   6.780   3.089   0.500  0.2554 -0.3834 -0.3405
10795TIP3    H132326   6.685   3.102   0.504  0.3165  0.0926 -0.3297
10795TIP3    H232327   6.810   3.104   0.590  0.4522  0.4403 -0.5335
10796TIP3   OH232328   4.342   3.919   2.855 -0.3557 -0.0848  0.1018
10796TIP3    H132329   4.326   3.834   2.813  1.8307 -1.5387  1.9541
10796TIP3    H232330   4.402   3.964   2.797 -0.5229 -0.3448 -0.2733
10797TIP3   OH232331   6.791   2.207   1.004 -0.3485 -0.5260 -0.2138
10797TIP3    H132332   6.704   2.236   0.976  0.0517  0.2813 -0.6710
10797TIP3    H232333   6.852   2.262   0.954  0.4088  0.0843  1.3038
10798TIP3   OH232334   1.906   2.365   3.517  0.0723 -0.0143 -0.5236
10798TIP3    H132335   1.895   2.271   3.528  1.1844  0.0540  1.6071
10798TIP3    H232336   1.862   2.385   3.434  1.1417 -2.6166 -1.8078
10799TIP3   OH232337   2.148   1.837   0.975  0.0474  0.0225 -0.0842
10799TIP3    H132338   2.212   1.806   1.038 -0.4458  1.4910  1.2042
10799TIP3    H232339   2.198   1.891   0.914  0.1684  0.6271  0.5340
10800TIP3   OH232340   6.294   7.275   2.442 -0.0440 -0.1714 -0.2737
10800TIP3    H132341   6.242   7.313   2.371 -0.0272 -0.9224 -0.7010
10800TIP3    H232342   6.230   7.226   2.494  0.2736 -1.3405 -0.9691
10801TIP3   OH232343   1.908   6.781   3.388 -0.6187 -0.1391  0.2162
10801TIP3    H132344   1.928   6.746   3.301  5.3013  0.9458  0.7449
10801TIP3    H232345   1.953   6.722   3.448  0.0434  2.0738  2.0250
10802TIP3   OH232346   4.503   0.562   1.745  0.1158 -0.4104  0.2551
10802TIP3    H132347   4.487   0.473   1.713  0.4668 -0.5096  0.3545
10802TIP3    H232348   4.555   0.604   1.676  0.8783 -0.6257  0.6898
10803TIP3   OH232349   6.002   3.499   3.771 -0.2622 -0.0499 -0.3436
10803TIP3    H132350   6.024   3.585   3.806 -1.5277  0.1273  0.0524
10803TIP3    H232351   5.941   3.517   3.700 -1.2144 -0.6457  0.2992
10804TIP3   OH232352   7.277   4.492   6.732  0.0354  0.4536 -0.7055
10804TIP3    H132353   7.294   4.531   6.646 -0.1231  0.9766 -0.5043
10804TIP3    H232354   7.205   4.544   6.768 -0.9869 -0.7890 -0.9176
10805TIP3   OH232355   8.090   2.515   0.760  0.3029  0.0965  0.1320
10805TIP3    H132356   8.114   2.442   0.817  0.3670  0.2087  0.2489
10805TIP3    H232357   7.997   2.530   0.778  0.7329  1.3131  1.5544
10806TIP3   OH232358   6.582   7.826   5.571 -0.0398  0.0746 -0.0393
10806TIP3    H132359   6.542   7.740   5.586 -0.7660  0.2753 -0.7708
10806TIP3    H232360   6.508   7.887   5.573  0.5677  0.8104  1.3412
10807TIP3   OH232361   6.983   7.301   2.714 -0.0400 -0.1735  0.1609
10807TIP3    H132362   6.913   7.315   2.778 -0.0574  0.1146  0.0826
10807TIP3    H232363   7.049   7.249   2.761 -0.8124 -1.4451 -0.1191
10808TIP3   OH232364   6.718   0.891   4.895  0.0727  0.2131 -0.4172
10808TIP3    H132365   6.678   0.897   4.808  0.7071  2.1349 -0.6239
10808TIP3    H232366   6.701   0.977   4.935  1.2333 -0.0520  0.7180
10809TIP3   OH232367   1.528   4.780   0.262 -0.5992 -0.7837  0.1333
10809TIP3    H132368   1.508   4.728   0.184  0.3924 -2.0360  0.6944
10809TIP3    H232369   1.614   4.818   0.245 -0.5574 -0.7307  0.4558
10810TIP3   OH232370   0.376   4.598   4.364 -0.4236  0.2060 -0.4498
10810TIP3    H132371   0.314   4.667   4.340  0.2713  0.4343 -1.6728
10810TIP3    H232372   0.455   4.620   4.315 -0.0070 -1.1581 -0.4105
10811TIP3   OH232373   2.880   7.840   5.914  0.0635  0.2507 -0.6371
10811TIP3    H132374   2.914   7.860   6.002  2.1586 -2.2323 -0.7490
10811TIP3    H232375   2.810   7.777   5.930  0.2782 -0.0116 -0.7304
10812TIP3   OH232376   5.055   2.347   1.604  0.0166 -0.6201  0.3655
10812TIP3    H132377   5.146   2.322   1.617  0.3335  0.0132 -0.5217
10812TIP3    H232378   5.030   2.393   1.684  1.1715  1.1194 -0.2240
10813TIP3   OH232379   8.002   2.387   2.974 -0.0452  0.5858  0.5431
10813TIP3    H132380   7.926   2.430   2.937  0.7769  0.2342 -1.6754
10813TIP3    H232381   8.057   2.458   3.007  0.2989  1.1363 -1.1233
10814TIP3   OH232382   2.902   5.718   4.080 -0.4501  0.1538 -0.3440
10814TIP3    H132383   2.816   5.745   4.049 -0.4070  1.4558  0.5479
10814TIP3    H232384   2.959   5.794   4.062  0.6242 -0.8372 -1.3057
10815TIP3   OH232385   4.881   3.192   4.063 -0.4618 -0.1694 -0.2317
10815TIP3    H132386   4.850   3.263   4.007  2.9173  0.5508 -1.3832
10815TIP3    H232387   4.883   3.230   4.151  1.3026  1.2715 -0.8302
10816TIP3   OH232388   4.149   7.905   5.965  0.0978  0.0364 -0.0175
10816TIP3    H132389   4.096   7.873   5.892  0.8722  0.0061 -0.5832
10816TIP3    H232390   4.226   7.849   5.965 -0.2042 -0.4215  1.2815
10817TIP3   OH232391   3.849   5.118   2.121  0.3995  0.0270  0.1497
10817TIP3    H132392   3.816   5.028   2.128 -2.5520  1.0485  1.1155
10817TIP3    H232393   3.937   5.109   2.086 -0.0609 -3.1871 -0.4928
10818TIP3   OH232394   1.398   4.686   5.181  0.6859 -0.3957 -0.2214
10818TIP3    H132395   1.305   4.702   5.198  0.5634  0.2643 -1.4715
10818TIP3    H232396   1.403   4.591   5.166  0.0482 -0.2951 -1.1358
10819TIP3   OH232397   0.529   2.382   3.787 -0.2213 -0.0847 -0.3810
10819TIP3    H132398   0.489   2.449   3.732  2.8421 -0.2789 -3.1422
10819TIP3    H232399   0.539   2.423   3.873 -0.6683  2.0867 -1.3147
10820TIP3   OH232400   8.315   0.523   0.202 -0.2014  0.0255 -0.3144
10820TIP3    H132401   8.286   0.595   0.145  1.3108  0.3695 -0.6776
10820TIP3    H232402   8.370   0.564   0.268  0.4677 -0.7653 -0.3644
10821TIP3   OH232403   3.482   2.258   4.799  0.2422  0.1840  0.3497
10821TIP3    H132404   3.577   2.265   4.794  0.3112 -0.5670  0.4719
10821TIP3    H232405   3.455   2.329   4.857  0.4948  1.8910 -1.4927
10822TIP3   OH232406   1.970   5.803   3.100  0.3183 -0.6000  0.0428
10822TIP3    H132407   1.914   5.799   3.022  0.4738 -1.1891 -0.0447
10822TIP3    H232408   1.988   5.897   3.111 -1.8351 -0.2411  0.9244
10823TIP3   OH232409   4.235   2.429   4.431 -0.4357  0.3842  0.0549
10823TIP3    H132410   4.252   2.463   4.343 -0.2025 -0.4069 -0.2113
10823TIP3    H232411   4.140   2.415   4.434 -0.4178  0.2152 -0.1465
10824TIP3   OH232412   0.907   2.857   0.749 -0.4822 -0.2612 -1.3330
10824TIP3    H132413   0.895   2.851   0.655  0.3483  1.1504 -1.5583
10824TIP3    H232414   0.998   2.885   0.760 -1.1461  1.7047 -0.2299
10825TIP3   OH232415   5.016   0.921   3.460  0.7936 -1.0361  0.6305
10825TIP3    H132416   5.045   0.987   3.523  1.2431  0.9601 -1.5060
10825TIP3    H232417   5.093   0.907   3.404  0.0763 -1.8491 -0.1743
10826TIP3   OH232418   2.896   1.717   3.669  0.1301  0.1773 -0.4268
10826TIP3    H132419   2.845   1.645   3.632 -1.9088  2.2347 -1.9389
10826TIP3    H232420   2.889   1.706   3.764 -1.0332 -0.9896 -0.6175
10827TIP3   OH232421   8.384   2.241   3.982  0.1817  0.3098 -0.4278
10827TIP3    H132422   8.321   2.277   4.044 -0.2642  0.6054 -1.0417
10827TIP3    H232423   8.331   2.208   3.910  0.5349 -2.1739  0.3750
10828TIP3   OH232424   7.739   5.566   4.899 -0.4459  0.0050  0.0611
10828TIP3    H132425   7.663   5.617   4.929 -1.0123  1.3949 -3.2519
10828TIP3    H232426   7.809   5.631   4.889  0.7079 -0.9805  1.4852
10829TIP3   OH232427   0.830   1.542   1.393  0.3659 -0.0195 -0.0531
10829TIP3    H132428   0.775   1.614   1.424  0.5468  0.2425 -0.3274
10829TIP3    H232429   0.918   1.564   1.423  0.0904 -1.2291  1.7407
10830TIP3   OH232430   5.492   7.810   3.009 -1.2500 -0.3679 -0.4201
10830TIP3    H132431   5.580   7.835   2.981 -1.3038  0.6704  0.2728
10830TIP3    H232432   5.437   7.883   2.982 -1.9269 -1.0443 -0.9155
10831TIP3   OH232433   2.666   0.481   1.270 -0.0281  0.1164  0.2388
10831TIP3    H132434   2.678   0.405   1.327  1.2993  0.5335  0.5499
10831TIP3    H232435   2.599   0.533   1.314 -0.0751 -0.2776  0.6509
10832TIP3   OH232436   2.266   4.466   6.837  0.6697 -0.4635 -0.2770
10832TIP3    H132437   2.346   4.456   6.784 -0.9738  0.2476 -3.0887
10832TIP3    H232438   2.195   4.463   6.774 -1.4142  2.0212  1.7185
10833TIP3   OH232439   0.016   1.762   2.498  0.0537 -0.2440  0.2414
10833TIP3    H132440  -0.068   1.716   2.501 -0.2381  0.2404 -0.2528
10833TIP3    H232441   0.081   1.693   2.504 -0.3728 -0.5970  1.0753
10834TIP3   OH232442   7.693   1.049   4.161  0.2400  0.5034  0.2035
10834TIP3    H132443   7.630   1.042   4.233 -0.7999  0.4366 -0.6842
10834TIP3    H232444   7.680   1.138   4.128  0.0784  0.2314 -0.4654
10835TIP3   OH232445   2.895   7.820   5.244 -0.6850  0.1560  0.0444
10835TIP3    H132446   2.925   7.904   5.207 -0.7464  0.3395  0.4081
10835TIP3    H232447   2.962   7.758   5.216 -0.7755  0.2729 -0.4521
10836TIP3   OH232448   2.982   4.467   3.127 -0.2436  0.3746  0.0390
10836TIP3    H132449   2.971   4.560   3.107 -1.0132  0.6627  1.7232
10836TIP3    H232450   2.955   4.458   3.218 -0.3089 -1.5365 -0.1355
10837TIP3   OH232451   5.956   3.269   2.686 -0.0601  0.2192 -0.4505
10837TIP3    H132452   5.881   3.326   2.668  0.9772  2.0975  0.8490
10837TIP3    H232453   5.933   3.226   2.769 -0.0942  0.0857 -0.5289
10838TIP3   OH232454   0.080   3.064   1.226 -0.0397  0.8022  0.0782
10838TIP3    H132455   0.040   3.123   1.162  0.1813 -0.4691 -1.2698
10838TIP3    H232456   0.149   3.019   1.178  0.0337 -0.2948  1.1660
10839TIP3   OH232457   6.348   2.555   5.313  1.0937  0.0525 -0.3941
10839TIP3    H132458   6.351   2.649   5.328  0.3087  0.3329 -1.8699
10839TIP3    H232459   6.438   2.525   5.329  1.0860  0.8142  1.3273
10840TIP3   OH232460   1.984   2.865   2.930 -0.1997  0.2952  0.1552
10840TIP3    H132461   1.943   2.871   2.844  0.4181  0.5162 -0.1340
10840TIP3    H232462   2.001   2.956   2.954 -0.9139  0.2662  0.7851
10841TIP3   OH232463   1.168   2.019   3.890  0.2697 -0.1090  0.3453
10841TIP3    H132464   1.150   2.050   3.978  1.9180 -0.6050  0.8901
10841TIP3    H232465   1.125   2.082   3.833  1.1888  1.5781  1.4606
10842TIP3   OH232466   4.817   0.832   3.963 -0.0200 -0.6593 -0.2532
10842TIP3    H132467   4.911   0.831   3.982 -0.1066 -0.5085  0.2048
10842TIP3    H232468   4.790   0.922   3.983 -0.1200 -0.4924 -1.1144
10843TIP3   OH232469   7.134   4.122   5.527  1.0564 -0.4315  0.2167
10843TIP3    H132470   7.192   4.081   5.462 -0.3906 -0.8633 -0.8560
10843TIP3    H232471   7.046   4.108   5.492  0.4071  2.3767  0.5454
10844TIP3   OH232472   3.926   0.781   4.595 -0.6779  0.2237  0.0625
10844TIP3    H132473   3.997   0.835   4.561  0.0008 -1.1091 -0.7343
10844TIP3    H232474   3.864   0.774   4.522 -0.4840 -0.5092 -0.0426
10845TIP3   OH232475   6.102   1.475   0.753 -0.3488  0.1734  0.3942
10845TIP3    H132476   6.153   1.541   0.707 -0.7249 -0.4425 -0.9607
10845TIP3    H232477   6.084   1.514   0.839  2.0703  0.5467  0.8024
10846TIP3   OH232478   2.262   7.149   0.064 -0.2554 -1.2766  0.0580
10846TIP3    H132479   2.240   7.135  -0.028  1.3991  0.1610 -0.6324
10846TIP3    H232480   2.357   7.162   0.064 -0.3859  0.1264  1.7798
10847TIP3   OH232481   0.278   3.847   0.409  0.3967  0.1862 -0.0032
10847TIP3    H132482   0.231   3.856   0.493 -1.9487 -0.5546 -1.1522
10847TIP3    H232483   0.284   3.753   0.394 -0.6037  0.3134 -1.3688
10848TIP3   OH232484   1.106   6.018   1.677  0.5014  0.7889 -0.0033
10848TIP3    H132485   1.136   6.005   1.588 -0.0800  0.5785 -0.1733
10848TIP3    H232486   1.048   6.094   1.672 -1.1209 -0.4098 -0.1956
10849TIP3   OH232487   7.708   0.518   5.401  0.0888  0.3831  0.7482
10849TIP3    H132488   7.645   0.477   5.460  1.9086 -0.3759  2.2699
10849TIP3    H232489   7.690   0.612   5.409 -0.7092  0.1943  1.3194
10850TIP3   OH232490   6.410   7.735   2.437 -0.5386 -0.7004  0.6844
10850TIP3    H132491   6.337   7.777   2.391 -1.0686 -1.4453  0.8456
10850TIP3    H232492   6.479   7.728   2.370 -0.5098  0.2415  0.6009
10851TIP3   OH232493   6.055   2.457   3.523  0.3163  0.4200 -0.1236
10851TIP3    H132494   5.967   2.427   3.500  0.1862  0.9330 -0.3024
10851TIP3    H232495   6.042   2.547   3.554  0.5420 -0.0561  1.4788
10852TIP3   OH232496   3.558   7.189   0.603  0.1986 -0.3090  0.2261
10852TIP3    H132497   3.635   7.170   0.550  1.3233  0.3471  1.5469
10852TIP3    H232498   3.586   7.174   0.693 -1.4622 -0.7868  0.7063
10853TIP3   OH232499   2.574   7.854   1.651 -0.4602 -0.2715  0.2694
10853TIP3    H132500   2.505   7.810   1.701 -1.2176 -0.4793 -0.9243
10853TIP3    H232501   2.538   7.940   1.631 -0.1405 -0.1658  0.1444
10854TIP3   OH232502   7.976   4.741   4.057  0.6084 -0.0873 -0.6238
10854TIP3    H132503   8.030   4.671   4.021  1.2326  0.3878 -0.6180
10854TIP3    H232504   7.991   4.736   4.152  0.4735 -0.0877 -0.6019
10855TIP3   OH232505   2.778   5.340   5.192  0.1812  0.9073 -0.0757
10855TIP3    H132506   2.729   5.325   5.273  0.2752  1.4196  0.0805
10855TIP3    H232507   2.780   5.435   5.182  0.9619  0.8878 -0.1983
10856TIP3   OH232508   1.616   6.022   5.232 -0.3618 -0.1811 -0.2493
10856TIP3    H132509   1.598   6.109   5.266  0.6793 -0.0602  0.0414
10856TIP3    H232510   1.683   5.987   5.291  0.4549 -0.5196 -1.3359
10857TIP3   OH232511   5.065   4.644   5.168 -0.1864 -0.2209  0.6485
10857TIP3    H132512   5.052   4.736   5.190 -1.2045 -0.3189  0.5259
10857TIP3    H232513   5.024   4.596   5.241  3.0251 -0.6653  2.3384
10858TIP3   OH232514   4.548   5.795   2.266  0.0305  0.1422 -0.5141
10858TIP3    H132515   4.544   5.750   2.350  0.7676  1.0080  0.0057
10858TIP3    H232516   4.466   5.844   2.261 -0.7241 -1.1300 -1.0320
10859TIP3   OH232517   4.482   5.489   5.228  0.2020 -0.3818 -0.4550
10859TIP3    H132518   4.452   5.573   5.263  0.0027 -0.2982 -0.8150
10859TIP3    H232519   4.402   5.443   5.203  0.3740  0.4656 -2.8591
10860TIP3   OH232520   6.948   0.786   5.790 -0.3912  0.6088  0.1540
10860TIP3    H132521   6.936   0.691   5.783  0.2623  0.6178 -1.2298
10860TIP3    H232522   6.898   0.810   5.869  0.1462 -0.9900  1.0247
10861TIP3   OH232523   2.977   5.683   5.972 -0.9443 -0.4086 -0.8544
10861TIP3    H132524   3.061   5.704   5.930 -0.6072  0.3666  0.1744
10861TIP3    H232525   2.983   5.590   5.992 -1.2885 -0.9045 -2.8858
10862TIP3   OH232526   5.299   6.242   5.962 -0.4150  0.2096 -0.6632
10862TIP3    H132527   5.304   6.166   5.905  2.3144 -0.7352  0.7066
10862TIP3    H232528   5.274   6.314   5.904 -0.5979 -1.2520 -2.4593
10863TIP3   OH232529   2.439   2.098   2.881 -0.7161  0.4419 -0.4436
10863TIP3    H132530   2.483   2.108   2.797 -0.6057 -0.6653 -0.5349
10863TIP3    H232531   2.463   2.009   2.910 -0.1548  1.0651  1.0943
10864TIP3   OH232532   2.264   2.783   0.635  0.3907  1.0004 -0.3676
10864TIP3    H132533   2.203   2.721   0.594  1.0887  0.3775 -0.4923
10864TIP3    H232534   2.297   2.836   0.563  1.4414  0.0589 -0.6138
10865TIP3   OH232535   0.050   3.958   6.342 -0.2726 -0.4789  0.8783
10865TIP3    H132536   0.105   3.999   6.409  0.3891 -0.1356  0.1478
10865TIP3    H232537   0.060   4.014   6.265 -1.9750 -0.2031  0.8349
10866TIP3   OH232538   2.172   3.452   5.954 -0.7059  0.7404  0.2760
10866TIP3    H132539   2.145   3.541   5.931 -0.6402  0.5882 -0.4330
10866TIP3    H232540   2.187   3.454   6.048  2.4748  2.3716 -0.1122
10867TIP3   OH232541   8.227   7.124   1.007  0.0003  0.6112  0.7581
10867TIP3    H132542   8.296   7.058   1.008 -0.5299  0.0224 -0.2525
10867TIP3    H232543   8.233   7.166   1.093 -0.2411 -1.3663  1.8067
10868TIP3   OH232544   5.811   7.459   4.998 -0.2266  0.2726  0.0992
10868TIP3    H132545   5.729   7.460   4.950 -0.7452 -1.1150  0.8958
10868TIP3    H232546   5.786   7.473   5.089  0.4685  0.2553  0.3008
10869TIP3   OH232547   3.512   2.609   6.571 -0.1138 -0.4476  0.0054
10869TIP3    H132548   3.474   2.695   6.556  0.0014 -0.8805 -3.6235
10869TIP3    H232549   3.602   2.616   6.538  0.1248 -1.7640  0.3047
10870TIP3   OH232550   4.281   3.823   6.044  0.4548 -1.0348 -0.2750
10870TIP3    H132551   4.187   3.829   6.028  0.2570 -0.6047  0.9572
10870TIP3    H232552   4.298   3.729   6.055 -0.1176 -1.0099  1.0102
10871TIP3   OH232553   7.699   0.513   2.289  0.0169 -0.0280  0.0679
10871TIP3    H132554   7.789   0.494   2.317  1.0234  0.8515 -2.2696
10871TIP3    H232555   7.677   0.596   2.332  0.8212  0.3921 -0.3099
10872TIP3   OH232556   2.679   5.246   5.936  0.7649  0.0071 -0.3385
10872TIP3    H132557   2.610   5.179   5.939  0.6442  0.1493  0.2542
10872TIP3    H232558   2.675   5.281   5.847 -0.7931  0.9176  0.0577
10873TIP3   OH232559   3.870   5.082   5.740  0.2352 -0.1154 -0.3556
10873TIP3    H132560   3.903   5.051   5.656 -1.3267 -0.1374 -1.0088
10873TIP3    H232561   3.868   5.177   5.731  0.1426 -0.1135 -0.3212
10874TIP3   OH232562   5.069   4.765   6.121  0.2932 -0.0966 -0.0896
10874TIP3    H132563   5.062   4.758   6.216 -0.4874 -1.8236 -0.2258
10874TIP3    H232564   5.162   4.752   6.102  0.1324 -2.2533  0.3311
10875TIP3   OH232565   3.543   2.004   6.048 -0.2537 -0.2388  0.1988
10875TIP3    H132566   3.485   2.079   6.056 -0.6379 -0.2828 -1.6683
10875TIP3    H232567   3.505   1.938   6.105 -1.0127  0.3368  0.3782
10876TIP3   OH232568   3.560   0.379   1.867  0.0600 -0.1834 -0.1078
10876TIP3    H132569   3.504   0.303   1.854  1.0661 -0.9532 -0.0893
10876TIP3    H232570   3.641   0.343   1.902  0.8384  0.8121 -0.8253
10877TIP3   OH232571   7.898   7.744   3.862 -0.2641  0.7165 -0.3661
10877TIP3    H132572   7.888   7.738   3.767 -0.0688 -0.6759 -0.3134
10877TIP3    H232573   7.943   7.663   3.887  0.5225  1.4856  0.8075
10878TIP3   OH232574   6.981   3.200   0.745 -0.0574  0.2533  0.2880
10878TIP3    H132575   7.016   3.144   0.676 -0.9585  0.4846 -0.3678
10878TIP3    H232576   7.016   3.287   0.725  0.2702  0.1874  0.5533
10879TIP3   OH232577   0.961   4.033   3.853 -0.6162  0.6545  0.4793
10879TIP3    H132578   0.970   3.995   3.940  0.2547  0.4795  0.3170
10879TIP3    H232579   1.016   3.978   3.797  1.8723  2.9633  0.4756
10880TIP3   OH232580   0.349   4.215   6.881  0.5128 -0.6229 -0.1899
10880TIP3    H132581   0.409   4.145   6.855  1.2283  0.7279 -2.5555
10880TIP3    H232582   0.275   4.207   6.821  0.0593 -0.0521  0.2814
10881TIP3   OH232583   2.696   0.673   0.087  0.4547  0.2602  0.9118
10881TIP3    H132584   2.770   0.627   0.126  0.5414  0.8974  1.5057
10881TIP3    H232585   2.689   0.755   0.136  0.9654  1.4022 -0.7928
10882TIP3   OH232586   4.829   4.496   0.157 -0.4237  0.7310 -0.3297
10882TIP3    H132587   4.841   4.405   0.130 -1.7845  0.5780 -0.4929
10882TIP3    H232588   4.858   4.497   0.249 -1.2881 -0.1062 -0.0239
10883TIP3   OH232589   7.974   4.502   5.159 -0.6407  0.3664  0.0586
10883TIP3    H132590   7.886   4.474   5.187 -1.4238  2.2155 -0.4171
10883TIP3    H232591   7.958   4.574   5.098  1.2085  0.3204 -0.5264
10884TIP3   OH232592   6.867   6.472   4.835  0.2267  0.0331 -0.5504
10884TIP3    H132593   6.957   6.438   4.838  0.7085  1.2409 -0.8905
10884TIP3    H232594   6.864   6.538   4.903  0.0924  1.1448 -1.6080
10885TIP3   OH232595   2.163   0.604   0.900 -0.4670 -0.3849 -0.3134
10885TIP3    H132596   2.121   0.671   0.955  0.5540 -0.9997  1.2707
10885TIP3    H232597   2.134   0.521   0.937 -1.0361 -0.8577 -1.7364
10886TIP3   OH232598   6.936   0.041   1.035 -0.0458 -0.2917 -0.2437
10886TIP3    H132599   6.999   0.006   0.972  0.5531  1.1052 -0.4683
10886TIP3    H232600   6.873   0.090   0.982 -1.2300 -1.4881  0.0003
10887TIP3   OH232601   7.317   2.595   4.652 -0.3898  0.5870 -0.3205
10887TIP3    H132602   7.352   2.662   4.594  0.3957  1.0043  0.6013
10887TIP3    H232603   7.298   2.642   4.733 -1.4828  0.0226 -0.2330
10888TIP3   OH232604   5.042   2.274   4.498 -0.3436 -0.2515  0.3155
10888TIP3    H132605   5.104   2.295   4.428 -0.2555  1.2705  0.8201
10888TIP3    H232606   5.057   2.342   4.564 -2.9508  0.5380  0.1984
10889TIP3   OH232607   4.956   5.487   3.721  0.7359 -0.2454 -0.5226
10889TIP3    H132608   4.994   5.487   3.809  2.0034 -0.3258 -1.0491
10889TIP3    H232609   4.912   5.402   3.714  0.4662 -0.1643  0.0899
10890TIP3   OH232610   6.497   2.581   1.540 -0.0897  0.5022 -0.6036
10890TIP3    H132611   6.403   2.599   1.542 -0.1440  0.4248 -1.7733
10890TIP3    H232612   6.530   2.634   1.468  0.7736  0.5324 -0.2007
10891TIP3   OH232613   1.728   6.838   3.982 -0.1431 -0.2086  0.1680
10891TIP3    H132614   1.721   6.888   4.063 -2.0581 -0.7372  0.3850
10891TIP3    H232615   1.819   6.847   3.956  0.0637  1.6225  1.3203
10892TIP3   OH232616   6.366   6.495   6.393  0.0822 -0.1888 -0.1511
10892TIP3    H132617   6.454   6.520   6.365  0.4002  1.4288  2.0550
10892TIP3    H232618   6.308   6.559   6.352  0.3459  0.9389  1.1542
10893TIP3   OH232619   5.429   3.279   6.189  0.2844 -0.5814 -0.3398
10893TIP3    H132620   5.430   3.374   6.203  1.4290 -0.6280  0.0018
10893TIP3    H232621   5.395   3.268   6.100  1.5096  0.2495 -0.9465
10894TIP3   OH232622   2.335   2.099   4.092  0.1047 -0.1779  0.1921
10894TIP3    H132623   2.262   2.158   4.115 -0.9447 -1.5872  0.6131
10894TIP3    H232624   2.324   2.024   4.150  1.8991 -0.4491  0.2373
10895TIP3   OH232625   0.717   7.828   2.469 -0.0607  0.0012  0.0551
10895TIP3    H132626   0.790   7.890   2.464  0.4299 -0.5763  0.0742
10895TIP3    H232627   0.675   7.848   2.553 -1.3791  1.9367 -0.9643
10896TIP3   OH232628   1.661   1.825   1.282  0.2110  0.1264  0.2185
10896TIP3    H132629   1.655   1.896   1.217 -0.7754 -1.6364 -1.7413
10896TIP3    H232630   1.745   1.783   1.264 -0.1364 -0.4650 -0.0673
10897TIP3   OH232631   6.053   4.769   2.462 -0.3472  0.7032  0.3947
10897TIP3    H132632   6.091   4.701   2.406 -0.6379 -1.0242  2.1887
10897TIP3    H232633   6.093   4.850   2.432  0.3521 -0.2991 -1.5408
10898TIP3   OH232634   6.403   1.531   3.626  0.1094 -0.0598  0.4725
10898TIP3    H132635   6.488   1.547   3.667 -0.4792  1.5983  1.1269
10898TIP3    H232636   6.363   1.462   3.680  1.3034 -1.3684 -0.2717
10899TIP3   OH232637   0.805   5.121   4.919 -0.1079  0.3166 -0.0162
10899TIP3    H132638   0.721   5.097   4.959  0.1202 -0.7328 -0.1354
10899TIP3    H232639   0.852   5.169   4.988  0.3842 -1.6821  1.1293
10900TIP3   OH232640   4.627   5.352   2.196 -0.4910  0.5494  0.3318
10900TIP3    H132641   4.718   5.358   2.166 -0.4414 -1.2248 -0.0029
10900TIP3    H232642   4.633   5.354   2.292 -0.0605  0.1234  0.3184
10901TIP3   OH232643   4.915   2.111   0.387 -0.6134  0.2039 -0.5015
10901TIP3    H132644   4.972   2.037   0.409 -0.4487  0.3418 -0.4585
10901TIP3    H232645   4.837   2.099   0.440 -0.5802  0.0678 -0.4836
10902TIP3   OH232646   6.616   2.947   5.063 -0.0324  0.1153  0.5477
10902TIP3    H132647   6.522   2.960   5.047  0.0715 -0.4049 -0.5735
10902TIP3    H232648   6.646   2.897   4.988  1.2630  0.7209  0.6386
10903TIP3   OH232649   2.651   1.434   1.598  0.0661 -0.0692  0.2872
10903TIP3    H132650   2.674   1.464   1.686  0.9185  0.2547 -0.0344
10903TIP3    H232651   2.651   1.514   1.544  2.8076 -0.6016 -0.6739
10904TIP3   OH232652   0.227   5.925   5.795 -0.3795  0.6413 -0.1211
10904TIP3    H132653   0.252   6.011   5.760 -0.7963  0.3774 -1.1057
10904TIP3    H232654   0.227   5.867   5.719  1.9034 -0.7335  0.8277
10905TIP3   OH232655   4.254   5.792   1.892  0.6972  0.1497  0.4025
10905TIP3    H132656   4.325   5.733   1.868  0.3369  0.4818 -1.6118
10905TIP3    H232657   4.296   5.877   1.906  0.6227  0.6218 -1.9108
10906TIP3   OH232658   0.551   1.802   6.264 -0.3945  0.0640  0.5327
10906TIP3    H132659   0.478   1.765   6.314 -0.2124 -0.1282  0.6586
10906TIP3    H232660   0.556   1.894   6.293 -0.8125  0.1769  0.2586
10907TIP3   OH232661   8.119   5.287   5.398 -0.3337  0.4764  0.2412
10907TIP3    H132662   8.150   5.198   5.414 -3.6282 -1.2662 -1.9730
10907TIP3    H232663   8.056   5.304   5.469 -0.8367  0.4215 -0.1902
10908TIP3   OH232664   4.454   5.303   0.528  0.1322  0.0823 -0.1765
10908TIP3    H132665   4.428   5.278   0.439  0.0401  1.4725 -0.5532
10908TIP3    H232666   4.526   5.364   0.516  0.2999  0.0776  0.7219
10909TIP3   OH232667   2.465   7.204   5.644 -0.2203  0.6326  0.1602
10909TIP3    H132668   2.433   7.114   5.639  0.3542  0.4512 -0.3269
10909TIP3    H232669   2.553   7.201   5.607 -0.6038  1.5955 -0.9161
10910TIP3   OH232670   1.725   7.308   6.387 -0.2754  0.3199 -0.4703
10910TIP3    H132671   1.647   7.269   6.346 -0.0974 -1.3335  0.6454
10910TIP3    H232672   1.769   7.354   6.316 -1.0019 -0.7802 -1.6930
10911TIP3   OH232673   1.783   3.367   3.562  0.4445 -0.3917 -0.2968
10911TIP3    H132674   1.877   3.363   3.576  0.6843  2.0228 -0.7811
10911TIP3    H232675   1.761   3.282   3.524  2.5176 -0.7993 -0.7134
10912TIP3   OH232676   7.783   6.804   5.542  0.2682  0.8199 -0.2537
10912TIP3    H132677   7.834   6.879   5.570  2.3568 -0.0543 -1.4989
10912TIP3    H232678   7.777   6.748   5.620 -0.0311  1.5669  0.2715
10913TIP3   OH232679   3.184   0.092   3.906  0.0412  0.0092 -0.0542
10913TIP3    H132680   3.238   0.138   3.970 -2.0044  1.4774  0.7214
10913TIP3    H232681   3.213   0.125   3.821  2.1716 -1.2942  0.1064
10914TIP3   OH232682   3.517   0.312   3.900  0.2013  0.2856 -0.8072
10914TIP3    H132683   3.564   0.358   3.832 -2.0410  1.3307 -1.7712
10914TIP3    H232684   3.569   0.234   3.918  2.0173  1.1563 -2.0430
10915TIP3   OH232685   7.690   6.952   2.243  0.6212 -0.1516 -0.1305
10915TIP3    H132686   7.775   6.994   2.236  0.9845 -0.4473  1.8150
10915TIP3    H232687   7.710   6.858   2.247  0.0432 -0.3535 -1.4939
10916TIP3   OH232688   3.228   3.836   4.668  0.4016 -0.0546 -0.1320
10916TIP3    H132689   3.165   3.908   4.666 -0.1570 -0.5100  0.5622
10916TIP3    H232690   3.181   3.762   4.629  0.7903 -0.1781 -0.3646
10917TIP3   OH232691   1.130   6.280   6.578 -0.4107  0.5018  0.0977
10917TIP3    H132692   1.181   6.260   6.656 -0.9296  0.6407  0.4739
10917TIP3    H232693   1.058   6.333   6.609  0.7716  2.7968 -0.8288
10918TIP3   OH232694   8.305   7.577   4.283 -0.6423  0.2080 -0.2248
10918TIP3    H132695   8.351   7.594   4.201 -0.2513 -1.2155 -0.3290
10918TIP3    H232696   8.213   7.590   4.263 -0.5467 -0.1261 -0.8886
10919TIP3   OH232697   4.536   5.674   6.066 -0.1405 -0.4229  0.5347
10919TIP3    H132698   4.601   5.622   6.018 -2.1974 -0.9970 -1.7749
10919TIP3    H232699   4.477   5.609   6.103  0.2429  0.1212  2.1929
10920TIP3   OH232700   8.219   1.447   3.636 -0.0528 -0.2841  0.0873
10920TIP3    H132701   8.144   1.481   3.588  1.0593  0.5044 -1.1864
10920TIP3    H232702   8.288   1.512   3.621  1.0794 -1.3210  0.6302
10921TIP3   OH232703   5.322   5.824   6.108  0.3305 -0.4951  0.2120
10921TIP3    H132704   5.355   5.873   6.184  0.6095  0.2735 -0.3946
10921TIP3    H232705   5.238   5.865   6.088  0.6194 -0.1681 -0.3709
10922TIP3   OH232706   3.633   4.263   5.829  0.0637  0.0187 -0.1250
10922TIP3    H132707   3.609   4.189   5.774 -0.3039 -0.5525  0.7851
10922TIP3    H232708   3.622   4.340   5.773  1.4432 -0.6836 -1.3982
10923TIP3   OH232709   3.140   0.782   5.363  0.1927  0.0791 -0.4860
10923TIP3    H132710   3.173   0.815   5.447 -2.3431 -0.4127  0.8077
10923TIP3    H232711   3.072   0.845   5.338  0.2728 -0.3004 -1.6953
10924TIP3   OH232712   5.081   5.090   3.859  0.2675 -0.1689  0.0862
10924TIP3    H132713   4.996   5.045   3.860 -0.5497  1.2702  2.2478
10924TIP3    H232714   5.073   5.153   3.787 -1.3279  1.2827  1.4286
10925TIP3   OH232715   4.418   6.818   5.731 -0.0216  0.7849  0.3936
10925TIP3    H132716   4.392   6.740   5.682 -0.8387  1.0248  0.4351
10925TIP3    H232717   4.514   6.811   5.738  0.1154  0.6873 -1.1393
10926TIP3   OH232718   2.774   7.290   3.433 -0.0389 -0.1271 -0.0089
10926TIP3    H132719   2.811   7.278   3.521  2.2637 -0.8795 -1.0250
10926TIP3    H232720   2.679   7.289   3.447  0.2608 -0.4285  2.4323
10927TIP3   OH232721   0.869   3.541   6.593 -0.1396  0.6811 -0.4398
10927TIP3    H132722   0.826   3.511   6.673  0.4790 -0.3814 -0.4887
10927TIP3    H232723   0.807   3.604   6.556 -0.1856  1.6030  1.1350
10928TIP3   OH232724   5.237   2.027   5.821 -0.2559  0.2232 -0.1797
10928TIP3    H132725   5.325   2.005   5.789  0.6207  2.2190  0.6938
10928TIP3    H232726   5.240   2.006   5.914 -0.6729  0.3472 -0.1381
10929TIP3   OH232727   7.897   2.087   6.394 -0.7485  0.2103 -0.6056
10929TIP3    H132728   7.824   2.076   6.455  0.3846 -1.7173  0.5084
10929TIP3    H232729   7.943   2.165   6.426 -1.2649  0.3535 -0.1942
10930TIP3   OH232730   3.145   5.742   0.615 -0.4612 -0.0828 -0.2442
10930TIP3    H132731   3.055   5.717   0.594 -0.8682  0.4763  0.7591
10930TIP3    H232732   3.142   5.837   0.622  0.8684  0.2687 -3.1372
10931TIP3   OH232733   3.660   1.133   1.526  0.6335 -0.8895 -0.4316
10931TIP3    H132734   3.699   1.062   1.475 -1.2187 -1.7362 -0.7636
10931TIP3    H232735   3.567   1.113   1.528 -0.0432  1.7586 -0.8861
10932TIP3   OH232736   6.212   7.821   2.833  0.0400  0.3925 -0.7046
10932TIP3    H132737   6.159   7.741   2.835  0.7210 -0.1408 -2.3619
10932TIP3    H232738   6.271   7.813   2.907  0.2414 -0.7696 -0.9678
10933TIP3   OH232739   7.353   6.509   2.136 -0.3233  0.1574  0.2417
10933TIP3    H132740   7.259   6.525   2.143 -0.5347 -1.4284  1.5789
10933TIP3    H232741   7.392   6.596   2.132 -1.8628  0.8505 -1.0774
10934TIP3   OH232742   3.062   2.400   6.701 -0.1049  0.5410 -0.1456
10934TIP3    H132743   3.127   2.412   6.632 -0.5728 -1.7571 -1.0799
10934TIP3    H232744   3.083   2.314   6.739 -1.3896  0.6533  0.8794
10935TIP3   OH232745   5.439   2.406   6.817  0.1532  0.0377  0.0495
10935TIP3    H132746   5.493   2.338   6.777  1.2933  0.8490  0.1493
10935TIP3    H232747   5.490   2.435   6.893 -1.4764 -0.7317  1.5217
10936TIP3   OH232748   5.900   2.693   3.094 -0.0780 -0.2559  0.0840
10936TIP3    H132749   5.964   2.759   3.066 -0.6990 -0.9790 -3.4695
10936TIP3    H232750   5.950   2.612   3.103  0.0896 -0.0612  1.0138
10937TIP3   OH232751   7.933   5.857   4.046  0.0843 -0.1511 -0.0460
10937TIP3    H132752   8.007   5.889   4.099 -0.7126  1.3540  0.2038
10937TIP3    H232753   7.954   5.884   3.957 -0.2405  0.4213  0.0506
10938TIP3   OH232754   6.806   2.230   1.652 -0.4361 -0.0138  0.2795
10938TIP3    H132755   6.796   2.163   1.585  1.8256 -0.4272  0.2910
10938TIP3    H232756   6.717   2.245   1.684 -1.1111 -2.4683 -0.2422
10939TIP3   OH232757   6.035   6.799   0.629  0.6399  0.5832  0.4899
10939TIP3    H132758   5.980   6.864   0.673 -0.9546  1.2661 -2.2746
10939TIP3    H232759   6.035   6.724   0.688 -3.1504  0.6418  0.7904
10940TIP3   OH232760   3.812   5.187   0.614 -0.0646  0.1732 -0.0788
10940TIP3    H132761   3.905   5.207   0.624 -0.0148  0.2560 -0.6366
10940TIP3    H232762   3.809   5.113   0.553 -0.3386 -0.2759  0.4648
10941TIP3   OH232763   6.712   6.865   4.056 -0.1073 -0.2003  0.2357
10941TIP3    H132764   6.796   6.821   4.052  0.2390  0.4768  0.0072
10941TIP3    H232765   6.651   6.805   4.013  0.7177  0.3766 -1.8643
10942TIP3   OH232766   7.236   5.257   0.227 -0.0034  0.0076 -0.5356
10942TIP3    H132767   7.246   5.163   0.214  1.4222  0.1804 -0.9704
10942TIP3    H232768   7.161   5.266   0.286 -0.3311 -1.3738 -0.7047
10943TIP3   OH232769   2.171   3.051   4.059 -0.1416  0.3127 -0.7209
10943TIP3    H132770   2.213   3.133   4.082  0.2480  0.1948 -0.9941
10943TIP3    H232771   2.243   2.994   4.030 -0.6833  0.8166 -3.3305
10944TIP3   OH232772   8.219   6.569   0.539 -0.3391 -0.3016 -0.1566
10944TIP3    H132773   8.225   6.501   0.605  1.7175 -1.6973 -1.6316
10944TIP3    H232774   8.309   6.604   0.533 -0.9149  1.1514 -0.8377
10945TIP3   OH232775   0.799   3.838   3.598  0.3966  0.7217  0.1181
10945TIP3    H132776   0.822   3.851   3.507  1.9457  0.5606  0.4568
10945TIP3    H232777   0.880   3.810   3.640 -0.8655 -2.1159  0.9807
10946TIP3   OH232778   4.953   2.916   3.983 -0.4678 -0.5186 -0.5751
10946TIP3    H132779   4.894   2.885   3.914  1.5098  0.8187 -3.0318
10946TIP3    H232780   4.917   3.002   4.007 -1.8937 -1.5165  1.1118
10947TIP3   OH232781   7.443   6.846   4.198 -0.3600  0.1272 -0.2806
10947TIP3    H132782   7.530   6.836   4.157  0.4764 -2.1066  1.7994
10947TIP3    H232783   7.455   6.916   4.262 -1.0647  2.0636 -2.1434
10948TIP3   OH232784   2.803   0.466   3.334 -0.0596 -0.1225 -0.0722
10948TIP3    H132785   2.880   0.443   3.386 -1.0618 -1.3677  0.9070
10948TIP3    H232786   2.805   0.404   3.261  0.4876  0.6147 -0.7036
10949TIP3   OH232787   6.538   6.615   5.484 -0.0107  0.1223 -0.7371
10949TIP3    H132788   6.539   6.597   5.390  1.2034 -3.4934 -0.2115
10949TIP3    H232789   6.627   6.644   5.504 -0.4844  1.6649 -0.7701
10950TIP3   OH232790   7.005   6.965   3.538 -0.0153 -0.0673  0.3464
10950TIP3    H132791   7.093   6.990   3.566 -0.9583  2.4703  1.3748
10950TIP3    H232792   6.956   6.951   3.619 -0.8000 -0.4892 -0.1811
10951TIP3   OH232793   2.790   7.491   3.246 -0.6886 -0.0566  0.2330
10951TIP3    H132794   2.770   7.424   3.311 -0.9706  0.3758  0.5985
10951TIP3    H232795   2.865   7.456   3.197  0.8710  0.4668  2.1053
10952TIP3   OH232796   7.337   4.027   3.399  0.1962 -0.1445 -0.3112
10952TIP3    H132797   7.333   4.066   3.312  1.0995 -0.6200 -0.5813
10952TIP3    H232798   7.425   3.988   3.404 -0.5847 -1.9958 -0.0207
10953TIP3   OH232799   3.083   1.185   1.152 -0.1852  0.0183  0.4278
10953TIP3    H132800   3.097   1.260   1.096 -0.7971  0.1445  0.4383
10953TIP3    H232801   3.056   1.222   1.236  1.2061 -0.1433  0.9818
10954TIP3   OH232802   0.490   5.874   2.439  0.8549 -0.2070 -0.6025
10954TIP3    H132803   0.460   5.919   2.360 -0.1076  2.0823  0.9637
10954TIP3    H232804   0.410   5.859   2.490  1.7095  0.9186  1.1611
10955TIP3   OH232805   6.126   3.585   3.146  0.0535 -0.2349 -0.0668
10955TIP3    H132806   6.077   3.504   3.157 -0.3165 -0.1409 -1.0056
10955TIP3    H232807   6.065   3.654   3.173 -0.1011 -0.1693 -0.5782
10956TIP3   OH232808   6.186   7.511   6.866  0.3943  0.3083 -0.0782
10956TIP3    H132809   6.155   7.571   6.798 -1.9202  0.0888  0.7098
10956TIP3    H232810   6.259   7.558   6.907  0.6826  1.1976 -1.5390
10957TIP3   OH232811   5.000   1.597   5.627 -0.3698  0.4761 -0.2873
10957TIP3    H132812   5.065   1.528   5.612 -0.0845  0.7856 -0.5020
10957TIP3    H232813   4.922   1.551   5.658  0.1085  0.1439  0.4469
10958TIP3   OH232814   6.488   1.740   6.519 -0.5196  0.1754  0.4759
10958TIP3    H132815   6.481   1.754   6.613 -0.9248 -0.9503  0.6338
10958TIP3    H232816   6.397   1.735   6.489 -0.3904  0.1866  0.0814
10959TIP3   OH232817   6.484   6.285   0.486 -0.1661 -0.1883  0.4914
10959TIP3    H132818   6.474   6.334   0.567  0.2484 -0.8992  0.9752
10959TIP3    H232819   6.488   6.352   0.418 -2.1728  0.3691  0.8673
10960TIP3   OH232820   7.745   0.653   6.816 -0.0076  0.1816 -0.1167
10960TIP3    H132821   7.807   0.622   6.750 -0.9827  2.0918 -2.0679
10960TIP3    H232822   7.709   0.733   6.779 -2.6223 -0.0978  1.5514
10961TIP3   OH232823   2.620   4.265   0.319  0.3438 -0.1013  0.3525
10961TIP3    H132824   2.587   4.269   0.229  1.1800  0.6832  0.0674
10961TIP3    H232825   2.541   4.261   0.373 -0.1748 -0.2887 -0.3923
10962TIP3   OH232826   0.677   7.838   1.040  0.2151  0.6297  0.9959
10962TIP3    H132827   0.710   7.847   1.130  0.7728 -1.5357  1.0858
10962TIP3    H232828   0.750   7.799   0.992 -1.3745 -2.1728  0.6397
10963TIP3   OH232829   7.281   3.778   0.984 -0.4774 -0.1250  0.6217
10963TIP3    H132830   7.266   3.805   1.075 -1.5597  0.6132  0.2449
10963TIP3    H232831   7.304   3.685   0.990  0.7034  0.2094  1.7368
10964TIP3   OH232832   7.449   3.204   2.881  0.3136  0.3451 -0.7602
10964TIP3    H132833   7.460   3.142   2.953 -2.4129 -1.0261 -1.4164
10964TIP3    H232834   7.375   3.259   2.907  0.5279  1.1028 -1.6754
10965TIP3   OH232835   0.747   3.014   4.127 -0.0305  0.2760 -0.0095
10965TIP3    H132836   0.698   2.999   4.046  0.1792 -1.6502  0.1783
10965TIP3    H232837   0.690   2.982   4.196 -0.3354  2.1854  0.6892
10966TIP3   OH232838   3.625   4.487   2.284  0.0755 -0.0260 -0.3930
10966TIP3    H132839   3.658   4.419   2.226 -0.8370 -0.4323 -0.4550
10966TIP3    H232840   3.645   4.454   2.372  1.5021  0.6134 -0.4540
10967TIP3   OH232841   8.173   6.976   2.064  0.2086  0.1963 -0.0145
10967TIP3    H132842   8.229   6.983   2.141 -0.9822 -0.8062  0.9773
10967TIP3    H232843   8.184   6.885   2.035 -0.8947 -0.0114  0.1961
10968TIP3   OH232844   5.917   6.140   5.819 -0.2592  0.2499  0.3004
10968TIP3    H132845   5.974   6.135   5.896  3.1771  2.0451 -1.8544
10968TIP3    H232846   5.863   6.217   5.835 -1.9877 -1.2105  2.1770
10969TIP3   OH232847   5.422   4.547   1.958  0.1320  0.3050 -0.2649
10969TIP3    H132848   5.413   4.464   2.005 -1.2343  1.2420  1.2142
10969TIP3    H232849   5.511   4.545   1.923  1.1042 -0.6546  2.0493
10970TIP3   OH232850   3.737   2.686   0.210 -0.1057 -0.6943 -0.1245
10970TIP3    H132851   3.715   2.778   0.219  0.6689 -0.5173  0.0764
10970TIP3    H232852   3.653   2.640   0.211 -0.4030 -0.1712  1.7894
10971TIP3   OH232853   4.071   1.772   1.891  0.3639  1.0986 -0.0550
10971TIP3    H132854   4.137   1.787   1.959 -0.5551 -0.7591  1.3276
10971TIP3    H232855   4.096   1.689   1.850  0.6917  2.0040 -1.8076
10972TIP3   OH232856   7.169   6.972   4.095  0.3496  0.9521 -0.8208
10972TIP3    H132857   7.237   7.021   4.141  1.0466 -0.1087 -0.6810
10972TIP3    H232858   7.209   6.886   4.078 -2.1795 -1.2057  2.7340
10973TIP3   OH232859   5.104   5.843   3.024  0.3091  0.1373 -0.7331
10973TIP3    H132860   5.087   5.855   2.930 -0.8359  1.0096 -0.4328
10973TIP3    H232861   5.025   5.803   3.058  0.8057 -0.3811 -0.1603
10974TIP3   OH232862   7.108   6.358   4.915  0.1432 -0.2332  0.6586
10974TIP3    H132863   7.180   6.355   4.853 -2.1164 -0.6071 -2.1558
10974TIP3    H232864   7.084   6.267   4.929 -2.1007 -0.1076 -1.5519
10975TIP3   OH232865   5.890   6.932   3.489 -0.5722 -0.1269  0.1976
10975TIP3    H132866   5.842   6.850   3.502 -1.2353  0.0956 -0.6945
10975TIP3    H232867   5.961   6.908   3.430 -0.1547 -0.2598  0.7488
10976TIP3   OH232868   6.033   4.059   3.397  0.2531 -0.0706  0.6708
10976TIP3    H132869   6.073   3.989   3.449 -0.7972 -0.5905  0.8094
10976TIP3    H232870   5.945   4.068   3.434 -0.7317 -0.8269 -1.3354
10977TIP3   OH232871   3.117   1.466   2.656  0.3264 -0.2376 -0.0233
10977TIP3    H132872   3.190   1.518   2.624  0.4026 -0.4015 -0.1168
10977TIP3    H232873   3.158   1.391   2.699  0.2198 -0.1462  0.2394
10978TIP3   OH232874   6.387   3.161   2.520  0.3227  0.1386 -0.3693
10978TIP3    H132875   6.337   3.099   2.573 -0.2135  0.1464 -0.8471
10978TIP3    H232876   6.433   3.107   2.456 -0.3722  0.2310 -0.9717
10979TIP3   OH232877   2.018   6.710   2.757 -0.0194  0.1288 -0.0937
10979TIP3    H132878   2.103   6.668   2.767 -0.3436 -0.1767  1.7732
10979TIP3    H232879   1.963   6.668   2.823 -0.9465  1.9947  0.3910
10980TIP3   OH232880   0.399   0.085   4.562 -0.3171  0.4185 -0.4592
10980TIP3    H132881   0.416   0.118   4.650 -0.5855  0.1497 -0.3045
10980TIP3    H232882   0.304   0.078   4.557 -0.3183  0.6640 -0.8590
10981TIP3   OH232883   1.826   4.606   3.509  0.0021  0.2500 -0.6312
10981TIP3    H132884   1.862   4.562   3.432 -1.2728  1.0120 -1.6972
10981TIP3    H232885   1.747   4.556   3.531 -0.8324  1.2902 -1.1626
10982TIP3   OH232886   5.447   7.648   1.620  0.5443  0.3911  0.1377
10982TIP3    H132887   5.397   7.699   1.682 -0.4224  2.0784 -1.9172
10982TIP3    H232888   5.539   7.665   1.642  0.2156  1.4701  0.6852
10983TIP3   OH232889   7.691   7.112   2.864 -0.2329 -0.6813  0.0517
10983TIP3    H132890   7.642   7.138   2.942 -0.8084 -0.4191 -0.3870
10983TIP3    H232891   7.624   7.087   2.801  0.2455 -1.3220 -0.2136
10984TIP3   OH232892   3.610   7.087   1.487 -0.3353 -0.3138  0.0082
10984TIP3    H132893   3.545   7.152   1.458 -0.0906 -0.5440 -1.0993
10984TIP3    H232894   3.613   7.098   1.582 -0.3644  1.2426 -0.1368
10985TIP3   OH232895   4.894   7.496   4.456  0.5332 -0.3204  0.3170
10985TIP3    H132896   4.869   7.530   4.370  0.0247 -0.7549  0.2844
10985TIP3    H232897   4.967   7.550   4.484  0.8466 -0.3255 -0.4925
10986TIP3   OH232898   1.807   4.547   2.978  0.7095  0.0899 -0.4876
10986TIP3    H132899   1.733   4.608   2.989 -0.6465 -1.6604  0.6814
10986TIP3    H232900   1.846   4.572   2.895 -0.9845  1.3169 -0.9815
10987TIP3   OH232901   3.244   4.944   1.678 -0.0737 -0.3329  0.2340
10987TIP3    H132902   3.219   4.995   1.601 -0.6978  0.2274  0.7931
10987TIP3    H232903   3.223   5.001   1.752 -2.0301 -1.8637  0.9505
10988TIP3   OH232904   3.795   6.585   5.145 -0.2801  0.4399 -0.0862
10988TIP3    H132905   3.866   6.560   5.086 -1.2962  1.0601 -1.6286
10988TIP3    H232906   3.736   6.638   5.091  0.1247  3.4352  2.1847
10989TIP3   OH232907   4.253   6.182   4.456 -0.4338 -0.0003 -0.0006
10989TIP3    H132908   4.244   6.200   4.362  1.7961  1.7823  0.0418
10989TIP3    H232909   4.205   6.253   4.498  0.6265  0.6326  0.1750
10990TIP3   OH232910   1.468   2.352   4.864 -0.1492  0.4244 -0.1654
10990TIP3    H132911   1.481   2.412   4.790  0.4587 -0.2829 -0.6581
10990TIP3    H232912   1.458   2.409   4.940  2.2863  1.1795 -0.3092
10991TIP3   OH232913   1.597   5.707   4.216 -0.1200  0.0513  0.2373
10991TIP3    H132914   1.613   5.797   4.187 -0.0341  0.0327  0.2274
10991TIP3    H232915   1.604   5.655   4.136  0.5426 -0.0540  0.3577
10992TIP3   OH232916   7.207   1.624   5.799  0.1868 -0.2420 -0.3021
10992TIP3    H132917   7.135   1.637   5.861  0.6055 -1.1662  0.4037
10992TIP3    H232918   7.286   1.636   5.852  0.6040  1.9108 -1.3055
10993TIP3   OH232919   3.278   7.619   4.145  0.3176  0.1829 -0.2789
10993TIP3    H132920   3.367   7.600   4.119  0.6792  0.5585  0.6229
10993TIP3    H232921   3.267   7.713   4.129  0.0025  0.0900 -0.6200
10994TIP3   OH232922   2.701   1.249   6.638  0.2644 -0.5714  0.2605
10994TIP3    H132923   2.653   1.325   6.671 -0.1624 -0.2686 -0.9936
10994TIP3    H232924   2.783   1.249   6.688  0.4835  0.9982 -0.0300
10995TIP3   OH232925   0.141   4.728   3.407  0.0374 -0.3172 -0.3252
10995TIP3    H132926   0.062   4.763   3.366 -2.2478 -3.6696  0.8180
10995TIP3    H232927   0.141   4.766   3.495 -0.7444 -0.8213 -0.0956
10996TIP3   OH232928   1.410   5.327   6.251  0.0839 -0.0224  0.2736
10996TIP3    H132929   1.428   5.236   6.225  1.4729  0.6474 -1.3304
10996TIP3    H232930   1.345   5.357   6.187  1.1184  0.6858 -0.4653
10997TIP3   OH232931   6.805   2.990   2.828  0.4196 -0.3131  0.1300
10997TIP3    H132932   6.731   3.024   2.878 -1.4571 -1.4905 -1.6837
10997TIP3    H232933   6.824   3.058   2.764  1.5003  0.3393  1.1101
10998TIP3   OH232934   5.010   5.369   0.572 -0.4249  0.0843  0.6402
10998TIP3    H132935   4.964   5.445   0.536 -1.2153  0.0002  1.4193
10998TIP3    H232936   5.101   5.397   0.580 -0.3726  0.3448 -0.6991
10999TIP3   OH232937   5.128   4.349   1.903  0.3860  0.4355 -0.0796
10999TIP3    H132938   5.115   4.444   1.902  1.2061  0.5653 -1.3630
10999TIP3    H232939   5.222   4.337   1.916  0.4611 -0.1524 -1.0478
11000TIP3   OH232940   2.895   4.143   4.902 -0.4091  0.2283  0.9639
11000TIP3    H132941   2.808   4.108   4.922 -0.1868 -0.3128  0.9755
11000TIP3    H232942   2.923   4.095   4.824 -0.3711  0.8296  0.5982
11001TIP3   OH232943   1.043   2.087   2.721  0.6900  0.1064  0.0616
11001TIP3    H132944   1.018   2.151   2.654  1.0506  0.1464 -0.0371
11001TIP3    H232945   1.130   2.115   2.749  0.5835  0.0243  0.4700
11002TIP3   OH232946   4.057   3.658   6.377 -0.0754 -0.2938  0.5663
11002TIP3    H132947   4.030   3.593   6.443  0.9838 -0.4764  0.8325
11002TIP3    H232948   4.146   3.681   6.401  0.3701 -0.4322 -0.8568
11003TIP3   OH232949   1.594   7.710   1.993  0.1187 -0.2893 -0.2337
11003TIP3    H132950   1.677   7.742   1.958 -0.5015  3.4397  1.1804
11003TIP3    H232951   1.607   7.706   2.088 -1.3971  0.8760  0.0740
11004TIP3   OH232952   7.752   6.496   1.601 -0.2175 -0.5230  0.0828
11004TIP3    H132953   7.751   6.427   1.535 -2.1048  0.2928 -0.8247
11004TIP3    H232954   7.695   6.564   1.565  1.3411  1.4113  1.0585
11005TIP3   OH232955   5.198   0.384   3.881  0.1636  0.2866 -1.0656
11005TIP3    H132956   5.117   0.342   3.852 -0.2206 -1.7794  2.3609
11005TIP3    H232957   5.170   0.467   3.918 -0.1136  0.4162 -1.5602
11006TIP3   OH232958   3.077   0.533   5.463 -0.1726  0.0650 -0.0833
11006TIP3    H132959   3.097   0.598   5.396  1.1797 -1.4859 -1.3001
11006TIP3    H232960   3.092   0.577   5.546  1.7344  1.0276 -0.8817
11007TIP3   OH232961   7.499   6.690   1.663  0.3828  0.2211 -0.0094
11007TIP3    H132962   7.491   6.707   1.757 -0.5407  0.0269 -0.0400
11007TIP3    H232963   7.575   6.741   1.636 -0.0835  1.2799  0.6059
11008TIP3   OH232964   0.719   2.156   1.204 -0.2356 -0.1355  0.1906
11008TIP3    H132965   0.790   2.138   1.143 -1.1462  0.7327 -1.1791
11008TIP3    H232966   0.653   2.090   1.184 -0.4401  0.0010  0.4055
11009TIP3   OH232967   0.390   0.038   2.504  0.3334 -0.4982  0.4671
11009TIP3    H132968   0.326   0.108   2.512  1.3941  0.4897  0.6433
11009TIP3    H232969   0.362  -0.029   2.566 -0.6997 -0.2343  0.2958
11010TIP3   OH232970   8.122   1.098   0.468  0.6540 -0.2543  0.2315
11010TIP3    H132971   8.140   1.146   0.549  1.4988  0.4594 -0.3708
11010TIP3    H232972   8.069   1.023   0.497 -1.0050  1.1908  1.1415
11011TIP3   OH232973   3.806   2.010   6.247  0.0061 -0.1312  0.3481
11011TIP3    H132974   3.764   2.005   6.333  1.9399 -1.4057  1.2721
11011TIP3    H232975   3.854   2.093   6.248 -0.1487 -0.0422  0.4078
11012TIP3   OH232976   1.317   1.153   4.001  0.0285 -0.2538  0.1465
11012TIP3    H132977   1.291   1.191   3.917  0.9256 -0.8835 -0.4400
11012TIP3    H232978   1.340   1.228   4.056  0.2119  0.1283 -0.4447
11013TIP3   OH232979   2.577   0.534   3.514 -0.0265 -0.2621  0.3658
11013TIP3    H132980   2.622   0.559   3.433  1.2016 -1.9308  0.4856
11013TIP3    H232981   2.644   0.542   3.582 -0.7884  0.2025  1.0897
11014TIP3   OH232982   4.788   3.755   2.090 -0.0057 -0.4638  0.0299
11014TIP3    H132983   4.803   3.795   2.176 -0.9431  0.1307 -0.0757
11014TIP3    H232984   4.828   3.816   2.028 -0.4466 -0.2574 -0.0500
11015TIP3   OH232985   1.464   3.794   3.661 -0.4025  0.1170 -0.1529
11015TIP3    H132986   1.508   3.710   3.649  1.7073  1.1259  0.1440
11015TIP3    H232987   1.412   3.805   3.581 -0.2871 -1.2073 -0.4377
11016TIP3   OH232988   3.699   2.328   1.062  0.3567  0.4400 -0.4742
11016TIP3    H132989   3.725   2.237   1.051  1.6599  0.5999  0.8570
11016TIP3    H232990   3.782   2.376   1.062 -0.2578  1.5391 -0.4072
11017TIP3   OH232991   6.968   5.143   5.990 -0.3877 -0.0981  0.0044
11017TIP3    H132992   6.877   5.161   6.012 -0.7199 -1.8023  0.0841
11017TIP3    H232993   7.006   5.106   6.070 -0.2477 -1.5301 -0.6943
11018TIP3   OH232994   4.761   2.559   4.714 -0.2564  0.4394 -0.0121
11018TIP3    H132995   4.755   2.463   4.710 -0.4196  0.4330  0.3560
11018TIP3    H232996   4.750   2.580   4.806  0.5732  0.7700  0.0111
11019TIP3   OH232997   2.525   2.203   1.386 -0.9668  0.8191  0.3396
11019TIP3    H132998   2.473   2.198   1.306 -1.6563  0.1464  0.8138
11019TIP3    H232999   2.460   2.198   1.457 -0.3601  1.2510  0.9421
11020TIP3   OH233000   1.942   4.696   2.803 -0.1721  0.0252  0.5535
11020TIP3    H133001   1.858   4.722   2.765  0.6686 -0.3151 -1.6980
11020TIP3    H233002   1.981   4.777   2.835 -1.3605  0.1731  1.6857
11021TIP3   OH233003   8.191   3.731   3.857  0.1560  0.2402 -0.4073
11021TIP3    H133004   8.176   3.719   3.951 -0.8845 -0.3546 -0.6348
11021TIP3    H233005   8.234   3.650   3.829  0.2507  0.3180 -0.4879
11022TIP3   OH233006   1.384   4.593   5.822  0.0198  0.4618  0.0232
11022TIP3    H133007   1.343   4.563   5.903 -2.0719  0.8248 -0.8326
11022TIP3    H233008   1.313   4.590   5.757  1.5550  0.4427 -1.7314
11023TIP3   OH233009   4.057   5.580   3.383 -0.0427 -0.3334 -0.0937
11023TIP3    H133010   4.076   5.486   3.376 -0.8477 -0.4038 -1.5274
11023TIP3    H233011   3.987   5.585   3.449  1.5753 -0.4805  1.7480
11024TIP3   OH233012   6.760   3.812   4.647  0.1865 -0.0780 -0.2835
11024TIP3    H133013   6.824   3.757   4.692  0.4116 -0.4502 -1.0524
11024TIP3    H233014   6.730   3.874   4.714 -0.6752 -1.6334  0.8388
11025TIP3   OH233015   5.900   0.764   3.827  0.9495  0.2018 -0.1134
11025TIP3    H133016   5.914   0.815   3.746  0.5201  0.4738 -0.0194
11025TIP3    H233017   5.904   0.673   3.798  1.7358  0.2812 -0.2850
11026TIP3   OH233018   3.192   3.487   3.881 -0.0258 -0.3207  0.8903
11026TIP3    H133019   3.260   3.533   3.831  0.8352 -1.5735  0.8710
11026TIP3    H233020   3.135   3.448   3.815  0.0284 -0.4053  0.8929
11027TIP3   OH233021   2.006   6.340   3.030  0.4415  0.7733  0.1457
11027TIP3    H133022   2.095   6.345   3.065  0.2370 -1.8787  1.3001
11027TIP3    H233023   1.961   6.413   3.071  1.7189  1.2762  0.7296
11028TIP3   OH233024   2.709   6.274   4.557  0.5234 -0.3674  0.2701
11028TIP3    H133025   2.766   6.218   4.609 -0.9412 -1.2388  1.0160
11028TIP3    H233026   2.623   6.267   4.600 -0.0147  1.3922 -0.4202
11029TIP3   OH233027   4.261   2.091   5.510  0.2222  0.0241 -0.3796
11029TIP3    H133028   4.292   2.038   5.584  1.5501  0.6237 -0.4847
11029TIP3    H233029   4.301   2.177   5.524 -1.2424  0.7787 -0.6594
11030TIP3   OH233030   0.657   5.147   5.288 -0.1959 -0.3686 -0.5859
11030TIP3    H133031   0.741   5.122   5.328  0.3733  1.2300 -0.7001
11030TIP3    H233032   0.653   5.096   5.207 -1.0689 -3.1806  1.0877
11031TIP3   OH233033   7.944   1.323   5.928  0.0665  0.5636 -0.2348
11031TIP3    H133034   7.976   1.253   5.984 -0.3305 -0.8520 -1.7106
11031TIP3    H233035   8.022   1.359   5.888  0.0938 -1.1830 -1.8737
11032TIP3   OH233036   0.455   2.014   6.598 -0.4474 -0.3286 -0.0175
11032TIP3    H133037   0.511   2.091   6.591 -1.4509  0.4754  0.5528
11032TIP3    H233038   0.516   1.940   6.601  0.5414  0.4630 -0.1679
11033TIP3   OH233039   0.698   6.524   6.768 -0.8089  0.5829 -0.0065
11033TIP3    H133040   0.620   6.540   6.821 -0.1164  0.6419  1.0180
11033TIP3    H233041   0.772   6.541   6.827 -0.0077  0.9086 -1.0668
11034TIP3   OH233042   0.223   0.224   6.572 -0.0846 -0.4814  0.0491
11034TIP3    H133043   0.181   0.220   6.658  1.4430  0.2076  0.8697
11034TIP3    H233044   0.302   0.276   6.586  0.5959 -0.9852 -1.6192
11035TIP3   OH233045   2.060   0.494   5.553 -0.4205  0.0507  0.4608
11035TIP3    H133046   1.969   0.463   5.548 -0.0939 -0.7936 -0.5360
11035TIP3    H233047   2.091   0.493   5.463  0.2629  1.3720  0.6530
11036TIP3   OH233048   5.590   2.171   6.735  0.4117 -0.0636  0.3050
11036TIP3    H133049   5.675   2.134   6.714  0.6789  0.2602  0.7950
11036TIP3    H233050   5.567   2.132   6.820  0.8501  1.1159  0.9952
11037TIP3   OH233051   6.449   3.225   5.255 -0.0880  0.4149 -0.8454
11037TIP3    H133052   6.356   3.219   5.233 -0.1533 -2.8308 -0.2616
11037TIP3    H233053   6.485   3.287   5.192 -2.4866  1.1123 -1.6345
11038TIP3   OH233054   6.225   5.557   0.385  0.1571 -0.6532  0.1179
11038TIP3    H133055   6.131   5.577   0.382  0.3463  0.2886 -0.0607
11038TIP3    H233056   6.231   5.478   0.439 -0.7730 -0.9945 -0.2466
11039TIP3   OH233057   2.648   5.936   5.562  0.2652 -0.0695  0.0209
11039TIP3    H133058   2.607   5.954   5.647  1.1076 -0.2666  0.4763
11039TIP3    H233059   2.733   5.897   5.584  1.5392  2.0593 -0.8706
11040TIP3   OH233060   1.869   2.089   3.603 -0.4922 -0.4207 -0.8598
11040TIP3    H133061   1.807   2.024   3.636  1.0864 -1.8425 -0.5216
11040TIP3    H233062   1.903   2.049   3.522 -0.4746  0.6165 -1.3763
11041TIP3   OH233063   6.248   5.823   0.876  0.1349 -0.1458 -0.2162
11041TIP3    H133064   6.234   5.918   0.886  0.1117 -0.2116  0.3931
11041TIP3    H233065   6.341   5.816   0.854  0.2551 -0.0076  0.2271
11042TIP3   OH233066   1.878   5.602   2.612 -0.0156  0.4448  0.3649
11042TIP3    H133067   1.813   5.556   2.560  0.3143 -0.0472  0.3844
11042TIP3    H233068   1.963   5.570   2.580  0.3386  2.6593 -1.1668
11043TIP3   OH233069   7.978   3.430   2.304 -0.4318  0.1439 -0.3999
11043TIP3    H133070   7.965   3.335   2.305 -1.5402  0.2816 -0.0777
11043TIP3    H233071   8.066   3.442   2.268  0.3316 -1.0672  0.9554
11044TIP3   OH233072   2.002   2.892   6.072 -0.0079  0.0274 -0.1121
11044TIP3    H133073   1.971   2.980   6.048  1.8402  0.2911 -1.7192
11044TIP3    H233074   1.991   2.840   5.993  0.8078 -0.6646  0.2160
11045TIP3   OH233075   0.513   5.833   5.875  0.1305 -0.3057  0.1601
11045TIP3    H133076   0.440   5.884   5.840  1.3943  1.4983  0.0517
11045TIP3    H233077   0.549   5.787   5.799  0.9700  1.2064 -0.3933
11046TIP3   OH233078   0.970   5.934   5.959 -0.6702 -0.9131  0.2919
11046TIP3    H133079   0.881   5.919   5.990  0.1369  0.3850  3.6922
11046TIP3    H233080   1.024   5.880   6.016  0.8413 -0.4297 -0.6274
11047TIP3   OH233081   3.026   7.930   3.224 -0.3345  0.7920 -0.2356
11047TIP3    H133082   3.029   7.878   3.143  1.6693 -0.1097  0.3623
11047TIP3    H233083   2.951   7.895   3.272 -0.0837 -0.3308 -0.6352
11048TIP3   OH233084   5.127   1.730   4.059  0.2533  0.2955 -0.0180
11048TIP3    H133085   5.064   1.703   4.126  0.3355  0.2463  0.0396
11048TIP3    H233086   5.097   1.686   3.979 -0.6007  1.3716 -0.3248
11049TIP3   OH233087   2.722   0.824   4.980 -0.0293 -1.0236  0.3545
11049TIP3    H133088   2.802   0.804   5.029  0.9813  0.8320 -0.4266
11049TIP3    H233089   2.730   0.773   4.899  1.3068  0.4609 -0.5201
11050TIP3   OH233090   0.823   5.222   2.579  0.4121 -0.2985  0.5046
11050TIP3    H133091   0.896   5.274   2.613  1.4993  0.9678 -3.3092
11050TIP3    H233092   0.766   5.284   2.535 -1.1308 -1.7345  0.3444
11051TIP3   OH233093   5.573   0.334   1.964 -0.1613 -0.5312  0.8089
11051TIP3    H133094   5.627   0.326   1.886  0.6110 -0.2175  1.2895
11051TIP3    H233095   5.490   0.292   1.942  0.6289 -1.9253  0.3790
11052TIP3   OH233096   2.434   2.654   0.085  0.5014 -0.3818 -0.0411
11052TIP3    H133097   2.476   2.696   0.160 -0.1708 -0.1665  0.2225
11052TIP3    H233098   2.346   2.632   0.115 -0.1602  0.6892 -1.0878
11053TIP3   OH233099   2.806   3.266   0.681  0.4146 -0.4292 -0.3695
11053TIP3    H133100   2.828   3.175   0.701  0.9269 -0.9503 -2.9408
11053TIP3    H233101   2.833   3.278   0.590 -0.5181  2.0368 -0.4057
11054TIP3   OH233102   6.898   7.818   0.429 -0.3073 -0.6346 -0.7340
11054TIP3    H133103   6.836   7.780   0.366  2.1562 -0.5712 -3.4253
11054TIP3    H233104   6.883   7.913   0.423 -1.5228 -0.7244  0.4731
11055TIP3   OH233105   2.338   7.228   4.718 -0.0363  0.6141  0.1131
11055TIP3    H133106   2.353   7.240   4.812 -0.2418 -1.7437  0.5027
11055TIP3    H233107   2.283   7.149   4.712  1.7184 -0.5540 -2.0427
11056TIP3   OH233108   4.694   5.248   5.287 -0.2040  0.1624 -0.1559
11056TIP3    H133109   4.690   5.329   5.235 -1.9625  0.2502  0.0517
11056TIP3    H233110   4.769   5.260   5.345 -0.7787  1.9124  0.2778
11057TIP3   OH233111   1.487   3.232   0.082 -0.3856 -0.2331  0.0593
11057TIP3    H133112   1.539   3.300   0.038 -1.7372  0.0449 -1.1577
11057TIP3    H233113   1.523   3.150   0.050 -1.0856 -0.0369 -1.3044
11058TIP3   OH233114   3.132   3.780   5.779 -0.0095 -0.0518 -0.3730
11058TIP3    H133115   3.071   3.755   5.848 -0.0529  0.0780 -0.3645
11058TIP3    H233116   3.081   3.838   5.722  0.5183  1.2133  0.4144
11059TIP3   OH233117   3.958   1.086   5.298  0.1623 -0.0328  0.0339
11059TIP3    H133118   3.911   1.159   5.256  1.3487  0.2928 -0.7735
11059TIP3    H233119   3.910   1.008   5.271 -0.9122  0.4001  0.6175
11060TIP3   OH233120   4.009   6.858   4.357  0.2064 -0.5221 -0.4839
11060TIP3    H133121   3.967   6.836   4.274  1.1062  1.9036 -1.6804
11060TIP3    H233122   3.948   6.919   4.399  0.5895 -0.2953 -0.2538
11061TIP3   OH233123   4.865   2.739   4.910 -0.1710  0.2654 -0.6401
11061TIP3    H133124   4.847   2.812   4.851 -1.2148  0.2921 -0.2951
11061TIP3    H233125   4.779   2.701   4.930  0.1987 -0.0136  0.5167
11062TIP3   OH233126   4.925   2.695   4.506 -0.4840 -0.3987 -0.0876
11062TIP3    H133127   4.885   2.753   4.441 -0.7231  0.1580  0.5350
11062TIP3    H233128   4.853   2.641   4.538 -0.4126 -0.5126 -0.1174
11063TIP3   OH233129   6.953   4.185   6.438  0.3261  0.0007 -0.0682
11063TIP3    H133130   6.974   4.252   6.373  1.4332  1.0013  1.2430
11063TIP3    H233131   6.947   4.233   6.520  1.0862 -1.4924  0.9045
11064TIP3   OH233132   4.783   0.473   6.782 -0.2056  0.0817  0.1771
11064TIP3    H133133   4.859   0.421   6.809 -1.8657 -0.7637  3.7479
11064TIP3    H233134   4.819   0.560   6.764  1.7477 -0.5683  0.6843
11065TIP3   OH233135   4.727   5.680   1.392 -0.2909  0.7419 -0.0027
11065TIP3    H133136   4.725   5.622   1.316  0.3559  0.9667 -0.1980
11065TIP3    H233137   4.814   5.666   1.430  0.0814  1.9658 -0.3567
11066TIP3   OH233138   3.485   3.743   2.074  0.1425 -0.2533  0.3026
11066TIP3    H133139   3.499   3.716   1.983  1.7358 -0.6107  0.6335
11066TIP3    H233140   3.572   3.740   2.114 -0.4738  0.2839  1.7431
11067TIP3   OH233141   3.135   5.085   5.917 -0.1283  0.5177 -0.2100
11067TIP3    H133142   3.048   5.116   5.943  0.5350 -0.3203  3.6528
11067TIP3    H233143   3.125   4.990   5.911  0.1416  0.5616 -1.7055
11068TIP3   OH233144   1.606   6.738   1.120  0.4830 -0.0957 -0.2433
11068TIP3    H133145   1.681   6.754   1.062  1.3446 -0.9092  0.6099
11068TIP3    H233146   1.642   6.747   1.208 -0.6202  0.3002  0.1777
11069TIP3   OH233147   7.953   2.349   0.276  0.3814  0.0787  0.1248
11069TIP3    H133148   7.893   2.399   0.331  0.2687 -0.7920  0.8093
11069TIP3    H233149   7.897   2.310   0.209  0.2144 -0.5325  0.6165
11070TIP3   OH233150   4.719   7.115   1.360 -0.0694  0.0076 -0.5155
11070TIP3    H133151   4.714   7.204   1.395  0.5739  0.0081 -0.4246
11070TIP3    H233152   4.804   7.082   1.388 -1.0344 -1.3156  1.0188
11071TIP3   OH233153   3.498   6.028   4.493 -0.4877  0.3919  0.5037
11071TIP3    H133154   3.517   5.937   4.468  1.1125  1.4999 -2.8697
11071TIP3    H233155   3.404   6.038   4.478 -0.3908 -0.3166 -0.7096
11072TIP3   OH233156   2.845   6.019   4.614 -0.5716 -0.1905  0.4311
11072TIP3    H133157   2.914   5.953   4.618 -1.3900 -1.0148  1.1764
11072TIP3    H233158   2.818   6.032   4.705 -1.1777  0.3674  0.1816
11073TIP3   OH233159   3.294   5.809   1.211  0.3650  0.0837 -0.1425
11073TIP3    H133160   3.378   5.847   1.236  0.7530  0.4355 -1.8304
11073TIP3    H233161   3.242   5.884   1.180 -0.3002 -0.2363  0.1761
11074TIP3   OH233162   7.143   3.852   0.553  0.3747 -0.3002  0.1787
11074TIP3    H133163   7.096   3.904   0.618  0.7934 -0.3638  0.5396
11074TIP3    H233164   7.116   3.888   0.469 -0.6944 -0.6606  0.3563
11075TIP3   OH233165   6.926   3.293   0.071  0.0117  0.3365 -0.5724
11075TIP3    H133166   6.923   3.293   0.166 -0.0863  1.7863 -0.5533
11075TIP3    H233167   6.922   3.201   0.047 -0.6659 -0.0212  0.8031
11076TIP3   OH233168   2.140   0.898   1.084  0.6098 -0.0419 -0.1038
11076TIP3    H133169   2.118   0.988   1.108 -0.6512 -0.3374 -0.0866
11076TIP3    H233170   2.185   0.905   1.000  3.9605  0.9071  1.6099
11077TIP3   OH233171   1.358   1.913   3.378  0.0351 -0.1834  0.5674
11077TIP3    H133172   1.347   1.894   3.285  1.5279  1.4693  0.0050
11077TIP3    H233173   1.277   1.956   3.403  0.3572  1.1121 -0.4936
11078TIP3   OH233174   3.855   3.321   4.919 -0.1691 -0.1882  0.2298
11078TIP3    H133175   3.856   3.326   4.824  0.2170  2.2238  0.3191
11078TIP3    H233176   3.770   3.358   4.945  0.2740  0.4021  0.8654
11079TIP3   OH233177   3.864   1.908   6.664  0.5328  0.0770 -0.4369
11079TIP3    H133178   3.907   1.988   6.695  0.5962 -0.9930  2.6005
11079TIP3    H233179   3.937   1.848   6.644  0.5106 -0.4535  0.9903
11080TIP3   OH233180   1.936   5.938   4.000  0.4334 -0.4462 -0.1005
11080TIP3    H133181   1.976   5.980   4.077  1.7982 -0.1930 -0.9235
11080TIP3    H233182   1.940   5.844   4.020 -0.1760 -0.3363  0.5796
11081TIP3   OH233183   4.678   1.852   1.910  0.0542  0.2131 -0.5224
11081TIP3    H133184   4.679   1.855   2.005 -1.4918  0.1952 -0.4739
11081TIP3    H233185   4.712   1.937   1.882  2.6594 -0.5770 -0.0332
11082TIP3   OH233186   7.009   4.984   0.226 -0.1316  0.2467 -0.3624
11082TIP3    H133187   6.947   5.004   0.156 -0.7522  1.4436  0.4850
11082TIP3    H233188   7.095   4.983   0.182 -0.5914  0.0750 -1.2860
11083TIP3   OH233189   1.464   2.563   6.737  0.4566  0.4388  0.0352
11083TIP3    H133190   1.370   2.547   6.747  0.6728 -0.5030  0.7367
11083TIP3    H233191   1.494   2.584   6.825  0.8313  1.1686 -0.2623
11084TIP3   OH233192   0.887   5.027   6.107  0.4609 -0.6164  0.5251
11084TIP3    H133193   0.979   5.032   6.081  0.2583 -0.1680 -0.1471
11084TIP3    H233194   0.875   5.100   6.167  0.3595 -0.1829 -0.0121
11085TIP3   OH233195   6.379   6.000   4.096 -0.1964 -0.1382  0.1457
11085TIP3    H133196   6.382   5.973   4.004 -1.0245  0.8305 -0.1801
11085TIP3    H233197   6.460   6.049   4.109  0.3906 -1.0910  0.2184
11086TIP3   OH233198   0.783   2.532   3.163 -0.1248  0.1073  0.3460
11086TIP3    H133199   0.756   2.444   3.137 -0.2147 -0.2073  1.4468
11086TIP3    H233200   0.770   2.534   3.258 -1.6388  1.8491  0.1585
11087TIP3   OH233201   4.606   7.730   4.186  0.5666 -0.6444 -0.0236
11087TIP3    H133202   4.612   7.635   4.194 -0.2434 -0.7525 -0.5759
11087TIP3    H233203   4.686   7.755   4.141  0.4012 -1.1659 -0.6242
11088TIP3   OH233204   4.186   4.308   4.161 -0.3819  0.2883 -0.0296
11088TIP3    H133205   4.134   4.240   4.204  1.6867 -1.6903 -0.4615
11088TIP3    H233206   4.240   4.344   4.232 -0.0156  0.0177 -0.1670
11089TIP3   OH233207   6.237   6.296   3.420  0.0642 -0.0893 -0.3734
11089TIP3    H133208   6.233   6.378   3.371 -0.6420  1.4504  2.0649
11089TIP3    H233209   6.206   6.229   3.359 -1.6482  1.8252 -1.7398
11090TIP3   OH233210   1.548   1.225   4.942 -0.4664 -0.2281 -0.5920
11090TIP3    H133211   1.468   1.262   4.904 -0.4185  0.9482  0.3736
11090TIP3    H233212   1.619   1.271   4.898 -0.3500 -0.6172 -0.8078
11091TIP3   OH233213   2.785   0.820   3.720 -0.2925 -0.8486  0.4720
11091TIP3    H133214   2.815   0.822   3.629 -1.3156  0.9389  0.1189
11091TIP3    H233215   2.841   0.883   3.765 -1.7174  0.5362  0.3807
11092TIP3   OH233216   1.943   6.192   3.337  0.0801  0.8348 -0.3508
11092TIP3    H133217   1.852   6.219   3.342 -1.1231 -2.7587  0.0783
11092TIP3    H233218   1.944   6.125   3.268  2.1225 -0.0778  0.4842
11093TIP3   OH233219   6.744   0.814   0.594  0.2437  0.3770  0.0636
11093TIP3    H133220   6.723   0.788   0.505 -0.5003  0.7792  0.1134
11093TIP3    H233221   6.667   0.789   0.646  1.3401 -1.4181  0.9207
11094TIP3   OH233222   1.369  -0.020   6.302  0.0097  0.0988  0.0354
11094TIP3    H133223   1.287  -0.027   6.253 -0.1188  0.4467  0.1954
11094TIP3    H233224   1.357   0.057   6.359  0.0067 -0.5164  0.8865
11095TIP3   OH233225   4.961   7.291   2.281  0.3047  0.3747  0.1546
11095TIP3    H133226   4.865   7.291   2.284  0.2722  1.6543 -0.1973
11095TIP3    H233227   4.982   7.227   2.213 -0.2767 -0.3703  0.6666
11096TIP3   OH233228   5.876   5.756   5.407  0.4623 -0.1196 -0.6754
11096TIP3    H133229   5.948   5.753   5.344 -0.5271  0.3963 -1.8889
11096TIP3    H233230   5.901   5.823   5.470  0.6146  0.7951 -1.6762
11097TIP3   OH233231   3.351   0.393   4.676 -0.2530 -0.2271  0.0774
11097TIP3    H133232   3.260   0.365   4.671 -0.3008 -0.0345 -0.1758
11097TIP3    H233233   3.400   0.313   4.695 -0.6665 -0.0075  2.3612
11098TIP3   OH233234   2.690   5.047   4.822 -0.8299 -0.3133  0.0946
11098TIP3    H133235   2.670   5.122   4.878  2.5498  0.9755 -0.1967
11098TIP3    H233236   2.673   4.971   4.877  1.3949  0.8844  2.6527
11099TIP3   OH233237   2.080   6.512   5.226  0.8997 -0.3457  0.0054
11099TIP3    H133238   2.156   6.485   5.277  0.0791  1.2001  2.1696
11099TIP3    H233239   2.113   6.576   5.164  1.3908  0.3225  0.9400
11100TIP3   OH233240   7.802   5.907   5.712  0.8327  0.0076  0.4352
11100TIP3    H133241   7.743   5.835   5.690  0.2457 -0.0461  2.0701
11100TIP3    H233242   7.788   5.971   5.642  0.8789 -1.1593 -0.6848
11101TIP3   OH233243   1.431   0.268   1.186  0.3767  0.0079 -0.2728
11101TIP3    H133244   1.501   0.320   1.146  0.5253  0.0349  0.0173
11101TIP3    H233245   1.473   0.224   1.260 -0.4638  2.0564  1.5200
11102TIP3   OH233246   2.081   0.209   1.377  0.1869 -0.1661 -0.3314
11102TIP3    H133247   2.073   0.294   1.420 -0.9728 -0.9838  1.1852
11102TIP3    H233248   2.094   0.147   1.449  3.4083 -1.0859 -1.5140
11103TIP3   OH233249   0.197   2.109   1.709  0.0699  0.5991  0.1324
11103TIP3    H133250   0.238   2.152   1.633 -1.0926  2.3819  0.4577
11103TIP3    H233251   0.139   2.043   1.671 -1.3476  2.2150 -0.6677
11104TIP3   OH233252   6.423   0.432   0.807  0.3678  0.5551 -0.2586
11104TIP3    H133253   6.483   0.380   0.753 -0.3269 -2.8564  1.8702
11104TIP3    H233254   6.345   0.445   0.752  0.3637 -1.2466 -0.7433
11105TIP3   OH233255   0.733   3.718   6.427 -0.2596  0.5189 -0.3411
11105TIP3    H133256   0.786   3.780   6.376 -1.9162  0.8584 -1.7364
11105TIP3    H233257   0.656   3.702   6.372 -1.3808 -0.3276  1.4064
11106TIP3   OH233258   0.079   5.384   6.332  0.5567 -0.2775 -0.6241
11106TIP3    H133259   0.059   5.315   6.268  0.7929 -1.6766  0.7290
11106TIP3    H233260   0.134   5.446   6.284  0.9533 -1.4237 -1.7057
11107TIP3   OH233261   4.125   4.986   0.468  0.0134 -0.1724 -0.1037
11107TIP3    H133262   4.145   5.074   0.498 -0.0016  0.6405 -2.3153
11107TIP3    H233263   4.068   4.949   0.537  0.0788  1.4844  0.8840
11108TIP3   OH233264   3.188   4.601   5.504 -0.0445  0.1101 -0.0888
11108TIP3    H133265   3.095   4.597   5.483  0.1483  1.5934 -1.3877
11108TIP3    H233266   3.208   4.515   5.542 -1.6996 -0.6126 -0.7739
11109TIP3   OH233267   0.676   2.335   4.632 -0.0042  0.9302  0.0680
11109TIP3    H133268   0.654   2.260   4.578 -0.2127  0.7447  0.4033
11109TIP3    H233269   0.591   2.365   4.667 -0.1549  2.3989 -1.4399
11110TIP3   OH233270   3.241   6.430   2.404  0.4731 -0.0066 -0.1122
11110TIP3    H133271   3.152   6.449   2.434  0.1802 -1.4683  0.0459
11110TIP3    H233272   3.295   6.435   2.483  0.3284 -0.2333  0.0019
11111TIP3   OH233273   2.218   4.063   6.013 -0.3358 -0.4340 -1.4864
11111TIP3    H133274   2.266   4.126   6.066 -1.3604 -0.2127 -0.7805
11111TIP3    H233275   2.189   3.996   6.075  0.0253 -1.1544 -2.0854
11112TIP3   OH233276   3.601   4.102   1.332  0.2915 -0.3802 -0.1685
11112TIP3    H133277   3.584   4.024   1.279  3.6469 -0.1962 -1.7520
11112TIP3    H233278   3.659   4.071   1.402  1.4887  0.5920 -0.6930
11113TIP3   OH233279   0.424   6.927   1.230  0.6916  0.5796 -0.1197
11113TIP3    H133280   0.448   6.864   1.162 -0.2062  1.3617 -1.1977
11113TIP3    H233281   0.425   7.012   1.186  1.1757  1.2378  1.1307
11114TIP3   OH233282   6.790   0.182   2.017  0.2130  0.1193  0.2136
11114TIP3    H133283   6.766   0.221   2.102 -1.9815 -1.6491  0.4895
11114TIP3    H233284   6.827   0.255   1.967  0.4143  1.4877  2.2431
11115TIP3   OH233285   5.877   2.545   0.703 -0.0106  0.0980 -0.0035
11115TIP3    H133286   5.877   2.619   0.643  0.6637 -1.1570 -1.6062
11115TIP3    H233287   5.968   2.515   0.706  0.2330  0.8495  2.6348
11116TIP3   OH233288   6.089   0.432   4.177 -0.0104 -0.0675 -0.4615
11116TIP3    H133289   6.182   0.438   4.156 -0.0228  2.1509 -0.0855
11116TIP3    H233290   6.065   0.520   4.204 -2.1287 -0.7134 -0.0849
11117TIP3   OH233291   4.758   5.360   6.332  0.0690 -0.1398 -0.0639
11117TIP3    H133292   4.729   5.430   6.390 -0.1484 -1.3807  1.3853
11117TIP3    H233293   4.831   5.319   6.380 -0.3207 -1.3887 -0.5156
11118TIP3   OH233294   2.356   7.592   2.027  0.2580 -0.1056  0.6429
11118TIP3    H133295   2.353   7.520   2.090 -1.5986  1.2032  2.1336
11118TIP3    H233296   2.293   7.656   2.059  1.5951  2.0874 -0.8084
11119TIP3   OH233297   6.788   6.679   5.557  0.2507  0.4992  0.5524
11119TIP3    H133298   6.845   6.738   5.608  0.8802  0.4228 -0.0493
11119TIP3    H233299   6.842   6.653   5.482 -0.2075 -0.4316  0.5368
11120TIP3   OH233300   3.945   7.186   2.298  0.0137  0.1774  0.1739
11120TIP3    H133301   3.873   7.125   2.314 -0.9865  1.1436 -0.4855
11120TIP3    H233302   4.014   7.132   2.262 -0.5226 -0.7120  0.4434
11121TIP3   OH233303   1.194   3.668   6.689  0.1783  0.0213  0.0963
11121TIP3    H133304   1.277   3.704   6.659 -0.6923  1.4246 -0.6799
11121TIP3    H233305   1.176   3.595   6.629  0.9927 -0.5245  0.4901
11122TIP3   OH233306   5.413   0.566   4.204  0.3696  0.3098 -0.6074
11122TIP3    H133307   5.348   0.501   4.179  0.9421 -0.6166  0.2364
11122TIP3    H233308   5.368   0.650   4.197 -1.5393 -0.4050  1.7346
11123TIP3   OH233309   4.861   1.615   3.848  0.4839 -0.1325  0.0653
11123TIP3    H133310   4.792   1.552   3.870  0.4500 -0.6989 -1.5275
11123TIP3    H233311   4.940   1.562   3.839  0.9270  0.3757  0.8628
11124TIP3   OH233312   6.774   0.330   2.259 -0.2487 -0.3569 -0.2855
11124TIP3    H133313   6.789   0.250   2.309 -1.1881 -0.2541  0.1949
11124TIP3    H233314   6.813   0.400   2.312  0.0175 -0.4221 -0.3967
11125TIP3   OH233315   8.118   5.344   5.013 -0.1626  0.4134  0.7687
11125TIP3    H133316   8.201   5.353   5.060 -0.6837  0.4170  1.7265
11125TIP3    H233317   8.071   5.276   5.061 -0.0762 -0.7609 -0.7276
11126TIP3   OH233318   1.373   7.948   3.571 -0.4665 -0.3331 -0.4126
11126TIP3    H133319   1.322   7.879   3.528  0.5651 -1.7189  0.5187
11126TIP3    H233320   1.345   7.945   3.662 -0.4047  0.4916 -0.3611
11127TIP3   OH233321   5.449   2.732   2.015  0.2733 -0.8786  0.2833
11127TIP3    H133322   5.464   2.663   2.079 -2.3674 -0.1704  1.7954
11127TIP3    H233323   5.438   2.686   1.932 -0.2502 -2.1627  1.0422
11128TIP3   OH233324   8.356   0.835   2.153 -0.1339 -0.0993  0.2674
11128TIP3    H133325   8.327   0.745   2.141 -0.2265 -0.0695  0.2700
11128TIP3    H233326   8.450   0.832   2.135 -0.0923 -0.2428  0.5127
11129TIP3   OH233327   6.771   6.132   1.156  0.2815 -0.1296 -0.2009
11129TIP3    H133328   6.731   6.085   1.083 -3.5474  1.6377  0.5059
11129TIP3    H233329   6.813   6.208   1.115 -0.2598 -0.1031 -0.7255
11130TIP3   OH233330   1.821   0.069   1.014 -0.9250  0.5133 -0.5654
11130TIP3    H133331   1.740   0.035   1.050 -0.6296 -2.0825 -2.0487
11130TIP3    H233332   1.793   0.126   0.942 -1.4460  0.4045 -0.4536
11131TIP3   OH233333   5.328   5.532   1.558  0.2110 -0.2803 -0.1160
11131TIP3    H133334   5.320   5.613   1.508 -0.3549 -0.3466 -0.1348
11131TIP3    H233335   5.420   5.507   1.548  0.6763  0.9470  0.8112
11132TIP3   OH233336   0.520   2.341   2.162  0.3308  0.7225  0.2268
11132TIP3    H133337   0.599   2.335   2.108 -0.4585 -1.9062 -0.7840
11132TIP3    H233338   0.467   2.408   2.121  0.0892 -0.6850 -1.9026
11133TIP3   OH233339   3.844   4.413   0.675 -0.6763  0.0222  0.8515
11133TIP3    H133340   3.931   4.382   0.649 -0.5215 -0.2728  1.6975
11133TIP3    H233341   3.812   4.461   0.598  0.1833  0.0388  0.4918
11134TIP3   OH233342   5.638   1.624   2.220  0.1245 -0.0623  0.6814
11134TIP3    H133343   5.695   1.684   2.172  0.2361 -0.0926  0.7765
11134TIP3    H233344   5.687   1.601   2.299  0.0517 -0.2213  0.6813
11135TIP3   OH233345   5.070   4.636   4.306  0.2318 -0.0562  0.0642
11135TIP3    H133346   5.126   4.708   4.334  0.2907  0.6662 -1.7653
11135TIP3    H233347   5.051   4.655   4.214 -1.7191 -1.1109  0.1874
11136TIP3   OH233348   1.880   1.606   0.893 -0.2585 -0.4148  0.5197
11136TIP3    H133349   1.823   1.673   0.931 -2.7022 -2.7418  1.3207
11136TIP3    H233350   1.853   1.602   0.801 -1.6151 -1.5787  0.9176
11137TIP3   OH233351   6.354   7.448   3.944 -0.3795  0.5809 -0.0416
11137TIP3    H133352   6.330   7.406   4.027 -1.4402  1.0528 -0.1065
11137TIP3    H233353   6.450   7.448   3.945 -0.3681 -0.4753  0.6493
11138TIP3   OH233354   7.824   6.975   3.491  0.0320 -0.0840 -0.4887
11138TIP3    H133355   7.857   6.894   3.529 -1.4068 -0.4505  0.0683
11138TIP3    H233356   7.896   7.009   3.438  0.8762 -1.3814 -0.2002
11139TIP3   OH233357   4.314   2.808   5.695 -0.4511 -0.3971 -0.0124
11139TIP3    H133358   4.259   2.820   5.618  0.8696  1.4080 -0.7300
11139TIP3    H233359   4.390   2.759   5.664  1.2572  2.3858 -0.5170
11140TIP3   OH233360   5.073   6.065   5.076  0.0758  0.1839 -0.2643
11140TIP3    H133361   5.029   6.116   5.008  0.0345 -0.1784 -0.5122
11140TIP3    H233362   5.076   6.124   5.151 -1.8433 -0.1690  0.1335
11141TIP3   OH233363   2.283   7.893   2.925 -0.4499 -0.0721  0.6160
11141TIP3    H133364   2.332   7.820   2.886 -1.4510 -0.0499 -0.7734
11141TIP3    H233365   2.208   7.851   2.967 -2.8620  0.2227 -2.9658
11142TIP3   OH233366   1.218   5.366   1.511 -0.0464 -0.0985 -0.0660
11142TIP3    H133367   1.134   5.387   1.471  0.0535  0.3974 -0.0242
11142TIP3    H233368   1.228   5.431   1.581  0.9872  0.7089 -0.9321
11143TIP3   OH233369   5.115   4.227   3.772  0.3907 -0.1568  0.1123
11143TIP3    H133370   5.110   4.285   3.848 -0.4780 -2.5620  2.0509
11143TIP3    H233371   5.174   4.157   3.800  0.8026 -0.6423 -1.8274
11144TIP3   OH233372   0.815   5.910   0.194 -0.2731 -0.5793  0.1908
11144TIP3    H133373   0.895   5.935   0.240  0.0349  1.2225 -1.2464
11144TIP3    H233374   0.845   5.860   0.118 -0.6172 -1.1061  0.3925
11145TIP3   OH233375   1.884   4.347   4.087 -0.1541 -0.3255  0.3094
11145TIP3    H133376   1.813   4.400   4.051  0.4316 -0.2076 -0.7094
11145TIP3    H233377   1.962   4.401   4.077  0.1019 -0.4483  1.4334
11146TIP3   OH233378   0.105   6.399   4.733  0.0147  0.0667 -0.4893
11146TIP3    H133379   0.132   6.349   4.809 -2.0858  0.7357  0.7691
11146TIP3    H233380   0.025   6.356   4.702  0.4922  0.1724 -1.9832
11147TIP3   OH233381   4.263   2.921   2.931 -0.3482  0.5423  0.2810
11147TIP3    H133382   4.172   2.890   2.924 -0.6168  1.5809 -1.4783
11147TIP3    H233383   4.290   2.896   3.019 -2.2730  0.0114  0.7739
11148TIP3   OH233384   6.881   4.497   5.427  0.1656  0.1478 -0.0475
11148TIP3    H133385   6.956   4.518   5.372  0.2826 -0.9609 -0.3258
11148TIP3    H233386   6.876   4.569   5.490  0.2805  1.2220 -1.2321
11149TIP3   OH233387   3.649   1.874   2.926  0.7923 -0.0429 -0.3092
11149TIP3    H133388   3.739   1.849   2.949  0.3410 -1.3304  0.1756
11149TIP3    H233389   3.658   1.934   2.852  2.0183 -0.8020 -0.8023
11150TIP3   OH233390   4.634   4.466   0.462  0.1198  0.6265  0.1569
11150TIP3    H133391   4.692   4.390   0.463 -1.4485 -0.6274  0.6977
11150TIP3    H233392   4.547   4.429   0.449 -0.5671  2.4552 -0.7747
11151TIP3   OH233393   4.628   4.161   5.422 -0.4165  0.1992 -0.5365
11151TIP3    H133394   4.696   4.094   5.417 -0.4370  0.1514 -0.2167
11151TIP3    H233395   4.564   4.136   5.356  1.4969  2.1025 -3.3769
11152TIP3   OH233396   4.041   3.924   5.256 -0.2790 -0.1656  0.5008
11152TIP3    H133397   4.031   3.997   5.317 -0.1833 -0.2095  0.5696
11152TIP3    H233398   3.953   3.909   5.222 -0.5467 -0.8609  1.4597
11153TIP3   OH233399   0.135   7.327   1.354 -0.0122  0.2096  0.3780
11153TIP3    H133400   0.210   7.385   1.345  1.3050 -1.4837 -0.1461
11153TIP3    H233401   0.174   7.241   1.370 -1.8585 -0.7295  0.0383
11154TIP3   OH233402   0.985   5.195   4.285  0.9910 -0.1735 -0.0813
11154TIP3    H133403   1.017   5.161   4.368 -0.6488  0.2819  0.7825
11154TIP3    H233404   0.981   5.290   4.299 -1.3184 -0.2349  0.1475
11155TIP3   OH233405   2.457   6.096   1.349 -0.0300 -0.1576 -0.0239
11155TIP3    H133406   2.406   6.145   1.285  0.6858  1.4458  0.5783
11155TIP3    H233407   2.478   6.160   1.417 -0.4617 -1.7045  1.6603
11156TIP3   OH233408   0.487   1.667   1.617 -0.1311  0.1232 -0.4391
11156TIP3    H133409   0.456   1.608   1.685  0.7715  0.1517  0.0106
11156TIP3    H233410   0.422   1.659   1.546  0.1887 -1.7121 -0.5638
11157TIP3   OH233411   3.745   2.056   1.096  0.3781 -0.0096  0.2802
11157TIP3    H133412   3.819   2.110   1.123 -1.4571  1.7485  2.2231
11157TIP3    H233413   3.707   2.024   1.178 -0.2388 -2.0143 -0.7246
11158TIP3   OH233414   6.609   6.128   4.163  0.2523 -0.2861 -0.2692
11158TIP3    H133415   6.595   6.068   4.236  0.7609  0.8825  0.8305
11158TIP3    H233416   6.698   6.162   4.176 -0.6853  2.1726  0.3078
11159TIP3   OH233417   1.129   7.508   2.717  0.0893  0.0044 -0.1604
11159TIP3    H133418   1.057   7.447   2.704  0.0867  0.1961 -1.1275
11159TIP3    H233419   1.179   7.472   2.790 -0.5217 -0.5710 -0.0222
11160TIP3   OH233420   2.934   6.053   2.311 -0.1889 -0.1372  0.1273
11160TIP3    H133421   3.006   6.000   2.344 -1.4236 -1.2195  1.1995
11160TIP3    H233422   2.858   6.026   2.363 -1.3829  0.9474 -0.9649
11161TIP3   OH233423   5.600   0.505   6.773  0.2553  0.1600 -0.1495
11161TIP3    H133424   5.507   0.508   6.749 -0.0315 -0.2884  0.8367
11161TIP3    H233425   5.633   0.424   6.734 -0.0825 -0.3134  0.5315
11162TIP3   OH233426   2.810   4.850   3.050  0.9337  0.0917  0.0076
11162TIP3    H133427   2.736   4.792   3.065 -1.0990  2.8630  1.7123
11162TIP3    H233428   2.815   4.858   2.955 -3.0131  2.0318 -0.2206
11163TIP3   OH233429   7.388   5.946   2.352  0.0509  0.3072  0.6132
11163TIP3    H133430   7.401   6.034   2.386  0.7272 -0.0905  1.4340
11163TIP3    H233431   7.428   5.948   2.264  0.5164  0.6842  0.8273
11164TIP3   OH233432   3.285   7.211   0.012  0.7582  0.0370 -0.4229
11164TIP3    H133433   3.286   7.169   0.098 -0.6370 -1.6601 -1.1604
11164TIP3    H233434   3.246   7.297   0.027  1.4795  0.1713  0.7864
11165TIP3   OH233435   1.641   5.421   1.850 -0.1843  0.2746 -0.1694
11165TIP3    H133436   1.599   5.507   1.846  1.1647  0.9414 -0.5613
11165TIP3    H233437   1.588   5.366   1.793 -1.4452  0.6757  0.5988
11166TIP3   OH233438   0.130   3.984   1.555  0.0999 -0.0944 -0.0530
11166TIP3    H133439   0.162   4.065   1.595  0.2228 -0.6083  0.9115
11166TIP3    H233440   0.055   3.959   1.608  0.6942 -1.1652  0.3085
11167TIP3   OH233441   2.540   5.953   5.820  0.1882  0.1275 -0.0962
11167TIP3    H133442   2.587   5.881   5.864  0.5989 -0.0684 -0.8425
11167TIP3    H233443   2.449   5.940   5.845  0.2866 -0.5323 -0.0467
11168TIP3   OH233444   2.598   4.712   3.815  0.5551  0.1562 -0.1169
11168TIP3    H133445   2.505   4.717   3.837  0.4432  0.0882 -0.5828
11168TIP3    H233446   2.603   4.738   3.723  0.8459 -1.0197 -0.4509
11169TIP3   OH233447   6.815   6.094   6.211  0.4476  0.1483 -0.4204
11169TIP3    H133448   6.882   6.161   6.226 -1.7059  2.5753 -0.9142
11169TIP3    H233449   6.773   6.082   6.296  0.1296  0.2114 -0.5687
11170TIP3   OH233450   2.662   2.480   1.556 -0.6922 -0.1246  0.1823
11170TIP3    H133451   2.608   2.449   1.628 -0.9058 -0.2783 -0.0441
11170TIP3    H233452   2.713   2.404   1.529  1.3087  0.5007  1.8346
11171TIP3   OH233453   3.810   5.891   0.365 -0.2241  0.2213 -0.3977
11171TIP3    H133454   3.749   5.825   0.399  1.8790 -2.2242 -1.0787
11171TIP3    H233455   3.881   5.893   0.429  0.4211  0.7332 -1.1128
11172TIP3   OH233456   1.916   6.834   0.032  0.0652 -0.3467  0.1662
11172TIP3    H133457   1.887   6.882  -0.046 -0.9141 -1.7903 -0.4103
11172TIP3    H233458   1.865   6.873   0.104 -0.2056 -0.0550 -0.1779
11173TIP3   OH233459   3.621   1.219   6.770  0.1515  0.4982  0.2346
11173TIP3    H133460   3.581   1.133   6.783  0.6219  0.2223 -0.0805
11173TIP3    H233461   3.556   1.270   6.723  0.2798 -0.0419 -0.5462
11174TIP3   OH233462   7.653   7.242   5.529 -0.5595  0.0453  0.3618
11174TIP3    H133463   7.692   7.289   5.602 -0.9068 -0.7648  1.0878
11174TIP3    H233464   7.561   7.232   5.552 -0.8825  0.6019 -0.6291
11175TIP3   OH233465   7.256   4.593   0.248  0.1939  0.5701 -0.1125
11175TIP3    H133466   7.196   4.659   0.283  1.5001  1.9022 -0.2759
11175TIP3    H233467   7.291   4.633   0.168 -0.2329 -1.0330 -1.1437
11176TIP3   OH233468   1.938   2.816   1.296  0.4494  0.3971 -0.0532
11176TIP3    H133469   2.007   2.759   1.331 -0.8200 -0.4549  1.1329
11176TIP3    H233470   1.913   2.872   1.369  0.5674  1.4206 -0.7705
11177TIP3   OH233471   5.554   2.435   4.689  0.1791  0.4183 -0.4080
11177TIP3    H133472   5.636   2.386   4.677 -1.0942 -1.8046 -0.5734
11177TIP3    H233473   5.507   2.423   4.606 -0.8111  0.6532  0.1061
11178TIP3   OH233474   6.285   3.180   0.857  0.3172  0.7262 -0.0545
11178TIP3    H133475   6.339   3.113   0.899  0.0661  0.9228  0.5961
11178TIP3    H233476   6.343   3.256   0.849  0.0477  1.0505  0.9596
11179TIP3   OH233477   5.625   2.993   1.117 -0.2568  0.2570  0.0336
11179TIP3    H133478   5.569   2.960   1.046 -1.7617  1.0472  0.7974
11179TIP3    H233479   5.636   3.086   1.098  0.1921  0.2586  0.2901
11180TIP3   OH233480   1.313   5.429   3.926  0.4956  0.1618  0.2763
11180TIP3    H133481   1.234   5.414   3.874  1.1743  0.8437 -0.9780
11180TIP3    H233482   1.281   5.470   4.007 -0.3291  1.6627 -0.7707
11181TIP3   OH233483   6.955   2.620   3.714 -0.2032  0.1114 -0.1013
11181TIP3    H133484   6.942   2.559   3.641 -1.5705  0.4213 -0.1550
11181TIP3    H233485   6.866   2.650   3.735  0.3503  1.3623  0.5370
11182TIP3   OH233486   6.920   0.055   5.288  0.1021 -0.1916  0.0962
11182TIP3    H133487   6.867   0.007   5.224 -0.6148 -2.3857  2.1813
11182TIP3    H233488   7.005   0.066   5.245 -0.7845 -0.2015 -1.7804
11183TIP3   OH233489   2.457   2.064   4.656 -0.3379  0.5725 -0.0957
11183TIP3    H133490   2.441   2.082   4.563  1.4217  0.6859 -0.4141
11183TIP3    H233491   2.529   2.001   4.657  0.0265  0.9649  1.1882
11184TIP3   OH233492   7.027   1.836   4.196  0.0843 -0.0693 -0.0853
11184TIP3    H133493   7.009   1.884   4.276 -1.2526  1.7016 -1.3553
11184TIP3    H233494   6.982   1.886   4.127  0.4508 -1.9675 -1.8246
11185TIP3   OH233495   7.042   2.858   6.856  0.1926 -0.5413 -0.6121
11185TIP3    H133496   7.071   2.842   6.767  0.9366 -0.7772 -0.3357
11185TIP3    H233497   7.119   2.842   6.910 -0.3162 -0.6583  0.1007
11186TIP3   OH233498   3.553   7.558   4.357 -0.3291  0.0671  0.5412
11186TIP3    H133499   3.631   7.543   4.411 -0.6650 -0.7935  0.8049
11186TIP3    H233500   3.574   7.635   4.305  0.4350  0.2451  1.1056
11187TIP3   OH233501   5.520   4.344   6.170 -0.0985 -0.3129 -0.4712
11187TIP3    H133502   5.545   4.303   6.087 -0.1561  0.6957 -1.0146
11187TIP3    H233503   5.537   4.438   6.156 -3.5497  0.4168 -0.7185
11188TIP3   OH233504   4.914   2.355   6.820  0.4333 -0.4935 -0.0683
11188TIP3    H133505   5.007   2.350   6.798  0.1517 -0.2385 -1.4121
11188TIP3    H233506   4.902   2.294   6.892  1.8034  0.1125  0.6992
11189TIP3   OH233507   6.467   5.477   3.817  0.2847  0.3364  0.1425
11189TIP3    H133508   6.561   5.465   3.827  0.2515 -0.2587 -0.2241
11189TIP3    H233509   6.456   5.505   3.726 -0.0656 -1.7062 -0.4885
11190TIP3   OH233510   5.867   1.749   2.362 -0.2896  0.0622 -0.1138
11190TIP3    H133511   5.832   1.827   2.405  0.2313  0.3339 -0.1711
11190TIP3    H233512   5.962   1.758   2.369 -0.2229 -0.7213  0.1413
11191TIP3   OH233513   5.057   7.147   2.605  0.1926 -0.5277  0.1222
11191TIP3    H133514   5.054   7.066   2.656  0.1791 -1.5176 -1.4187
11191TIP3    H233515   4.966   7.174   2.597  0.0905 -1.0316 -0.4154
11192TIP3   OH233516   0.328   0.922   2.672 -0.1128 -0.3425 -0.2763
11192TIP3    H133517   0.241   0.892   2.696  0.2094 -1.8038 -0.8767
11192TIP3    H233518   0.386   0.884   2.738  0.2432 -0.6689 -0.7701
11193TIP3   OH233519   3.934   0.100   1.860 -0.7117  0.2203 -0.4062
11193TIP3    H133520   4.019   0.079   1.898 -0.4791  1.0969 -0.4347
11193TIP3    H233521   3.882   0.133   1.933 -0.6296  0.8381 -0.6230
11194TIP3   OH233522   8.093   2.409   4.640  0.1835  0.1779  0.2486
11194TIP3    H133523   8.092   2.413   4.545  0.5768 -0.7808  0.1936
11194TIP3    H233524   8.153   2.479   4.666 -1.3675  1.7082 -0.0930
11195TIP3   OH233525   6.673   3.983   4.857 -0.0277  0.0152  0.1158
11195TIP3    H133526   6.578   3.983   4.867 -0.0641 -2.6652  0.4704
11195TIP3    H233527   6.707   3.973   4.945  0.5213 -0.4075 -0.1360
11196TIP3   OH233528   6.616   3.252   0.809  0.6218 -0.4860 -0.6539
11196TIP3    H133529   6.629   3.174   0.864 -0.3854 -0.4552 -0.3343
11196TIP3    H233530   6.679   3.316   0.842  0.1612 -0.5310  0.3764
11197TIP3   OH233531   2.200   4.380   0.131  0.0773 -0.1743  0.0181
11197TIP3    H133532   2.176   4.388   0.039  1.3210 -1.7940 -0.4956
11197TIP3    H233533   2.259   4.453   0.148 -1.4209  1.0879  0.0211
11198TIP3   OH233534   1.123   1.972   5.101 -0.0503  0.1130 -0.2812
11198TIP3    H133535   1.101   2.015   5.184 -0.7413 -0.4152 -0.1711
11198TIP3    H233536   1.201   1.920   5.120  0.6218  1.0944 -0.3454
11199TIP3   OH233537   7.728   3.275   3.987 -0.2925 -0.0100 -0.6707
11199TIP3    H133538   7.773   3.267   4.071 -3.5005 -1.4283  1.1130
11199TIP3    H233539   7.688   3.362   3.988  0.7498  0.4981 -1.3875
11200TIP3   OH233540   4.425   5.904   2.545  0.4495  0.7315 -0.5140
11200TIP3    H133541   4.360   5.973   2.552  0.2320  0.5034 -0.2786
11200TIP3    H233542   4.378   5.824   2.569  0.6598  0.4782 -0.9245
11201TIP3   OH233543   7.314   7.485   1.751  0.4589 -0.2775 -0.6323
11201TIP3    H133544   7.381   7.526   1.696  2.5425  0.0933  1.9495
11201TIP3    H233545   7.302   7.546   1.824 -1.9375 -0.8719 -0.4419
11202TIP3   OH233546   2.572   7.646   5.624 -0.7534 -0.3768  0.1328
11202TIP3    H133547   2.639   7.715   5.628  0.3202 -1.3563 -0.4364
11202TIP3    H233548   2.583   7.597   5.705 -1.9305  0.4513  0.8298
11203TIP3   OH233549   3.782   0.708   3.123  0.7151 -0.1003  0.2373
11203TIP3    H133550   3.857   0.762   3.147  1.5343 -0.5665 -1.1863
11203TIP3    H233551   3.819   0.621   3.106 -0.2339 -0.4890  0.0841
11204TIP3   OH233552   2.048   4.731   2.522  0.7588  0.1131  0.2307
11204TIP3    H133553   2.016   4.713   2.611 -1.3213 -1.7127 -0.7924
11204TIP3    H233554   2.098   4.812   2.531  1.7396 -0.7002  3.2907
11205TIP3   OH233555   2.200   7.612   4.424 -0.3064  0.1245 -0.2858
11205TIP3    H133556   2.224   7.528   4.463 -0.5704 -0.2780 -0.9613
11205TIP3    H233557   2.129   7.645   4.479  0.4015  0.3440  0.5126
11206TIP3   OH233558   3.244   6.167   1.392 -0.2138  0.1807  0.0063
11206TIP3    H133559   3.262   6.260   1.381 -1.0155  0.2372 -1.0993
11206TIP3    H233560   3.154   6.156   1.360  0.2845 -1.1695 -1.0450
11207TIP3   OH233561   2.871   2.294   4.377  0.3173  0.4363  0.2182
11207TIP3    H133562   2.867   2.334   4.464 -0.2539  0.1741  0.3172
11207TIP3    H233563   2.956   2.321   4.342  0.5209  0.6026  0.8302
11208TIP3   OH233564   6.093   3.963   2.410 -0.0365 -0.4298 -0.0216
11208TIP3    H133565   6.001   3.989   2.414 -0.0908 -0.4390 -0.9783
11208TIP3    H233566   6.092   3.882   2.360  0.6749  0.5879 -1.7630
11209TIP3   OH233567   0.620   0.993   1.548  0.4644 -0.2246  0.1971
11209TIP3    H133568   0.573   0.975   1.467  0.2484 -2.0885  0.7020
11209TIP3    H233569   0.712   0.999   1.522  0.4587 -1.3593 -0.1241
11210TIP3   OH233570   3.736   2.962   6.357  0.4195  0.6501 -0.3550
11210TIP3    H133571   3.689   3.020   6.297  2.3565  1.9212 -0.7307
11210TIP3    H233572   3.826   2.994   6.357  0.9821 -0.7031  1.5436
11211TIP3   OH233573   2.523   4.600   4.467 -0.2360 -0.1846 -0.4072
11211TIP3    H133574   2.587   4.529   4.475  2.0764  1.7068 -0.7670
11211TIP3    H233575   2.449   4.573   4.521  0.9760 -2.4030  0.2365
11212TIP3   OH233576   3.993   4.854   0.681  0.2395 -0.2485 -0.0067
11212TIP3    H133577   3.909   4.849   0.726  0.6784  0.2941  0.8978
11212TIP3    H233578   4.057   4.869   0.750  0.8678  1.2217 -0.8589
11213TIP3   OH233579   0.501   3.242   5.449 -0.4140 -0.2476  0.3782
11213TIP3    H133580   0.444   3.201   5.384  0.0727  2.2040 -1.7118
11213TIP3    H233581   0.453   3.319   5.478  0.7898  0.5145  0.4068
11214TIP3   OH233582   3.882   5.516   3.089 -0.0168  0.1424  0.5494
11214TIP3    H133583   3.833   5.504   3.170 -0.2203  0.7040  0.5159
11214TIP3    H233584   3.973   5.508   3.115 -0.0426  1.1053  0.9871
11215TIP3   OH233585   4.680   6.823   4.210 -0.1517  0.7086  0.1372
11215TIP3    H133586   4.627   6.770   4.150 -2.6250  2.8852  0.2433
11215TIP3    H233587   4.661   6.787   4.297 -0.6660  0.8484  0.0823
11216TIP3   OH233588   7.850   0.305   4.467  0.0375  0.1841 -0.2498
11216TIP3    H133589   7.826   0.243   4.535 -0.2133 -0.1028 -0.5926
11216TIP3    H233590   7.881   0.251   4.394 -1.3741  0.3588 -1.0304
11217TIP3   OH233591   1.236   2.793   0.966 -0.3721 -0.2753  0.0894
11217TIP3    H133592   1.237   2.804   0.870  0.4740 -2.0463 -0.1311
11217TIP3    H233593   1.154   2.747   0.984 -1.9602  2.4765  0.5990
11218TIP3   OH233594   1.541   5.006   1.214 -0.2498  0.1945 -0.0640
11218TIP3    H133595   1.629   4.968   1.211 -0.3765 -0.0712 -1.1435
11218TIP3    H233596   1.485   4.940   1.172 -0.9029  0.5175  0.2785
11219TIP3   OH233597   3.091   2.236   4.217  0.0273 -0.0590  0.1478
11219TIP3    H133598   3.063   2.197   4.134  0.5264 -1.3046  0.5470
11219TIP3    H233599   3.152   2.305   4.191 -0.8490  0.4729 -0.5706
11220TIP3   OH233600   7.639   3.642   4.140  0.2901 -0.1013 -0.9121
11220TIP3    H133601   7.575   3.665   4.072  0.7751  0.7432 -1.1020
11220TIP3    H233602   7.627   3.708   4.208  1.6615  0.7565 -1.4341
11221TIP3   OH233603   4.077   0.364   6.499 -0.2500 -0.4061  0.5971
11221TIP3    H133604   3.996   0.394   6.458  0.1782 -0.4965 -0.3259
11221TIP3    H233605   4.055   0.355   6.592 -0.6075  2.0877  0.8190
11222TIP3   OH233606   0.371   5.855   4.808 -0.5392  0.0676 -0.2161
11222TIP3    H133607   0.295   5.819   4.854 -1.2746 -0.1550 -1.5438
11222TIP3    H233608   0.343   5.861   4.717  0.1996  2.2353 -0.3764
11223TIP3   OH233609   0.382   6.990   0.569 -0.5453 -0.3144 -0.2004
11223TIP3    H133610   0.472   7.024   0.565 -0.4056 -0.7333 -0.8923
11223TIP3    H233611   0.354   6.987   0.477 -1.5344  0.4927  0.0565
11224TIP3   OH233612   5.451   1.703   4.673  0.0955 -0.3682  0.0891
11224TIP3    H133613   5.384   1.681   4.738 -0.9984  0.2164 -0.8204
11224TIP3    H233614   5.479   1.792   4.696 -1.7428  0.6559 -1.3786
11225TIP3   OH233615   6.294   3.750   5.943  0.3178  0.0743  0.0300
11225TIP3    H133616   6.389   3.760   5.957  0.4460  0.6860 -1.1118
11225TIP3    H233617   6.265   3.838   5.918 -0.3817 -0.3138 -0.5521
11226TIP3   OH233618   2.481   0.090   2.791 -0.1116 -0.2323  0.4524
11226TIP3    H133619   2.539   0.122   2.723 -0.1111 -0.9453  0.1087
11226TIP3    H233620   2.399   0.070   2.746 -0.2396 -0.3388  0.7293
11227TIP3   OH233621   0.067   1.463   1.380  0.1765 -0.0958  0.0639
11227TIP3    H133622   0.044   1.472   1.287  2.6174 -0.6172 -0.6571
11227TIP3    H233623  -0.003   1.409   1.416  0.4742 -2.1455 -2.1258
11228TIP3   OH233624   7.609   5.688   3.990 -0.0553  0.5099  0.4331
11228TIP3    H133625   7.613   5.600   4.027  0.6011  0.2604 -0.1953
11228TIP3    H233626   7.574   5.742   4.060 -0.2157 -0.2086  0.9167
11229TIP3   OH233627   3.782   6.688   4.782  0.1926 -0.5207 -0.0133
11229TIP3    H133628   3.835   6.624   4.830  0.1142 -1.1992 -0.7935
11229TIP3    H233629   3.698   6.689   4.828  0.5923 -0.0751  0.7184
11230TIP3   OH233630   7.214   6.512   3.854  0.1045  0.4146  0.3072
11230TIP3    H133631   7.253   6.593   3.887  0.1828  0.8482 -0.8116
11230TIP3    H233632   7.124   6.536   3.833 -0.4447 -0.2795  1.7327
11231TIP3   OH233633   2.275   4.008   3.354 -0.0024  0.4885  0.4360
11231TIP3    H133634   2.346   3.954   3.321 -1.3020 -0.1377 -1.5024
11231TIP3    H233635   2.220   3.948   3.404 -1.0358  0.1187 -1.0774
11232TIP3   OH233636   0.547   4.223   0.149 -0.0495 -0.2214 -0.3114
11232TIP3    H133637   0.489   4.255   0.080  0.8765  0.5564 -0.7505
11232TIP3    H233638   0.558   4.297   0.208  1.4108  0.0308 -0.8623
11233TIP3   OH233639   4.325   7.397   1.967 -0.3133 -0.4130  0.5730
11233TIP3    H133640   4.336   7.350   1.885 -0.9542 -2.7638  1.7626
11233TIP3    H233641   4.284   7.480   1.942  1.0415 -0.3287 -1.6197
11234TIP3   OH233642   0.961   1.615   6.423  0.0388 -0.2970 -0.6965
11234TIP3    H133643   0.928   1.548   6.482 -0.3285  0.4547 -0.0374
11234TIP3    H233644   0.922   1.593   6.338 -0.3592 -0.7170 -0.4119
11235TIP3   OH233645   1.865   6.444   2.474  0.3506 -0.0901 -0.1783
11235TIP3    H133646   1.805   6.515   2.498  0.0623 -0.5918  0.6319
11235TIP3    H233647   1.882   6.398   2.556  1.5832 -0.1690 -0.4612
11236TIP3   OH233648   3.528   2.096   0.273  0.1250  0.4416 -0.0037
11236TIP3    H133649   3.462   2.137   0.217  0.7008  1.4855  0.0568
11236TIP3    H233650   3.580   2.043   0.212 -1.6426 -1.6356  0.1663
11237TIP3   OH233651   7.551   5.873   2.599  0.7713 -0.0247 -0.6077
11237TIP3    H133652   7.599   5.952   2.625  1.9090 -0.8800 -0.0061
11237TIP3    H233653   7.521   5.892   2.510  3.0075  0.2440 -1.3746
11238TIP3   OH233654   2.187   0.307   3.906 -1.1616 -0.0425 -0.6381
11238TIP3    H133655   2.126   0.234   3.917 -0.7664 -0.4571 -1.1694
11238TIP3    H233656   2.156   0.373   3.969 -0.2957 -1.4543  1.3667
11239TIP3   OH233657   5.190   5.803   3.834  0.7197 -0.0257  0.8350
11239TIP3    H133658   5.227   5.891   3.826 -0.7990  0.5771 -0.0856
11239TIP3    H233659   5.148   5.803   3.920  1.1851 -0.0393  1.0634
11240TIP3   OH233660   0.675   3.897   4.257 -0.3132  0.0043  0.3036
11240TIP3    H133661   0.755   3.938   4.224 -0.0748 -0.5807  0.1587
11240TIP3    H233662   0.705   3.823   4.308 -0.8098 -1.4023 -1.3586
11241TIP3   OH233663   5.767   6.116   4.212 -0.1795  0.3350  0.8111
11241TIP3    H133664   5.799   6.162   4.290  1.1072  2.1456 -0.6671
11241TIP3    H233665   5.719   6.183   4.164 -0.5250 -0.6130 -0.1941
11242TIP3   OH233666   7.574   4.435   0.572  0.4604 -0.6993  0.0018
11242TIP3    H133667   7.643   4.501   0.567  0.6515 -0.9663 -0.9648
11242TIP3    H233668   7.619   4.353   0.591  0.2315 -0.5881  1.0958
11243TIP3   OH233669   2.479   4.421   5.593 -0.0000  0.3284  0.7084
11243TIP3    H133670   2.386   4.438   5.583 -0.2656 -1.6855 -0.9316
11243TIP3    H233671   2.484   4.345   5.651  0.4389 -0.9563 -0.9286
11244TIP3   OH233672   0.341   6.293   3.387  0.0314 -0.0201 -0.2428
11244TIP3    H133673   0.272   6.257   3.332 -0.2508  0.3363 -0.1272
11244TIP3    H233674   0.309   6.283   3.476 -0.0842  0.5725 -0.2134
11245TIP3   OH233675   2.542   6.835   1.763 -0.1477 -0.3020  0.0879
11245TIP3    H133676   2.564   6.901   1.698  2.4874 -1.1744 -0.0136
11245TIP3    H233677   2.450   6.853   1.785 -0.2859  1.7345 -1.7953
11246TIP3   OH233678   0.798   7.030   5.356  0.1504 -0.5745 -0.0528
11246TIP3    H133679   0.764   7.118   5.368  1.0237 -0.1371 -0.7486
11246TIP3    H233680   0.848   7.033   5.275  2.2631 -1.0640  1.1521
11247TIP3   OH233681   7.960   4.142   0.094  0.2003 -0.1111 -0.0470
11247TIP3    H133682   7.955   4.227   0.137  2.9594 -0.1622  0.5943
11247TIP3    H233683   7.869   4.113   0.085 -0.6804  1.8228  1.8604
11248TIP3   OH233684   6.055   2.182   1.655 -0.1833 -0.0561 -0.4245
11248TIP3    H133685   6.002   2.261   1.650  0.2555  0.2045 -1.3991
11248TIP3    H233686   6.042   2.148   1.743 -2.4592 -0.3504 -0.8205
11249TIP3   OH233687   1.386   4.395   6.340  0.0219 -0.0313 -0.4727
11249TIP3    H133688   1.456   4.369   6.279  0.5151  3.1727 -1.4358
11249TIP3    H233689   1.386   4.490   6.338 -4.8541  0.2178 -1.0582
11250TIP3   OH233690   6.824   5.297   1.499 -0.1656  0.0868  0.0460
11250TIP3    H133691   6.877   5.291   1.419 -0.2940  0.6803 -0.0846
11250TIP3    H233692   6.739   5.328   1.469 -0.0352  0.8917  0.4908
11251TIP3   OH233693   5.260   1.700   5.662 -0.4149 -0.0724  0.5353
11251TIP3    H133694   5.289   1.791   5.653  1.5371 -0.7939 -1.6583
11251TIP3    H233695   5.193   1.689   5.595  1.6729 -0.9752 -1.5637
11252TIP3   OH233696   2.880   2.599   6.842  0.2754 -0.2400 -0.4042
11252TIP3    H133697   2.922   2.624   6.924 -1.1442 -1.1833  0.6596
11252TIP3    H233698   2.948   2.549   6.795  0.8696 -0.3509  0.5376
11253TIP3   OH233699   4.490   7.067   2.601 -0.0667 -0.1812  0.6369
11253TIP3    H133700   4.508   7.150   2.645 -0.8372 -0.0256  0.6858
11253TIP3    H233701   4.516   7.000   2.664 -0.1161  0.0313  0.8839
11254TIP3   OH233702   8.176   5.201   1.633  0.1854 -0.1855  0.1322
11254TIP3    H133703   8.110   5.258   1.674 -1.2742 -0.7045 -1.4207
11254TIP3    H233704   8.175   5.225   1.541  2.7483  0.3036  0.1639
11255TIP3   OH233705   7.424   5.393   5.147  0.7823  0.5386 -0.1782
11255TIP3    H133706   7.490   5.390   5.079 -0.1534  1.4227 -1.1639
11255TIP3    H233707   7.459   5.339   5.218  1.4778 -0.9718 -1.6193
11256TIP3   OH233708   2.940   5.176   2.152 -0.0018  0.5989  0.0882
11256TIP3    H133709   2.873   5.241   2.129  0.3230  0.5307 -1.0516
11256TIP3    H233710   3.023   5.217   2.128  0.2230 -0.1291 -0.3840
11257TIP3   OH233711   4.627   1.881   2.446  0.3965  0.1744 -0.1566
11257TIP3    H133712   4.667   1.835   2.519  0.0471 -0.9106 -0.6355
11257TIP3    H233713   4.534   1.858   2.451  0.3731  0.0614 -0.9516
11258TIP3   OH233714   5.468   4.879   0.666  0.7161  0.6041  0.4572
11258TIP3    H133715   5.543   4.935   0.686 -1.3583  3.6717  0.2677
11258TIP3    H233716   5.430   4.916   0.587 -0.4099 -1.5835 -0.1221
11259TIP3   OH233717   5.359   1.276   3.874 -0.1245 -0.1011  0.2671
11259TIP3    H133718   5.311   1.354   3.845 -0.2119  0.5689  2.0708
11259TIP3    H233719   5.448   1.288   3.841 -0.4155  0.2069 -0.4185
11260TIP3   OH233720   4.977   6.279   2.867  0.6258 -0.4156  0.1931
11260TIP3    H133721   5.035   6.208   2.840  1.5269  0.3039  0.1736
11260TIP3    H233722   5.036   6.342   2.909 -0.2846 -0.0828  1.0072
11261TIP3   OH233723   0.849   4.960   4.202 -0.0467  0.1740  0.6365
11261TIP3    H133724   0.888   5.045   4.222 -0.1243  0.7577 -1.4566
11261TIP3    H233725   0.917   4.897   4.225  1.0430  0.9910 -0.2337
11262TIP3   OH233726   7.889   7.060   5.598  0.1185  0.1930  0.1574
11262TIP3    H133727   7.801   7.086   5.571 -0.4149 -2.0269 -0.4519
11262TIP3    H233728   7.946   7.127   5.559 -1.3053  2.2771  1.4538
11263TIP3   OH233729   1.483   0.484   0.623 -0.4644  0.3689 -0.0305
11263TIP3    H133730   1.538   0.457   0.550 -0.6111  0.4815 -0.1841
11263TIP3    H233731   1.526   0.561   0.658 -0.2030  0.1111  0.2250
11264TIP3   OH233732   6.470   3.830   3.833  0.0126  0.3039 -0.1134
11264TIP3    H133733   6.539   3.797   3.891 -0.0323  0.5305  0.0662
11264TIP3    H233734   6.503   3.811   3.745  0.5248  0.8411 -0.0441
11265TIP3   OH233735   3.179   6.477   2.726  0.0571 -0.5164 -0.6474
11265TIP3    H133736   3.199   6.569   2.715 -1.1880 -0.2629 -0.9624
11265TIP3    H233737   3.133   6.471   2.810 -1.4610 -0.5490 -1.4472
11266TIP3   OH233738   1.079   5.075   2.434 -0.0872  0.1797  0.1275
11266TIP3    H133739   1.091   5.138   2.364  0.3183  0.3142  0.3156
11266TIP3    H233740   0.988   5.045   2.424  0.6303 -1.5490 -1.8899
11267TIP3   OH233741   5.782   4.728   3.059  0.4915 -0.1967 -0.2268
11267TIP3    H133742   5.866   4.769   3.081 -0.5039  0.7139  2.3607
11267TIP3    H233743   5.768   4.749   2.967  2.6645  0.4085 -0.4692
11268TIP3   OH233744   4.024   3.146   3.099  0.0605 -0.1965  0.2830
11268TIP3    H133745   3.987   3.083   3.162 -0.0713 -0.7431 -0.3259
11268TIP3    H233746   4.112   3.163   3.132 -0.0333 -0.4198  0.6616
11269TIP3   OH233747   0.142   2.809   1.686  0.2162 -0.2388 -0.2810
11269TIP3    H133748   0.189   2.776   1.610 -1.8500 -0.6939 -1.4544
11269TIP3    H233749   0.102   2.891   1.656  0.5519  0.3407  0.7950
11270TIP3   OH233750   4.203   0.633   2.589  0.2347 -0.5099 -0.5791
11270TIP3    H133751   4.259   0.704   2.621  0.8846 -0.5806 -1.5339
11270TIP3    H233752   4.191   0.577   2.666  1.4017 -0.4430 -0.3174
11271TIP3   OH233753   5.642   0.143   2.387  0.2325  0.2722  0.5512
11271TIP3    H133754   5.665   0.137   2.480 -0.1312  0.4462  0.6547
11271TIP3    H233755   5.699   0.079   2.344  1.4670  1.2372  0.6871
11272TIP3   OH233756   2.962   4.395   1.717  0.5887  0.0774  0.1399
11272TIP3    H133757   2.953   4.463   1.783  1.6046  1.2428 -0.8725
11272TIP3    H233758   2.911   4.427   1.642 -1.1571 -1.5560  0.5583
11273TIP3   OH233759   2.920   2.628   0.847  1.0129 -0.3479  0.2870
11273TIP3    H133760   2.826   2.620   0.864  1.3571 -0.3492  2.4711
11273TIP3    H233761   2.958   2.650   0.932  2.8934  0.6147 -0.7309
11274TIP3   OH233762   1.975   7.799   6.701 -0.2227  1.0834  0.2179
11274TIP3    H133763   1.929   7.880   6.680  1.3070  2.1587  0.8414
11274TIP3    H233764   2.001   7.809   6.792 -0.3538 -0.2933  0.4245
11275TIP3   OH233765   4.549   6.027   3.184  0.5300  0.3571  0.2240
11275TIP3    H133766   4.453   6.027   3.175  0.4747 -0.9963  0.6469
11275TIP3    H233767   4.566   5.971   3.260  1.7280 -0.7239 -0.7892
11276TIP3   OH233768   5.510   3.341   5.179 -0.0592  0.1620  0.0676
11276TIP3    H133769   5.568   3.266   5.186 -0.0656  0.0678 -0.7637
11276TIP3    H233770   5.569   3.417   5.179 -0.0683  0.1825  1.1487
11277TIP3   OH233771   2.266   5.110   5.365 -0.0241  0.0647  0.2733
11277TIP3    H133772   2.182   5.064   5.360 -0.9362  1.5759  0.9203
11277TIP3    H233773   2.249   5.183   5.425  0.6919  2.5472 -2.3627
11278TIP3   OH233774   4.402   0.722   5.967 -0.2755  0.1910  0.3719
11278TIP3    H133775   4.456   0.738   5.890 -2.0742  1.0252 -0.7599
11278TIP3    H233776   4.449   0.764   6.039  1.7829 -1.1975 -0.0712
11279TIP3   OH233777   3.815   5.689   4.951  0.5389  0.1031 -0.0100
11279TIP3    H133778   3.737   5.711   5.002 -0.1123  1.1815 -1.3938
11279TIP3    H233779   3.828   5.595   4.967 -1.4117 -0.2533 -0.2022
11280TIP3   OH233780   2.440   6.189   5.265 -0.5152 -0.2398 -0.2230
11280TIP3    H133781   2.454   6.143   5.182 -2.2420 -0.4846 -0.4181
11280TIP3    H233782   2.402   6.123   5.323  3.1658 -0.8724  1.7582
11281TIP3   OH233783   7.253   1.748   0.466  0.0168  0.2958 -0.1375
11281TIP3    H133784   7.169   1.783   0.495 -0.6987 -0.7859 -0.8165
11281TIP3    H233785   7.294   1.714   0.545 -1.0190 -0.8319 -0.0619
11282TIP3   OH233786   4.032   2.484   6.634  0.1044 -0.2093 -0.2660
11282TIP3    H133787   4.008   2.574   6.654 -1.0090 -0.4862 -0.2991
11282TIP3    H233788   3.950   2.435   6.641  0.7663 -1.2968  0.1775
11283TIP3   OH233789   5.194   5.535   4.808 -0.5778 -0.3557  0.4086
11283TIP3    H133790   5.251   5.526   4.884 -2.4051  0.4638  1.9473
11283TIP3    H233791   5.245   5.497   4.736  2.5109  1.6708  1.3242
11284TIP3   OH233792   7.076   6.283   5.541 -0.2247 -0.6698 -0.2471
11284TIP3    H133793   7.119   6.223   5.481  0.2411 -1.0130  0.4203
11284TIP3    H233794   6.998   6.237   5.570  0.9124 -1.6395  1.4584
11285TIP3   OH233795   6.562   6.864   3.656 -0.0151 -0.2910 -0.4482
11285TIP3    H133796   6.648   6.828   3.678 -0.4669 -0.6990  0.7076
11285TIP3    H233797   6.564   6.953   3.692 -0.6386 -0.8463  0.9785
11286TIP3   OH233798   3.140   3.956   1.961 -0.6896 -0.2266 -0.2225
11286TIP3    H133799   3.089   3.996   1.891 -1.8192 -1.1934  0.0201
11286TIP3    H233800   3.176   3.876   1.922 -1.6373 -0.9728  0.3652
11287TIP3   OH233801   2.732   6.186   3.483 -0.5195 -0.4023 -0.0571
11287TIP3    H133802   2.728   6.091   3.485 -0.3539 -0.4352 -0.9469
11287TIP3    H233803   2.811   6.206   3.434 -1.0304  0.1877 -0.6610
11288TIP3   OH233804   4.753   5.365   0.182  0.1924  0.2745 -0.2041
11288TIP3    H133805   4.748   5.440   0.123  0.1731  1.3723  1.1442
11288TIP3    H233806   4.697   5.388   0.256  2.1781  0.0984  1.4644
11289TIP3   OH233807   5.102   6.960   0.182  0.4001 -0.0331 -0.5751
11289TIP3    H133808   5.176   6.942   0.240  1.9241 -0.5472 -2.6027
11289TIP3    H233809   5.085   7.054   0.193  0.7253 -0.0973  0.5945
11290TIP3   OH233810   0.227   3.833   4.309 -0.3057  0.4424  0.1091
11290TIP3    H133811   0.187   3.803   4.227 -0.2549  1.2193 -0.2151
11290TIP3    H233812   0.284   3.761   4.336  0.1978  0.4446 -0.9025
11291TIP3   OH233813   2.114   5.418   4.796 -0.4546  0.2752 -0.4410
11291TIP3    H133814   2.040   5.386   4.847  1.3681 -1.9814  0.9943
11291TIP3    H233815   2.116   5.363   4.718  0.7108 -0.9544  0.4092
11292TIP3   OH233816   7.538   7.154   3.076 -0.1507 -0.0609  0.3259
11292TIP3    H133817   7.493   7.224   3.027 -0.0379  0.1341  0.4978
11292TIP3    H233818   7.488   7.147   3.158  1.5349  1.8620  1.6317
11293TIP3   OH233819   6.432   6.111   3.422  0.1430  0.5314  0.0303
11293TIP3    H133820   6.494   6.133   3.352 -0.9046 -1.3243 -1.5868
11293TIP3    H233821   6.378   6.189   3.432 -0.3054  0.5491 -1.9939
11294TIP3   OH233822   1.302   0.672   4.370 -0.7095 -0.2632  0.8520
11294TIP3    H133823   1.297   0.687   4.465 -1.3138  0.1173  0.7638
11294TIP3    H233824   1.338   0.753   4.335 -0.3886 -0.4433  0.7642
11295TIP3   OH233825   1.336   1.846   3.121 -0.1908 -0.4777 -0.1512
11295TIP3    H133826   1.380   1.803   3.047 -2.1105 -0.4863 -1.3473
11295TIP3    H233827   1.251   1.872   3.087 -1.5828 -1.3832  2.3427
11296TIP3   OH233828   6.924   5.016   5.750 -0.1786  0.0493  0.9137
11296TIP3    H133829   7.009   5.038   5.712 -0.7190  1.5181  0.5367
11296TIP3    H233830   6.933   5.040   5.842  0.1749 -0.8679  1.1349
11297TIP3   OH233831   8.279   6.626   0.871  0.1730  0.3974 -0.1983
11297TIP3    H133832   8.222   6.551   0.852  2.8650 -1.1974 -2.8323
11297TIP3    H233833   8.266   6.642   0.965 -3.4423 -0.7211 -0.3512
11298TIP3   OH233834   3.422   6.943   3.081 -0.3449  0.5627  0.2200
11298TIP3    H133835   3.502   6.979   3.042 -0.7014 -0.8649 -2.0151
11298TIP3    H233836   3.452   6.895   3.158  0.8453  0.7860 -0.0837
11299TIP3   OH233837   2.265   3.500   3.784  0.7048 -1.3631  0.5835
11299TIP3    H133838   2.302   3.535   3.866  1.8746  0.4400 -0.6340
11299TIP3    H233839   2.172   3.492   3.802  0.8311 -0.3273  1.9056
11300TIP3   OH233840   4.096   6.708   5.350  0.2667  0.2915  0.0262
11300TIP3    H133841   4.008   6.718   5.314  0.0833 -1.1265 -0.0130
11300TIP3    H233842   4.093   6.623   5.396  2.3900 -1.2802 -2.4694
11301TIP3   OH233843   1.718   4.687   6.735  0.0102 -0.0324 -0.4638
11301TIP3    H133844   1.650   4.741   6.695 -0.6151 -2.1605 -2.5238
11301TIP3    H233845   1.669   4.617   6.779  0.8113  0.4441  1.2325
11302TIP3   OH233846   3.565   7.142   1.748 -0.3455 -0.2757 -0.2090
11302TIP3    H133847   3.587   7.197   1.824 -0.2749 -0.5423 -0.0349
11302TIP3    H233848   3.480   7.175   1.719 -0.4630 -0.2929  0.1036
11303TIP3   OH233849   0.519   4.243   6.596 -0.0511  0.2188 -0.0260
11303TIP3    H133850   0.498   4.219   6.506 -1.6079 -1.0411  0.6012
11303TIP3    H233851   0.589   4.183   6.621  0.8723  1.0418 -0.5930
11304TIP3   OH233852   8.143   3.806   0.362  0.3739 -0.0600 -0.1292
11304TIP3    H133853   8.110   3.812   0.272 -0.1599 -0.7427  0.0149
11304TIP3    H233854   8.209   3.736   0.358  2.0132  1.4475 -0.4655
11305TIP3   OH233855   0.422   1.210   0.015 -0.0701  0.1319  0.4470
11305TIP3    H133856   0.499   1.198   0.070  0.2681  0.8856  0.1609
11305TIP3    H233857   0.363   1.263   0.068  0.1712  0.6852  0.1750
11306TIP3   OH233858   2.963   1.533   6.196 -0.3306 -0.4310 -0.0976
11306TIP3    H133859   3.004   1.460   6.243 -0.7121 -0.8188 -0.3654
11306TIP3    H233860   3.036   1.589   6.171 -0.0763 -0.4640  0.5409
11307TIP3   OH233861   5.721   2.758   3.305 -0.5344 -0.2534  0.5838
11307TIP3    H133862   5.775   2.715   3.238 -1.1156 -0.7149  0.4035
11307TIP3    H233863   5.758   2.729   3.388  1.4600  1.8597  0.5479
11308TIP3   OH233864   8.304   2.147   1.294  0.2699  0.0908  0.0976
11308TIP3    H133865   8.288   2.217   1.230 -3.2834 -0.5253  0.0864
11308TIP3    H233866   8.328   2.192   1.374  2.1365  1.0169 -0.9134
11309TIP3   OH233867   7.480   0.341   0.126 -0.6425  0.5868  0.1201
11309TIP3    H133868   7.391   0.323   0.156 -0.7116 -2.0442 -1.3164
11309TIP3    H233869   7.512   0.408   0.186 -3.6897  1.9495  0.4184
11310TIP3   OH233870   1.442   2.466   2.273  0.3947 -0.4563  0.2822
11310TIP3    H133871   1.466   2.497   2.360  0.2029 -0.4041  0.3168
11310TIP3    H233872   1.430   2.547   2.222 -2.5751 -0.3249  1.0076
11311TIP3   OH233873   1.893   7.719   2.122  0.1695  0.3520 -0.0235
11311TIP3    H133874   1.865   7.659   2.191  0.6944 -0.9743 -0.9175
11311TIP3    H233875   1.986   7.732   2.137  0.1883  0.4345 -0.2035
11312TIP3   OH233876   8.306   0.542   1.447 -0.0999 -0.3865 -0.4073
11312TIP3    H133877   8.221   0.499   1.458 -0.6564  0.6011 -0.7205
11312TIP3    H233878   8.363   0.499   1.511 -0.2270 -2.5663 -1.6697
11313TIP3   OH233879   0.621   4.894   1.859 -0.4569  0.5808  0.2096
11313TIP3    H133880   0.540   4.843   1.856 -0.4067  0.5332 -0.4508
11313TIP3    H233881   0.631   4.929   1.771  0.6165  0.0041  0.0905
11314TIP3   OH233882   5.869   1.566   3.224 -0.3163  0.2073 -0.2570
11314TIP3    H133883   5.945   1.508   3.220 -0.3880  0.1165 -0.3113
11314TIP3    H233884   5.854   1.592   3.133  0.9737  1.9554 -0.0072
11315TIP3   OH233885   0.154   0.682   2.738 -0.2240  0.2516 -0.3716
11315TIP3    H133886   0.140   0.619   2.667 -0.2070  3.0094 -2.9866
11315TIP3    H233887   0.246   0.671   2.762 -0.7413 -2.1501  0.8223
11316TIP3   OH233888   8.392   5.769   5.076 -0.5643  0.1921  0.1282
11316TIP3    H133889   8.373   5.847   5.024  1.3963  1.1435  0.7262
11316TIP3    H233890   8.363   5.791   5.165 -1.4817 -0.4020 -0.0145
11317TIP3   OH233891   7.430   3.033   6.694  0.0808 -0.4025 -0.5557
11317TIP3    H133892   7.346   3.051   6.652  0.5684  0.3179 -1.2431
11317TIP3    H233893   7.493   3.031   6.623  0.9317  0.8968  0.1307
11318TIP3   OH233894   6.455   5.235   2.016 -0.1748 -0.5446  0.3218
11318TIP3    H133895   6.406   5.316   2.020  0.1874 -0.3508  0.9225
11318TIP3    H233896   6.399   5.170   2.059 -0.3817 -0.5711  0.0123
11319TIP3   OH233897   8.125   5.360   2.118 -0.3289  0.0110 -0.1574
11319TIP3    H133898   8.215   5.361   2.085  0.3239  0.3675  1.5179
11319TIP3    H233899   8.087   5.279   2.083  0.9492 -0.6331 -0.1088
11320TIP3   OH233900   7.566   2.113   5.852  0.5695  0.1831 -0.4782
11320TIP3    H133901   7.601   2.171   5.920  0.8665  0.0126 -0.4816
11320TIP3    H233902   7.526   2.041   5.899  1.7096 -0.4807 -0.4787
11321TIP3   OH233903   5.973   0.847   1.587  0.2844 -0.2553 -0.1684
11321TIP3    H133904   6.041   0.898   1.631 -0.0173 -0.1235  0.1527
11321TIP3    H233905   5.950   0.899   1.511 -1.3052  1.0230  1.1133
11322TIP3   OH233906   7.730   6.258   4.405  0.3673 -0.1597  0.2274
11322TIP3    H133907   7.730   6.168   4.370  0.8513 -0.0334 -0.1206
11322TIP3    H233908   7.822   6.273   4.430  0.6177  0.7695 -1.1446
11323TIP3   OH233909   4.518   6.278   2.627  0.5314 -0.0746  0.5421
11323TIP3    H133910   4.476   6.217   2.688  1.0680 -0.1467  0.8411
11323TIP3    H233911   4.583   6.324   2.680  1.2511 -0.3950 -0.0601
11324TIP3   OH233912   0.516   1.603   6.499 -0.1009 -0.4227 -0.3135
11324TIP3    H133913   0.433   1.632   6.461 -0.2806 -0.3526  0.1235
11324TIP3    H233914   0.570   1.581   6.424  0.6756  2.6681 -0.8167
11325TIP3   OH233915   2.258   6.600   2.899 -0.2522 -0.4777 -0.2438
11325TIP3    H133916   2.331   6.540   2.917  0.2526  0.0650 -0.4332
11325TIP3    H233917   2.300   6.675   2.855 -0.7160  0.4635  0.8825
11326TIP3   OH233918   4.075   3.587   5.002 -0.2880  0.0204  0.0236
11326TIP3    H133919   4.154   3.559   4.955  2.1294  1.2243  2.9452
11326TIP3    H233920   4.046   3.666   4.956  2.5635  1.7391  0.8653
11327TIP3   OH233921   4.901   1.335   6.218 -0.3685 -0.0018 -0.1318
11327TIP3    H133922   4.964   1.369   6.155  1.2156 -0.6264  1.0563
11327TIP3    H233923   4.900   1.399   6.289  0.0208 -0.6962  0.5134
11328TIP3   OH233924   1.110   2.344   0.381 -0.3249 -0.2024  0.2550
11328TIP3    H133925   1.095   2.366   0.289  1.4802  0.4537  0.0912
11328TIP3    H233926   1.028   2.368   0.425 -0.5847  1.1193 -0.8985
11329TIP3   OH233927   4.678   6.834   2.786 -0.0568 -0.2906 -0.4391
11329TIP3    H133928   4.652   6.743   2.800  2.3942 -0.9790  0.1668
11329TIP3    H233929   4.605   6.885   2.819 -1.4654 -2.0216 -0.7110
11330TIP3   OH233930   2.682   6.373   1.263  0.1456 -0.2118 -0.0278
11330TIP3    H133931   2.603   6.421   1.286  0.6591  0.1170  1.0985
11330TIP3    H233932   2.714   6.339   1.346  1.5986  0.2983 -0.3585
11331TIP3   OH233933   0.537   4.455   1.291  0.1246  0.7460 -0.0042
11331TIP3    H133934   0.579   4.377   1.254 -0.2753  1.1478 -1.3714
11331TIP3    H233935   0.484   4.422   1.363 -0.7506 -0.3869 -1.1285
11332TIP3   OH233936   2.269   0.699   0.545 -0.4761  0.6890  0.0562
11332TIP3    H133937   2.295   0.689   0.637 -1.6486 -0.8491  0.2468
11332TIP3    H233938   2.182   0.740   0.549 -0.4978  0.6871 -0.3781
11333TIP3   OH233939   2.644   0.325   1.034 -0.2579 -0.2366  0.4126
11333TIP3    H133940   2.625   0.242   1.078 -0.3739  0.1921  1.1820
11333TIP3    H233941   2.719   0.361   1.083 -0.2447  0.1378  0.1185
11334TIP3   OH233942   2.609   4.577   0.056 -0.5700 -0.1853 -1.0998
11334TIP3    H133943   2.701   4.601   0.069 -0.5278 -1.5155  1.4797
11334TIP3    H233944   2.564   4.661   0.054  0.6146  0.4748 -1.9567
11335TIP3   OH233945   8.367   2.961   3.454 -0.0045 -0.4989 -0.2648
11335TIP3    H133946   8.432   2.938   3.388  0.0186 -2.7122  0.4453
11335TIP3    H233947   8.410   3.028   3.508  1.2592 -1.0927 -0.5006
11336TIP3   OH233948   8.093   6.258   1.342  0.1324  0.0046 -0.2983
11336TIP3    H133949   8.113   6.185   1.400 -0.7275  0.2314  0.2931
11336TIP3    H233950   8.148   6.329   1.373  0.8024 -0.3079 -0.7326
11337TIP3   OH233951   0.538   1.971   3.743 -0.6025  0.1918 -0.0647
11337TIP3    H133952   0.479   1.938   3.811  0.3488  1.4734  1.4591
11337TIP3    H233953   0.495   2.051   3.711 -1.2629 -0.6423 -1.3285
11338TIP3   OH233954   5.705   4.813   2.435  0.3693 -0.4428 -0.0408
11338TIP3    H133955   5.619   4.771   2.433 -0.6119  1.1806  2.5686
11338TIP3    H233956   5.766   4.742   2.459 -0.9718 -0.8391  2.5316
11339TIP3   OH233957   4.963   4.397   6.031 -0.0610 -1.1317  0.1892
11339TIP3    H133958   5.048   4.414   5.990 -0.7586  0.4531 -0.7144
11339TIP3    H233959   4.983   4.386   6.124  1.0974 -0.3598  0.0539
11340TIP3   OH233960   1.028   1.911   0.046  0.0716  0.4054  0.1610
11340TIP3    H133961   1.001   1.935  -0.042  2.3785 -1.3481 -1.1439
11340TIP3    H233962   1.123   1.925   0.047  1.1340 -4.7228  0.3625
11341TIP3   OH233963   0.290   6.527   0.579  0.0636  0.2215  0.6469
11341TIP3    H133964   0.214   6.585   0.568 -1.2000 -1.3562  0.6087
11341TIP3    H233965   0.365   6.581   0.557 -1.2299  1.2241 -1.7170
11342TIP3   OH233966   5.979   7.481   3.841  0.0164 -0.5310 -0.0974
11342TIP3    H133967   5.989   7.513   3.931 -0.4425 -0.0148 -0.2303
11342TIP3    H233968   5.999   7.557   3.786 -0.1732 -0.7170 -0.4256
11343TIP3   OH233969   1.379   7.105   1.513  0.1576  0.2325  0.3200
11343TIP3    H133970   1.325   7.031   1.485  0.0840  0.3322  0.1977
11343TIP3    H233971   1.439   7.120   1.440  1.3522 -0.8179  1.0267
11344TIP3   OH233972   6.211   5.242   5.907  0.4887 -0.4445  0.0769
11344TIP3    H133973   6.281   5.306   5.895 -1.3562  1.5852 -0.3939
11344TIP3    H233974   6.211   5.191   5.825 -0.1643  1.2300 -1.0244
11345TIP3   OH233975   5.399   5.402   5.691 -0.5562 -0.0246 -0.6935
11345TIP3    H133976   5.405   5.322   5.639 -0.7621  0.1380 -0.9731
11345TIP3    H233977   5.433   5.378   5.777 -1.2788 -0.6049 -0.5601
11346TIP3   OH233978   4.566   4.531   0.152 -0.2439  0.1795 -0.2751
11346TIP3    H133979   4.541   4.527   0.244 -0.3025  2.2915 -0.1602
11346TIP3    H233980   4.661   4.526   0.153 -0.3120 -1.8837 -0.2894
11347TIP3   OH233981   2.235   6.431   6.733 -0.0474 -0.1762  0.0674
11347TIP3    H133982   2.169   6.447   6.665  0.5513  0.3889 -0.3904
11347TIP3    H233983   2.318   6.425   6.685  0.6077  1.7196  0.8662
11348TIP3   OH233984   8.312   4.461   2.520 -0.0867  0.1914 -0.5722
11348TIP3    H133985   8.248   4.404   2.477  1.6870 -1.7492 -0.8048
11348TIP3    H233986   8.287   4.460   2.612 -0.3245 -0.6423 -0.6396
11349TIP3   OH233987   0.710   4.810   3.375 -0.1907 -0.8149  0.0377
11349TIP3    H133988   0.717   4.770   3.461 -2.3033 -0.3550  0.4782
11349TIP3    H233989   0.647   4.756   3.328 -1.6678  0.8363  0.0050
11350TIP3   OH233990   2.462   5.642   1.114  0.2618 -0.0219 -0.3069
11350TIP3    H133991   2.465   5.669   1.206  0.3231 -1.5180  0.1534
11350TIP3    H233992   2.378   5.597   1.105 -0.0776  0.7757 -1.1881
11351TIP3   OH233993   7.052   2.961   5.995  0.1159  0.1023 -0.2063
11351TIP3    H133994   6.967   2.919   5.986  0.1177  0.2002 -0.7318
11351TIP3    H233995   7.045   3.041   5.942  0.1544  0.7018  0.6654
11352TIP3   OH233996   0.441   4.925   6.264 -0.9709  0.2384 -0.5369
11352TIP3    H133997   0.503   4.901   6.333 -1.7345  1.3808  0.6112
11352TIP3    H233998   0.415   5.015   6.286 -2.0760  0.2354 -1.6997
11353TIP3   OH233999   1.631   2.078   1.199  0.1078  0.0784  0.7509
11353TIP3    H134000   1.692   2.105   1.131  0.9089 -2.9079  0.1521
11353TIP3    H234001   1.544   2.098   1.162  0.5809  2.2142  0.6466
11354TIP3   OH234002   6.013   6.856   1.655 -0.5044 -0.3678 -0.4021
11354TIP3    H134003   5.992   6.934   1.603  0.2684  0.8442  1.0224
11354TIP3    H234004   5.998   6.883   1.746  2.1870 -1.0200  0.3194
11355TIP3   OH234005   6.583   7.412   0.677 -0.3550  0.0804  0.6178
11355TIP3    H134006   6.588   7.467   0.755  0.3053  0.0607  0.5974
11355TIP3    H234007   6.617   7.467   0.607 -3.7345  1.2166 -0.3337
11356TIP3   OH234008   6.746   1.715   3.412 -0.2442 -0.4114  0.0367
11356TIP3    H134009   6.729   1.632   3.456  0.5428 -0.3540  0.4632
11356TIP3    H234010   6.741   1.695   3.318 -0.0301 -0.9444  0.1403
11357TIP3   OH234011   7.893   3.161   5.363  0.2724 -0.0506 -0.3912
11357TIP3    H134012   7.859   3.172   5.452 -0.1148  0.4053 -0.5880
11357TIP3    H234013   7.821   3.119   5.315 -0.1113  1.0864 -0.8573
11358TIP3   OH234014   1.600   6.185   2.475 -0.2346  0.0005  0.3374
11358TIP3    H134015   1.557   6.182   2.561 -0.6453 -0.6601  0.1140
11358TIP3    H234016   1.650   6.104   2.471  0.8729  0.6614  0.5038
11359TIP3   OH234017   4.769   5.505   3.190  0.1833 -0.0946  0.0584
11359TIP3    H134018   4.781   5.486   3.283  0.4722 -0.6143 -0.0811
11359TIP3    H234019   4.857   5.507   3.154  0.1332  1.0494 -0.0367
11360TIP3   OH234020   4.124   5.029   6.721  0.2929 -0.6929 -0.2080
11360TIP3    H134021   4.164   4.945   6.745  0.5622 -0.5570 -0.1801
11360TIP3    H234022   4.050   5.038   6.780 -0.2510 -1.3146 -0.7704
11361TIP3   OH234023   2.104   4.654   0.503  0.8090 -0.6401  0.0450
11361TIP3    H134024   2.136   4.689   0.586 -0.8332  0.3551  0.3075
11361TIP3    H234025   2.062   4.571   0.526  0.1356 -0.2460  0.2726
11362TIP3   OH234026   4.640   4.735   5.428  0.1537  0.1288 -0.0710
11362TIP3    H134027   4.674   4.722   5.517 -0.8201  0.8692  0.4331
11362TIP3    H234028   4.690   4.808   5.393  0.1731  0.1791  0.0635
11363TIP3   OH234029   0.344   6.602   4.428  0.4405 -0.0398  0.0429
11363TIP3    H134030   0.386   6.662   4.490  1.1061 -1.4474  1.0060
11363TIP3    H234031   0.269   6.566   4.475  0.6515 -0.7390 -0.1357
11364TIP3   OH234032   4.280   5.863   3.496  0.0322  0.1887 -0.3947
11364TIP3    H134033   4.255   5.898   3.582 -1.8894 -1.2124 -0.3229
11364TIP3    H234034   4.252   5.930   3.434  0.6328  0.8143 -0.0162
11365TIP3   OH234035   4.050   2.959   0.593  0.0774 -0.5212  0.7838
11365TIP3    H134036   3.978   2.948   0.654 -1.3397  0.4423 -0.6093
11365TIP3    H234037   4.035   2.892   0.525 -0.8324  1.0505 -0.6501
11366TIP3   OH234038   2.992   4.117   1.791  0.4185  0.2922 -0.9153
11366TIP3    H134039   2.960   4.206   1.773 -0.9113 -0.3151 -1.6132
11366TIP3    H234040   2.961   4.064   1.718 -2.7917 -1.6853  1.6450
11367TIP3   OH234041   5.239   5.208   1.607  0.8361 -0.3941  0.0579
11367TIP3    H134042   5.163   5.212   1.549  0.2088 -0.2786  0.8750
11367TIP3    H234043   5.292   5.284   1.581  0.9529 -0.7773 -0.8750
11368TIP3   OH234044   1.389   1.726   0.320 -0.4851  0.2338  0.0163
11368TIP3    H134045   1.365   1.770   0.401 -1.6622  0.4467 -0.4314
11368TIP3    H234046   1.334   1.647   0.319  1.0796 -0.9263  0.4631
11369TIP3   OH234047   1.928   0.187   3.714  0.3596  0.1470  0.1480
11369TIP3    H134048   1.926   0.255   3.647 -0.5900 -0.3805 -0.3701
11369TIP3    H234049   1.846   0.197   3.762  0.7633  0.1384  0.8659
11370TIP3   OH234050   2.376   1.535   5.957  0.4132  0.2966  0.2334
11370TIP3    H134051   2.465   1.519   5.928  0.6879  2.7206 -0.4457
11370TIP3    H234052   2.383   1.545   6.052  0.9662  1.0452  0.1174
11371TIP3   OH234053   6.081   4.640   5.927  0.4518 -0.2513 -0.6714
11371TIP3    H134054   6.018   4.571   5.908  0.1476 -0.4985  1.0827
11371TIP3    H234055   6.159   4.594   5.957  0.4888  0.1387 -0.1599
11372TIP3   OH234056   6.269   2.631   2.438  0.3160 -0.0681  0.1816
11372TIP3    H134057   6.328   2.597   2.505  0.4774  0.2924  0.2233
11372TIP3    H234058   6.186   2.584   2.453  0.2279  0.3049  0.8909
11373TIP3   OH234059   6.920   5.607   3.980 -0.0746  0.3996  0.6044
11373TIP3    H134060   6.927   5.607   4.076 -0.8734 -0.0458  0.6720
11373TIP3    H234061   6.842   5.555   3.962  0.2966  0.1412 -0.3091
11374TIP3   OH234062   6.113   0.273   1.357 -0.4018  0.0858 -0.6588
11374TIP3    H134063   6.060   0.234   1.288 -2.3177 -0.0570  0.8154
11374TIP3    H234064   6.150   0.352   1.317 -1.4917  0.0317 -1.8312
11375TIP3   OH234065   2.962   5.643   2.168  0.4697  0.6605 -0.1687
11375TIP3    H134066   2.897   5.648   2.238 -0.4413  0.9699 -1.0218
11375TIP3    H234067   2.924   5.692   2.095  0.0640 -2.0272 -1.9299
11376TIP3   OH234068   0.583   5.364   5.508  0.1227  0.0011 -0.2608
11376TIP3    H134069   0.525   5.393   5.437  0.6120  0.3887 -0.5042
11376TIP3    H234070   0.584   5.269   5.500 -2.1103 -0.1938  1.0227
11377TIP3   OH234071   2.710   4.878   5.793 -0.3528  0.3202  0.2627
11377TIP3    H134072   2.730   4.867   5.886 -2.3194 -0.1491  0.6587
11377TIP3    H234073   2.665   4.797   5.768  2.3768 -0.7231 -1.8099
11378TIP3   OH234074   3.827   6.342   1.733  0.4669  0.3007  0.0045
11378TIP3    H134075   3.896   6.378   1.678  2.1118 -0.4069  1.4934
11378TIP3    H234076   3.797   6.264   1.686  0.1788  0.9919 -0.9808
11379TIP3   OH234077   7.445   7.209   4.400  0.1747  0.4468  0.0968
11379TIP3    H134078   7.493   7.135   4.362 -0.6709 -1.0475  1.7896
11379TIP3    H234079   7.514   7.264   4.439  0.7040 -0.3609  0.3347
11380TIP3   OH234080   2.461   0.484   5.138  0.4394 -0.3291 -0.2757
11380TIP3    H134081   2.452   0.539   5.060 -0.5726  0.0899  0.1179
11380TIP3    H234082   2.550   0.498   5.168  1.1519 -1.1979 -1.8713
11381TIP3   OH234083   4.083   2.631   4.775 -0.1345  0.2362 -0.0181
11381TIP3    H134084   4.117   2.549   4.810  0.8541  1.5558  2.3480
11381TIP3    H234085   4.161   2.679   4.747 -0.3698  1.5587  1.4643
11382TIP3   OH234086   7.137   7.621   1.617  0.0037 -0.2038  0.2175
11382TIP3    H134087   7.152   7.698   1.672  0.4771  0.2897 -0.5819
11382TIP3    H234088   7.191   7.553   1.656 -0.3518 -0.1077  0.8822
11383TIP3   OH234089   1.358   2.629   3.414 -0.0739  0.1147 -0.1459
11383TIP3    H134090   1.441   2.607   3.372 -0.0722 -0.2362  0.0373
11383TIP3    H234091   1.371   2.607   3.506 -0.5608 -0.4968 -0.2131
11384TIP3   OH234092   6.917   5.390   2.992 -0.3788  0.3239  0.4851
11384TIP3    H134093   6.826   5.408   2.966 -0.7710 -0.7173  1.0785
11384TIP3    H234094   6.913   5.384   3.088  0.5257  1.3136  0.5991
11385TIP3   OH234095   2.380   5.432   4.445 -0.4572 -0.1580  0.3642
11385TIP3    H134096   2.357   5.522   4.422  0.6947 -0.1761 -0.9806
11385TIP3    H234097   2.361   5.381   4.365  0.5182 -0.8034  0.5269
11386TIP3   OH234098   0.434   2.081   2.941 -0.2346 -0.0300 -0.3691
11386TIP3    H134099   0.402   1.998   2.978 -0.7849  0.6335  0.6938
11386TIP3    H234100   0.389   2.148   2.991  0.8894  0.9348 -0.6109
11387TIP3   OH234101   3.309   5.186   0.723 -0.0604 -0.0222  0.1406
11387TIP3    H134102   3.361   5.163   0.646 -0.6920  0.8600 -0.5785
11387TIP3    H234103   3.257   5.262   0.695  0.6645  1.1767  1.8460
11388TIP3   OH234104   7.475   7.931   2.349 -0.2979 -0.6245  0.1939
11388TIP3    H134105   7.522   7.892   2.276  0.7189  0.0667  0.4635
11388TIP3    H234106   7.537   7.926   2.422 -1.4042 -1.6041  1.1128
11389TIP3   OH234107   1.611   7.499   0.954 -0.0544  0.2385  0.3272
11389TIP3    H134108   1.687   7.459   0.996  0.3385  1.2338  0.5968
11389TIP3    H234109   1.536   7.463   1.000  0.2640 -0.4147  0.3548
11390TIP3   OH234110   0.049   1.923   3.807  0.8124  0.3585 -0.1239
11390TIP3    H134111  -0.025   1.868   3.782  1.4436 -1.1262  1.1183
11390TIP3    H234112   0.050   1.920   3.903  2.7723 -0.0772 -0.1166
11391TIP3   OH234113   6.047   3.884   6.348 -0.5875  0.1191  0.3381
11391TIP3    H134114   6.086   3.964   6.382 -0.2644  1.0623 -2.0956
11391TIP3    H234115   5.955   3.906   6.333 -0.7662 -0.3367  0.7287
11392TIP3   OH234116   1.515   3.533   0.612 -0.1329  0.1837 -0.2635
11392TIP3    H134117   1.513   3.569   0.523 -0.1796 -0.9863 -0.7524
11392TIP3    H234118   1.521   3.610   0.669  2.7961  0.8904 -1.3729
11393TIP3   OH234119   7.521   5.178   6.751  0.0593  0.1154 -0.1872
11393TIP3    H134120   7.447   5.185   6.811 -0.7667 -0.3696 -1.1320
11393TIP3    H234121   7.552   5.268   6.740 -1.4142  0.5469 -1.0467
11394TIP3   OH234122   5.019   7.045   3.408  0.2394  0.7241  0.1027
11394TIP3    H134123   5.064   7.070   3.489  1.7569  0.0951 -0.4984
11394TIP3    H234124   5.002   6.951   3.418  1.2438  0.4461 -0.6491
11395TIP3   OH234125   4.342   0.189   4.299 -0.4557 -0.0691 -0.2501
11395TIP3    H134126   4.416   0.216   4.353 -0.4559  0.2174 -0.3940
11395TIP3    H234127   4.289   0.135   4.358 -0.2376 -0.1107 -0.0890
11396TIP3   OH234128   2.430   0.722   0.816 -0.4449  0.3291  0.3027
11396TIP3    H134129   2.374   0.662   0.865 -0.1052  0.4981  0.9107
11396TIP3    H234130   2.487   0.666   0.764 -1.9906  0.1488 -1.3133
11397TIP3   OH234131   6.417   7.729   0.487  0.1417  0.0344  0.2230
11397TIP3    H134132   6.433   7.734   0.581  0.5642  0.5642  0.1322
11397TIP3    H234133   6.384   7.641   0.472 -0.3424  0.0900  0.9258
11398TIP3   OH234134   7.215   4.105   2.756 -0.2045  0.0477  0.2237
11398TIP3    H134135   7.280   4.129   2.690  1.1473 -0.7277  1.2299
11398TIP3    H234136   7.183   4.189   2.789 -1.4300  0.4565 -1.8778
11399TIP3   OH234137   5.016   2.978   5.033 -0.5928  0.6310 -0.7021
11399TIP3    H134138   5.028   2.918   5.107 -0.6235 -0.6149 -1.6770
11399TIP3    H234139   4.931   2.956   4.997 -0.5155  1.1285 -1.2061
11400TIP3   OH234140   0.702   3.993   5.042 -0.3726  0.0832 -0.1978
11400TIP3    H134141   0.743   3.909   5.058 -0.3363  0.0052 -0.6935
11400TIP3    H234142   0.771   4.057   5.058 -0.4473  0.0297  0.3433
11401TIP3   OH234143   5.090   4.756   3.484 -0.2857  0.0572 -0.4495
11401TIP3    H134144   5.121   4.725   3.399 -1.2391 -0.0600 -0.7734
11401TIP3    H234145   5.157   4.728   3.546  0.5247  0.3280 -1.1882
11402TIP3   OH234146   0.541   7.544   5.327 -0.2588 -0.3885 -0.9023
11402TIP3    H134147   0.535   7.589   5.412 -0.2659 -0.6892 -0.7443
11402TIP3    H234148   0.630   7.560   5.298 -0.6348  0.8379 -1.4600
11403TIP3   OH234149   6.470   2.543   2.129 -0.1424  0.2313 -0.4500
11403TIP3    H134150   6.416   2.605   2.178 -2.2922 -1.3081 -0.7520
11403TIP3    H234151   6.473   2.578   2.040 -0.7690  0.2865 -0.4557
11404TIP3   OH234152   4.276   0.614   5.514 -0.0205 -0.0748 -0.3192
11404TIP3    H134153   4.237   0.533   5.483  0.1395 -0.2543 -0.0558
11404TIP3    H234154   4.203   0.665   5.547 -0.0075 -0.5091  0.3947
11405TIP3   OH234155   6.115   7.928   1.212 -0.0245 -0.0436  0.3223
11405TIP3    H134156   6.103   7.853   1.270  0.9268  1.0192  1.9698
11405TIP3    H234157   6.210   7.941   1.209 -0.1986  1.5136  0.6610
11406TIP3   OH234158   7.381   1.223   4.241 -0.3915  0.2608 -0.0332
11406TIP3    H134159   7.434   1.257   4.169 -0.0786  2.3851  1.1087
11406TIP3    H234160   7.296   1.204   4.201  0.6354 -1.4500 -1.5178
11407TIP3   OH234161   7.530   6.638   0.949  0.3093 -0.9164  0.1302
11407TIP3    H134162   7.599   6.700   0.975 -1.1973  1.3472 -0.9228
11407TIP3    H234163   7.475   6.629   1.026 -1.1573  1.5604 -0.5267
11408TIP3   OH234164   5.672   1.048   1.757  0.3283  0.2790 -0.0239
11408TIP3    H134165   5.637   1.074   1.843  0.0359  0.8826 -0.3167
11408TIP3    H234166   5.626   0.967   1.736  1.4223 -0.6501  1.0120
11409TIP3   OH234167   0.932   3.823   4.571  0.6681  0.2271 -0.0490
11409TIP3    H134168   0.879   3.878   4.514 -1.1431 -1.1617  0.2342
11409TIP3    H234169   1.001   3.882   4.603  0.3898  1.6078 -1.8384
11410TIP3   OH234170   2.894   4.142   4.433 -0.2886  0.4743 -0.4302
11410TIP3    H134171   2.940   4.225   4.427 -0.4915  0.5768 -0.5660
11410TIP3    H234172   2.857   4.128   4.346 -1.1411  0.7512 -0.1171
11411TIP3   OH234173   3.734   0.435   2.545 -0.1445  0.2169 -0.3650
11411TIP3    H134174   3.756   0.527   2.532 -1.4635  0.2428 -3.0211
11411TIP3    H234175   3.685   0.410   2.467 -1.7370 -2.1813  1.2405
11412TIP3   OH234176   7.448   6.570   5.539  0.1765 -0.2071  0.2583
11412TIP3    H134177   7.356   6.546   5.540 -0.0956  0.6639 -0.9950
11412TIP3    H234178   7.456   6.639   5.605  0.1176 -0.8551  0.9533
11413TIP3   OH234179   4.102   5.726   0.734 -0.0205 -0.0044  0.0696
11413TIP3    H134180   4.093   5.631   0.733 -0.8941  0.0655 -1.1078
11413TIP3    H234181   4.044   5.755   0.804 -0.4826 -0.2857 -0.1940
11414TIP3   OH234182   4.207   4.603   1.624  0.0556  0.3630  0.4350
11414TIP3    H134183   4.151   4.631   1.552  1.2203  0.8356 -0.3129
11414TIP3    H234184   4.198   4.507   1.626  0.5362  0.2716 -0.8097
11415TIP3   OH234185   3.094   5.555   4.791 -0.4292 -0.5425  0.4561
11415TIP3    H134186   3.080   5.465   4.761  0.1524 -0.4187 -0.2205
11415TIP3    H234187   3.183   5.553   4.827 -0.3352 -0.1929  0.2447
11416TIP3   OH234188   4.116   2.289   0.921  0.0134 -0.1614 -0.1547
11416TIP3    H134189   4.144   2.281   1.012  0.2756  0.2985 -0.1903
11416TIP3    H234190   4.047   2.356   0.923  0.1250 -0.0409 -0.3162
11417TIP3   OH234191   3.805   2.065   5.755  0.5963 -0.8569 -0.3918
11417TIP3    H134192   3.743   1.995   5.738  0.6675 -1.5380  1.8243
11417TIP3    H234193   3.751   2.140   5.779  0.5944 -0.9985  0.0449
11418TIP3   OH234194   2.751   7.464   4.132  0.0414  0.9476 -0.1451
11418TIP3    H134195   2.837   7.423   4.135 -0.4361 -0.0213  1.3326
11418TIP3    H234196   2.728   7.478   4.224 -0.5139  3.0970 -0.5510
11419TIP3   OH234197   7.300   0.277   5.604 -0.4525  0.2659 -0.1452
11419TIP3    H134198   7.204   0.276   5.597 -0.4805  0.2244  0.2302
11419TIP3    H234199   7.331   0.259   5.515 -0.7974 -2.9036  0.2852
11420TIP3   OH234200   8.216   6.021   5.398  0.1423 -0.3643 -0.3213
11420TIP3    H134201   8.133   6.025   5.350  0.7072 -0.6184 -1.3372
11420TIP3    H234202   8.218   6.103   5.448 -1.1948 -0.8157  0.5473
11421TIP3   OH234203   1.527   0.484   4.641  0.0490 -0.3965  0.0247
11421TIP3    H134204   1.614   0.451   4.618 -0.0186  0.2451 -1.2310
11421TIP3    H234205   1.478   0.406   4.666  0.1813 -1.1485 -1.9131
11422TIP3   OH234206   0.446   4.613   6.070  0.0885  0.5454  0.4136
11422TIP3    H134207   0.426   4.601   6.163 -0.4362 -0.0374  0.2332
11422TIP3    H234208   0.505   4.541   6.049 -1.7321 -0.8202 -0.2712
11423TIP3   OH234209   3.333   6.220   6.444  0.2343  0.8888  0.2419
11423TIP3    H134210   3.274   6.180   6.508 -0.0560  1.0145  0.0518
11423TIP3    H234211   3.421   6.208   6.482  0.2759 -0.9135 -0.3295
11424TIP3   OH234212   5.883   0.893   1.095  0.1376  0.1311  0.1175
11424TIP3    H134213   5.831   0.823   1.134 -3.3440  2.2785 -0.2813
11424TIP3    H234214   5.888   0.870   1.002 -0.6577  0.1898  0.0541
11425TIP3   OH234215   2.390   7.279   2.939 -0.1374  0.0854 -0.1681
11425TIP3    H134216   2.329   7.293   3.012  3.5728 -1.2531  3.6406
11425TIP3    H234217   2.448   7.356   2.942  1.5199 -1.1015  0.0676
11426TIP3   OH234218   1.427   1.630   2.655  0.0003 -0.4502  0.4216
11426TIP3    H134219   1.473   1.578   2.589 -0.2226 -0.4616  0.2731
11426TIP3    H234220   1.337   1.637   2.622  0.5114  1.9197 -0.6921
11427TIP3   OH234221   3.514   0.189   0.800 -0.4630  0.0913  0.4161
11427TIP3    H134222   3.526   0.216   0.891 -0.5437  2.0971 -0.1188
11427TIP3    H234223   3.596   0.145   0.777  0.1574  0.8959  1.0385
11428TIP3   OH234224   6.569   2.661   0.302 -0.5973  0.2662 -0.0568
11428TIP3    H134225   6.655   2.646   0.340 -0.8604 -0.9537  0.0952
11428TIP3    H234226   6.558   2.590   0.238 -2.1431 -0.6026  1.1066
11429TIP3   OH234227   8.165   0.509   2.523  0.7424 -0.1636  0.6667
11429TIP3    H134228   8.260   0.522   2.529  1.1190 -1.8739 -0.6056
11429TIP3    H234229   8.156   0.417   2.497 -1.2519  0.1911 -0.0126
11430TIP3   OH234230   3.929   3.846   2.923  0.0554 -0.2637  0.3219
11430TIP3    H134231   3.863   3.777   2.932  0.8885 -1.0171  0.7861
11430TIP3    H234232   3.898   3.899   2.849 -1.2609 -0.3736  0.7687
11431TIP3   OH234233   7.811   4.918   6.515  0.4480 -0.0770 -0.5831
11431TIP3    H134234   7.805   4.934   6.421 -1.5834 -1.7203 -0.8075
11431TIP3    H234235   7.732   4.870   6.537  1.9477 -1.8089  1.5505
11432TIP3   OH234236   3.400   2.745   1.649 -0.0226 -0.0207 -0.1361
11432TIP3    H134237   3.411   2.746   1.554  0.0274  0.9190 -0.1278
11432TIP3    H234238   3.452   2.819   1.680  0.1288 -0.4410  0.6511
11433TIP3   OH234239   7.505   5.855   6.106 -0.4802  0.3069  1.1466
11433TIP3    H134240   7.600   5.851   6.095 -0.8404 -0.8079 -2.7685
11433TIP3    H234241   7.481   5.941   6.070 -1.0393  0.2387  1.3524
11434TIP3   OH234242   7.057   7.042   1.059  0.0064 -0.0397  0.0905
11434TIP3    H134243   7.072   6.982   0.986  0.7254 -0.0156  0.2150
11434TIP3    H234244   6.987   7.100   1.029  2.9156  2.6048 -2.2116
11435TIP3   OH234245   7.693   6.186   2.244 -0.1581  0.0298  0.3631
11435TIP3    H134246   7.643   6.190   2.325  5.1121  0.7206  4.1301
11435TIP3    H234247   7.709   6.278   2.221  0.4130 -0.1508  0.0127
11436TIP3   OH234248   4.308   7.145   1.458 -0.1985 -0.2987 -0.2184
11436TIP3    H134249   4.327   7.172   1.548  0.0845  2.8929 -1.1162
11436TIP3    H234250   4.371   7.075   1.440 -0.1114 -0.8515  1.9560
11437TIP3   OH234251   1.853   2.481   4.432 -0.3553  0.0397  0.5476
11437TIP3    H134252   1.819   2.445   4.349  1.6723  1.3184 -0.9187
11437TIP3    H234253   1.946   2.459   4.431  0.0961  1.7801  1.5603
11438TIP3   OH234254   3.215   3.056   3.292  0.4195 -0.2282 -0.1790
11438TIP3    H134255   3.232   3.029   3.382 -1.0139 -0.9155 -0.0692
11438TIP3    H234256   3.276   3.128   3.275  1.1575 -0.5295  1.1088
11439TIP3   OH234257   2.180   4.059   2.964  0.2620  0.4232  0.3678
11439TIP3    H134258   2.192   3.989   3.027 -1.1844 -0.6973 -0.5320
11439TIP3    H234259   2.233   4.033   2.888  0.4293  0.7544  0.3702
11440TIP3   OH234260   0.116   4.358   2.091  0.0455 -0.3168  0.1987
11440TIP3    H134261   0.137   4.352   2.185 -1.3155 -2.2154  0.4282
11440TIP3    H234262   0.050   4.428   2.086  0.1797 -0.1532  0.6468
11441TIP3   OH234263   5.935   4.634   4.858  0.5027 -0.2310 -0.0978
11441TIP3    H134264   5.840   4.642   4.862  0.4966 -0.5973  0.6278
11441TIP3    H234265   5.963   4.626   4.949  1.6566  4.1797  0.1457
11442TIP3   OH234266   5.991   3.754   4.025 -0.2640  0.0566  0.1619
11442TIP3    H134267   5.986   3.843   4.061  0.0733 -0.0244  0.4114
11442TIP3    H234268   6.081   3.727   4.041 -0.2352 -0.1531 -0.3456
11443TIP3   OH234269   4.123   3.205   1.689 -0.2658 -0.4139 -0.3773
11443TIP3    H134270   4.117   3.110   1.678  1.2597 -0.5785 -0.0333
11443TIP3    H234271   4.078   3.223   1.771 -0.7509 -0.8133 -0.5559
11444TIP3   OH234272   7.052   4.307   4.361  0.1477  1.0858  0.3742
11444TIP3    H134273   7.020   4.236   4.304  0.5934  1.1355  0.0600
11444TIP3    H234274   7.105   4.362   4.303  1.3910  0.6087  1.0452
11445TIP3   OH234275   7.328   5.033   1.814  0.1764  0.1049 -0.1954
11445TIP3    H134276   7.241   4.999   1.837 -0.2575 -0.2659 -2.1685
11445TIP3    H234277   7.366   4.965   1.758  0.8510  1.1793 -1.0851
11446TIP3   OH234278   7.874   4.543   0.927 -0.3075  0.7220  0.6014
11446TIP3    H134279   7.842   4.453   0.926  2.0980 -0.2489  1.9064
11446TIP3    H234280   7.891   4.561   1.020  2.2741  1.2991  0.0780
11447TIP3   OH234281   1.548   4.523   0.844 -0.3989  0.1946 -0.4367
11447TIP3    H134282   1.591   4.579   0.908 -0.9623  0.2665 -0.1123
11447TIP3    H234283   1.594   4.540   0.762  1.7421 -1.4573  0.3443
11448TIP3   OH234284   6.479   7.878   4.364  0.1911  0.0194  0.7932
11448TIP3    H134285   6.520   7.916   4.286 -0.3686 -1.4483 -0.2561
11448TIP3    H234286   6.485   7.783   4.350 -1.2625 -0.2505  1.8375
11449TIP3   OH234287   0.432   0.806   4.957  0.3991  0.5405  0.1990
11449TIP3    H134288   0.390   0.770   5.035  1.3914  0.8803  0.9138
11449TIP3    H234289   0.365   0.802   4.889  0.2425 -1.9957  0.4182
11450TIP3   OH234290   2.902   5.500   1.857 -0.2710  0.0410 -0.1899
11450TIP3    H134291   2.861   5.579   1.891 -0.5499  0.4915 -1.5257
11450TIP3    H234292   2.961   5.530   1.788 -0.4158 -0.9107 -0.7518
11451TIP3   OH234293   7.640   2.514   1.624  0.0230 -0.2405  0.5952
11451TIP3    H134294   7.716   2.482   1.673  0.8645 -0.1431 -0.6062
11451TIP3    H234295   7.603   2.435   1.583 -0.3114 -0.2324  0.8731
11452TIP3   OH234296   6.300   6.097   0.940  0.0035  0.0948  0.2706
11452TIP3    H134297   6.238   6.170   0.948  1.2534  1.0301  2.2171
11452TIP3    H234298   6.383   6.132   0.974  1.3607 -1.4223 -1.3256
11453TIP3   OH234299   8.024   6.168   3.320  0.4139  0.0976  0.2843
11453TIP3    H134300   8.024   6.082   3.362 -1.3558 -0.7027 -1.1939
11453TIP3    H234301   8.008   6.230   3.391 -1.1942 -1.0758  1.0176
11454TIP3   OH234302   2.323   0.294   5.545  0.3022 -0.1953 -0.0147
11454TIP3    H134303   2.410   0.327   5.525  0.5357 -0.6908  0.1641
11454TIP3    H234304   2.327   0.271   5.638  0.3268 -1.2534 -0.2685
11455TIP3   OH234305   2.710   1.902   0.112  0.0130 -0.0193  0.3294
11455TIP3    H134306   2.628   1.853   0.110 -0.3552  0.5652 -2.0943
11455TIP3    H234307   2.714   1.939   0.200 -1.4812 -1.3936  1.0314
11456TIP3   OH234308   5.830   2.266   3.568 -0.4948 -0.1284 -0.5905
11456TIP3    H134309   5.752   2.264   3.511 -1.0557  1.6933  0.0289
11456TIP3    H234310   5.802   2.316   3.644  0.3296 -2.2829  1.2171
11457TIP3   OH234311   1.462   3.407   4.320 -0.2464 -0.1797 -0.4053
11457TIP3    H134312   1.370   3.379   4.315 -0.9322  1.8507 -0.3422
11457TIP3    H234313   1.494   3.399   4.230 -0.8829  0.2844 -0.6809
11458TIP3   OH234314   0.291   6.142   5.993  0.0452 -0.2877 -0.2653
11458TIP3    H134315   0.195   6.142   5.998 -0.2120  2.5108 -2.6453
11458TIP3    H234316   0.310   6.174   5.905  3.2388 -2.7609 -0.6676
11459TIP3   OH234317   2.163   3.418   3.529 -0.0273  0.3916  0.0229
11459TIP3    H134318   2.121   3.370   3.600  0.5292  1.8040  1.3586
11459TIP3    H234319   2.239   3.461   3.569  0.8175  0.5315 -1.6146
11460TIP3   OH234320   5.637   6.541   6.336 -0.2405  0.0647 -0.6242
11460TIP3    H134321   5.545   6.522   6.315 -1.2842  0.7316  2.7649
11460TIP3    H234322   5.659   6.479   6.406  1.0890  1.4789  0.2752
11461TIP3   OH234323   1.944   7.423   4.565 -0.4682  0.3569 -0.8107
11461TIP3    H134324   1.950   7.518   4.577 -0.7668  0.1728  1.3477
11461TIP3    H234325   2.035   7.395   4.553  0.1247  0.5948  2.2788
11462TIP3   OH234326   0.177   3.911   0.149  0.0886 -0.1613  0.0057
11462TIP3    H134327   0.195   3.895   0.241 -2.8141 -0.1664  0.6578
11462TIP3    H234328   0.221   3.839   0.103  0.9308 -0.5856  1.4307
11463TIP3   OH234329   7.446   3.660   1.436 -0.1210  0.2960  0.7869
11463TIP3    H134330   7.464   3.597   1.506  1.4556 -0.8040 -0.5435
11463TIP3    H234331   7.360   3.634   1.402  1.3198 -2.5872 -1.0865
11464TIP3   OH234332   1.383   5.245   3.748 -0.4092  0.3627 -0.2558
11464TIP3    H134333   1.307   5.243   3.690 -1.3397  0.0765  0.9303
11464TIP3    H234334   1.352   5.289   3.827  0.6380  0.1762  0.2844
11465TIP3   OH234335   5.944   3.022   4.467  0.5228  0.0361 -0.9221
11465TIP3    H134336   5.926   2.931   4.441  1.2034 -0.0232 -1.2149
11465TIP3    H234337   5.884   3.074   4.415  1.4661 -0.1226 -2.2071
11466TIP3   OH234338   7.074   0.221   2.259  0.3648 -0.0782  0.3363
11466TIP3    H134339   7.083   0.216   2.354 -0.3207  3.3835  0.7063
11466TIP3    H234340   6.986   0.188   2.241  0.3286 -0.3244  0.9464
11467TIP3   OH234341   3.456   2.579   0.338  0.2282  0.6936 -0.3869
11467TIP3    H134342   3.403   2.535   0.271  0.3039  0.7299 -0.4713
11467TIP3    H234343   3.520   2.514   0.365 -0.1203  0.5103  0.0167
11468TIP3   OH234344   3.807   0.013   0.315 -0.5238  0.1198 -0.2479
11468TIP3    H134345   3.731   0.061   0.346 -0.8020  0.7261 -1.7821
11468TIP3    H234346   3.806   0.025   0.220  0.2891 -1.6193 -0.5208
11469TIP3   OH234347   5.806   7.694   2.041  0.3758 -0.3922  0.1850
11469TIP3    H134348   5.797   7.757   1.970 -0.6930  1.4458  1.8379
11469TIP3    H234349   5.745   7.624   2.018  0.2313  0.0438 -0.8166
11470TIP3   OH234350   5.554   7.844   6.188  0.5440 -0.0045  0.5887
11470TIP3    H134351   5.497   7.920   6.193  0.2201 -0.2565  0.7959
11470TIP3    H234352   5.495   7.771   6.169  0.7693 -0.2933  0.9704
11471TIP3   OH234353   0.814   5.252   4.032 -0.1041  0.1294 -0.0567
11471TIP3    H134354   0.863   5.197   3.971  0.8153  0.6823  0.1706
11471TIP3    H234355   0.794   5.332   3.984  0.5188  0.5170  0.3100
11472TIP3   OH234356   5.193   4.087   0.962 -0.2011  0.3432 -0.1701
11472TIP3    H134357   5.117   4.031   0.978  0.4173 -1.3181 -2.3660
11472TIP3    H234358   5.268   4.031   0.983  0.4423  0.1967 -2.5142
11473TIP3   OH234359   4.669   5.452   4.814 -0.3709 -0.7015  0.3000
11473TIP3    H134360   4.761   5.463   4.838 -0.6149 -1.4227  1.6893
11473TIP3    H234361   4.671   5.412   4.727  0.5663  1.7524 -0.8955
11474TIP3   OH234362   7.424   3.136   5.397  0.5818  0.5714  0.3460
11474TIP3    H134363   7.473   3.173   5.470 -0.5230 -1.2339  2.0929
11474TIP3    H234364   7.347   3.193   5.390 -0.3094 -0.3668  1.9581
11475TIP3   OH234365   2.451   2.296   6.273  0.1112  0.5945  0.2449
11475TIP3    H134366   2.472   2.223   6.215  0.3758  0.3946  0.5937
11475TIP3    H234367   2.384   2.262   6.332  0.1581  0.6637  0.3393
11476TIP3   OH234368   6.615   7.714   1.572  0.4217 -0.0566 -0.4363
11476TIP3    H134369   6.558   7.732   1.647  0.1128  0.6853 -0.8446
11476TIP3    H234370   6.701   7.745   1.600  0.2661  0.4062 -0.4570
11477TIP3   OH234371   4.644   6.001   1.750  0.0183  0.2809  0.3991
11477TIP3    H134372   4.638   6.097   1.747  0.3243  0.2865 -0.2726
11477TIP3    H234373   4.650   5.980   1.843 -1.1939  0.8393  0.6184
11478TIP3   OH234374   4.479   1.433   1.152  0.2113  0.0729 -0.1358
11478TIP3    H134375   4.452   1.343   1.132 -1.2382  0.7592 -1.5409
11478TIP3    H234376   4.415   1.463   1.216  0.5258  0.2007  0.1196
11479TIP3   OH234377   2.469   2.955   6.717 -0.5316 -0.0747 -0.2148
11479TIP3    H134378   2.534   2.981   6.782  0.2956 -1.4750 -0.4270
11479TIP3    H234379   2.484   3.014   6.643 -1.9722  2.0225  1.0693
11480TIP3   OH234380   3.891   7.236   6.844 -0.0996  0.0121 -0.0883
11480TIP3    H134381   3.942   7.157   6.822 -0.4012 -0.1073 -0.3712
11480TIP3    H234382   3.940   7.308   6.804  0.8669  0.1314  1.2453
11481TIP3   OH234383   2.591   0.716   1.654  0.5914 -0.5337 -0.5021
11481TIP3    H134384   2.624   0.785   1.712 -0.3112  0.0102 -0.6101
11481TIP3    H234385   2.648   0.641   1.669  0.7279 -0.2049  0.6555
11482TIP3   OH234386   1.042   0.373   3.765  0.7300  0.0728 -0.1157
11482TIP3    H134387   1.055   0.366   3.860 -1.4451 -1.4253  0.1289
11482TIP3    H234388   1.131   0.379   3.730  1.9162 -3.4997  1.7573
11483TIP3   OH234389   2.649   2.850   2.502 -0.5281 -0.3131  0.6738
11483TIP3    H134390   2.717   2.829   2.566  0.3912 -1.7077 -0.7067
11483TIP3    H234391   2.576   2.793   2.526 -0.4585 -0.3066  0.9096
11484TIP3   OH234392   5.292   7.626   3.281 -0.2287 -0.5068  0.3270
11484TIP3    H134393   5.208   7.649   3.321 -0.0376  0.3383  0.2490
11484TIP3    H234394   5.275   7.631   3.187 -0.6932 -2.5451  0.2476
11485TIP3   OH234395   0.894   2.640   5.756 -0.0572 -0.4375  0.1735
11485TIP3    H134396   0.839   2.588   5.698 -1.2383  2.4862 -1.5437
11485TIP3    H234397   0.979   2.642   5.712 -0.1472 -0.5165 -0.0066
11486TIP3   OH234398   1.655   1.322   5.506  0.1608 -0.3764 -0.1306
11486TIP3    H134399   1.702   1.243   5.480 -0.1674 -0.7700  0.4684
11486TIP3    H234400   1.659   1.323   5.601  0.0295  0.2518 -0.1276
11487TIP3   OH234401   2.043   0.121   5.858 -0.5708 -0.3078 -0.1097
11487TIP3    H134402   2.045   0.210   5.825  1.1896  1.1992  3.5255
11487TIP3    H234403   1.971   0.121   5.922 -0.3116 -1.4033  0.2027
11488TIP3   OH234404   2.270   3.192   3.403 -0.1124 -0.0236 -0.1788
11488TIP3    H134405   2.186   3.147   3.413  0.3442 -0.7237  0.7280
11488TIP3    H234406   2.250   3.284   3.417 -0.8580 -0.0957 -0.7423
11489TIP3   OH234407   5.202   0.592   6.178 -0.3762  0.2795  0.2651
11489TIP3    H134408   5.254   0.625   6.105  0.2989  1.7851  1.3762
11489TIP3    H234409   5.218   0.653   6.249 -3.2715  0.5284  0.8416
11490TIP3   OH234410   1.653   4.299   4.434 -0.4972  0.4065 -0.2508
11490TIP3    H134411   1.734   4.264   4.398 -0.4597  1.0071 -0.7737
11490TIP3    H234412   1.625   4.234   4.498 -0.7188 -0.8482 -1.5626
11491TIP3   OH234413   4.883   4.892   4.414  0.8672  0.4569 -0.1090
11491TIP3    H134414   4.933   4.816   4.445  0.3067  0.9664  2.2051
11491TIP3    H234415   4.949   4.961   4.405  0.6655  1.6057  4.4815
11492TIP3   OH234416   8.225   2.716   5.388 -0.0006  0.4036 -0.2994
11492TIP3    H134417   8.276   2.663   5.449 -2.7540  0.3422  2.1401
11492TIP3    H234418   8.281   2.792   5.370  2.8631 -1.8203 -1.6578
11493TIP3   OH234419   7.849   2.605   3.144 -0.6793  0.2261 -0.1638
11493TIP3    H134420   7.857   2.636   3.054  0.4109 -1.2445 -0.6203
11493TIP3    H234421   7.793   2.528   3.137 -0.8104  0.2639  0.4670
11494TIP3   OH234422   0.006   7.487   5.738  0.8681 -0.5495 -0.6218
11494TIP3    H134423   0.048   7.522   5.818 -0.1786 -0.7279  0.0190
11494TIP3    H234424   0.043   7.540   5.667 -0.1191  1.4221  0.2469
11495TIP3   OH234425   5.668   2.484   1.656  0.1362  0.2246 -0.3791
11495TIP3    H134426   5.621   2.426   1.596 -0.9703  1.7593 -1.0770
11495TIP3    H234427   5.602   2.510   1.720  0.1937  1.7871 -0.9018
11496TIP3   OH234428   2.133   5.931   3.806  0.3274 -0.2414 -0.2364
11496TIP3    H134429   2.098   5.971   3.886 -1.5990 -0.8193 -0.7448
11496TIP3    H234430   2.093   5.982   3.735  0.3082 -1.1024 -0.8472
11497TIP3   OH234431   0.087   6.583   3.075 -0.3647  0.0789  0.1271
11497TIP3    H134432   0.090   6.490   3.051  1.0046  0.1476 -0.0068
11497TIP3    H234433   0.074   6.628   2.992 -1.3695  0.0096  0.2294
11498TIP3   OH234434   1.111   3.750   1.359  0.0864 -0.3611 -0.1825
11498TIP3    H134435   1.051   3.721   1.427  0.6618  0.3629  0.6585
11498TIP3    H234436   1.184   3.689   1.363  0.6397  0.3390  0.6241
11499TIP3   OH234437   7.899   6.192   0.741 -0.0049  0.7685  0.5813
11499TIP3    H134438   7.845   6.140   0.682  0.2290  1.3461 -0.1482
11499TIP3    H234439   7.988   6.180   0.710 -0.2364  5.9344 -3.2717
11500TIP3   OH234440   7.986   2.100   4.335 -0.3234 -0.1544 -0.3981
11500TIP3    H134441   8.008   2.028   4.394 -1.3457  0.7491  1.1764
11500TIP3    H234442   8.059   2.105   4.274  0.9836 -0.8910  1.0489
11501TIP3   OH234443   5.430   6.549   5.516  0.3477  0.1675 -0.8973
11501TIP3    H134444   5.505   6.608   5.510  0.1428  0.4490 -0.7041
11501TIP3    H234445   5.464   6.471   5.560  0.5314  0.2824 -0.8350
11502TIP3   OH234446   0.913   6.524   5.910 -0.6696  0.1415 -0.4938
11502TIP3    H134447   0.870   6.516   5.995 -0.1838  0.0555 -0.2514
11502TIP3    H234448   0.849   6.568   5.855 -1.8814 -1.7951 -0.7191
11503TIP3   OH234449   7.955   2.141   5.556 -0.1974 -0.0716  0.0266
11503TIP3    H134450   7.896   2.212   5.533  0.4591  1.3059  2.2173
11503TIP3    H234451   7.911   2.095   5.627 -0.7264 -2.1060 -1.5289
11504TIP3   OH234452   2.962   7.541   6.023 -0.5718  0.0895  0.0890
11504TIP3    H134453   2.915   7.537   6.107 -0.1570  0.9637  0.3786
11504TIP3    H234454   3.052   7.515   6.044 -0.6320 -0.3669 -0.2186
11505TIP3   OH234455   3.874   2.939   0.190  0.3193 -0.2528  0.3977
11505TIP3    H134456   3.942   2.969   0.250 -0.0939  0.3616  0.5681
11505TIP3    H234457   3.794   2.978   0.223  0.0391 -0.1310 -0.4011
11506TIP3   OH234458   1.146   6.301   2.690 -0.4592 -0.0524 -0.0230
11506TIP3    H134459   1.156   6.265   2.602 -0.2352  1.6157 -0.7207
11506TIP3    H234460   1.074   6.363   2.682  1.0639  1.8515  0.3634
11507TIP3   OH234461   5.627   0.654   3.601  0.2216  0.2364 -0.0915
11507TIP3    H134462   5.611   0.672   3.694 -0.3258 -0.2856 -0.0871
11507TIP3    H234463   5.713   0.612   3.600 -0.2513 -0.7516  0.2896
11508TIP3   OH234464   8.160   5.531   1.093  0.0284 -0.5522  0.6335
11508TIP3    H134465   8.067   5.506   1.091  0.0356 -0.7264  1.9347
11508TIP3    H234466   8.185   5.523   1.185  1.1866  0.0676  0.3836
11509TIP3   OH234467   8.293   4.018   6.609  0.5509  0.0727  0.2441
11509TIP3    H134468   8.345   4.097   6.623  1.5725 -0.3280 -1.0879
11509TIP3    H234469   8.352   3.946   6.634 -0.5780 -0.2944  2.0639
11510TIP3   OH234470   2.446   0.782   0.348  0.3728 -0.6889 -0.2957
11510TIP3    H134471   2.508   0.714   0.374 -1.6827 -3.0912 -1.3532
11510TIP3    H234472   2.371   0.769   0.406  0.1169  1.0549 -0.1901
11511TIP3   OH234473   6.394   2.596   3.027 -0.5238  0.7053 -0.1311
11511TIP3    H134474   6.384   2.686   3.059  3.4848  0.5583  2.1989
11511TIP3    H234475   6.450   2.604   2.951 -0.0379  0.1960  0.1674
11512TIP3   OH234476   1.951   7.807   3.768 -0.8637 -0.1959  0.2257
11512TIP3    H134477   1.948   7.811   3.672 -2.3583  0.9024  0.2768
11512TIP3    H234478   2.037   7.841   3.791 -0.6894  0.0301 -0.7224
11513TIP3   OH234479   4.610   4.779   4.692  0.2972 -0.0932  0.0492
11513TIP3    H134480   4.551   4.845   4.654 -0.1768 -0.2038  0.5846
11513TIP3    H234481   4.684   4.830   4.726  0.1520  0.1177  0.0514
11514TIP3   OH234482   2.336   4.609   1.885 -0.3541  0.2081  0.1291
11514TIP3    H134483   2.362   4.664   1.811 -0.6927  2.3795  1.5172
11514TIP3    H234484   2.248   4.639   1.906 -0.9815 -1.6636  0.3028
11515TIP3   OH234485   0.956   4.137   1.879  0.4369  0.1963  0.5183
11515TIP3    H134486   0.956   4.081   1.957  1.4197  3.2618  2.9633
11515TIP3    H234487   1.045   4.171   1.875  0.4616 -0.0258 -2.1660
11516TIP3   OH234488   6.566   7.550   0.897 -0.6039  0.1691  0.0242
11516TIP3    H134489   6.527   7.631   0.864 -2.5819 -0.9643 -0.5714
11516TIP3    H234490   6.557   7.557   0.992  0.4685  1.2061  0.0730
11517TIP3   OH234491   4.451   2.811   4.192  0.0258  0.0578  0.0412
11517TIP3    H134492   4.512   2.780   4.125 -1.1364  1.5933 -1.8684
11517TIP3    H234493   4.487   2.895   4.220 -0.6621  0.5323 -0.4272
11518TIP3   OH234494   4.806   1.007   0.917  0.5486 -0.1770 -0.0183
11518TIP3    H134495   4.827   0.918   0.889  0.2737 -0.7922  1.5841
11518TIP3    H234496   4.888   1.055   0.910  1.2695 -1.1629  1.2020
11519TIP3   OH234497   4.412   6.650   4.829  0.8059 -0.3318  0.7969
11519TIP3    H134498   4.359   6.720   4.791  0.5893 -0.2096  1.3032
11519TIP3    H234499   4.500   6.687   4.836  0.7429 -0.1902  0.8496
11520TIP3   OH234500   6.771   6.437   2.789  0.6885 -0.2454  0.6592
11520TIP3    H134501   6.729   6.521   2.806  1.6339  0.4505 -0.2855
11520TIP3    H234502   6.796   6.404   2.876  2.3902  1.5968  0.9440
11521TIP3   OH234503   5.879   2.742   6.082 -0.3245  0.2284 -0.0201
11521TIP3    H134504   5.883   2.655   6.121 -0.3867  1.3895  2.8339
11521TIP3    H234505   5.791   2.748   6.045 -0.4208 -0.7874  0.0214
11522TIP3   OH234506   7.071   6.578   2.737 -0.2361 -0.6315  0.0661
11522TIP3    H134507   7.105   6.553   2.822  0.6487 -1.4849 -0.5183
11522TIP3    H234508   6.977   6.556   2.741 -0.3754  0.1098  1.0850
11523TIP3   OH234509   2.205   0.894   1.471  0.0093 -0.4371 -0.4247
11523TIP3    H134510   2.229   0.845   1.392 -1.0401 -3.0149  0.7156
11523TIP3    H234511   2.120   0.933   1.451 -0.9962 -2.3584 -0.1634
11524TIP3   OH234512   5.003   7.091   2.095 -0.1707 -0.1047  0.6758
11524TIP3    H134513   5.095   7.098   2.119  0.3351 -2.3909 -0.2706
11524TIP3    H234514   4.996   7.004   2.054 -2.5031  0.4805 -0.3235
11525TIP3   OH234515   2.937   4.322   1.374 -0.2042  0.2925  0.0750
11525TIP3    H134516   2.863   4.326   1.435  1.6738 -1.1177  2.6729
11525TIP3    H234517   2.953   4.229   1.361  1.0406  0.5614 -0.4906
11526TIP3   OH234518   4.965   6.836   2.032 -0.0112  0.3124  0.1943
11526TIP3    H134519   4.999   6.749   2.049 -0.0547  0.3173  0.3103
11526TIP3    H234520   4.871   6.829   2.049 -0.1441  0.1878 -0.5615
11527TIP3   OH234521   5.369   7.915   5.326 -0.4418  0.3411 -0.4037
11527TIP3    H134522   5.406   7.829   5.304 -0.0782  0.8659 -1.9742
11527TIP3    H234523   5.288   7.895   5.373 -0.4487 -0.8638 -0.8917
11528TIP3   OH234524   5.815   3.739   5.833 -0.0654  0.4633  0.7489
11528TIP3    H134525   5.856   3.753   5.918  1.5988  0.6410 -0.0389
11528TIP3    H234526   5.889   3.728   5.773 -1.2055  0.1977 -0.6483
11529TIP3   OH234527   3.338   0.397   4.375 -0.2410  0.0466  0.0822
11529TIP3    H134528   3.270   0.416   4.311 -0.3911 -0.0225  0.2200
11529TIP3    H234529   3.326   0.464   4.443 -0.7245 -0.4967  0.5323
11530TIP3   OH234530   5.301   6.535   0.933 -0.2120  0.1512  0.3987
11530TIP3    H134531   5.356   6.574   1.000  0.2455  2.1467 -1.0347
11530TIP3    H234532   5.357   6.471   0.890  0.1427  0.2988  0.6400
11531TIP3   OH234533   1.027   7.828   3.109  0.8068 -0.2320  0.0212
11531TIP3    H134534   1.061   7.745   3.144 -0.4075 -0.4760  0.6466
11531TIP3    H234535   1.015   7.811   3.016 -1.8375 -1.6409  0.5274
11532TIP3   OH234536   6.348   4.785   5.170  0.8444 -0.2388  0.0692
11532TIP3    H134537   6.392   4.770   5.254  2.5311 -1.0420 -0.8987
11532TIP3    H234538   6.395   4.860   5.132  1.2228 -0.9329 -0.8617
11533TIP3   OH234539   1.219   2.502   1.532  0.8245  0.3212 -0.3529
11533TIP3    H134540   1.184   2.588   1.511  2.2506  1.2947  1.0778
11533TIP3    H234541   1.297   2.519   1.584  0.7278 -1.8525  0.6174
11534TIP3   OH234542   1.167   2.418   2.863  0.4856 -0.0951 -0.8848
11534TIP3    H134543   1.183   2.455   2.950 -1.1776 -0.2998 -0.4498
11534TIP3    H234544   1.205   2.330   2.867  1.2255  0.2240 -0.6883
11535TIP3   OH234545   5.999   2.743   4.417 -0.3651  0.0943  0.0599
11535TIP3    H134546   6.087   2.720   4.448 -1.4192 -1.3828  2.2552
11535TIP3    H234547   5.965   2.661   4.382 -1.4743  0.1760  0.8991
11536TIP3   OH234548   1.564   3.548   6.831  0.0727 -0.4197  0.6550
11536TIP3    H134549   1.568   3.455   6.810 -1.0271 -0.5337  0.8847
11536TIP3    H234550   1.481   3.558   6.878  0.0793  0.7148  0.4439
11537TIP3   OH234551   7.995   1.094   1.975  0.1180  0.5864 -0.2560
11537TIP3    H134552   7.923   1.095   1.912 -0.4759  1.9224  0.3992
11537TIP3    H234553   7.952   1.082   2.060  1.0280 -3.0586 -0.1438
11538TIP3   OH234554   5.919   5.659   3.517 -0.2086 -0.1160  0.5751
11538TIP3    H134555   5.964   5.733   3.478 -1.3083  0.4559  0.3580
11538TIP3    H234556   5.848   5.639   3.456  0.0725 -1.3688  0.6164
11539TIP3   OH234557   3.882   5.011   6.850  0.1763 -0.0712  0.0822
11539TIP3    H134558   3.875   5.086   6.909  1.7218  0.1750 -0.0112
11539TIP3    H234559   3.825   5.033   6.776 -1.4443 -0.1883  1.2362
11540TIP3   OH234560   3.040   1.219   1.448 -0.2878 -0.3294 -0.5570
11540TIP3    H134561   3.101   1.148   1.427  1.0883  0.0854  1.7192
11540TIP3    H234562   2.976   1.180   1.508 -1.3918 -0.3764 -1.7293
11541TIP3   OH234563   6.208   5.695   2.169  0.1073  0.4321  0.1062
11541TIP3    H134564   6.152   5.772   2.177  0.4599  0.6455  0.5607
11541TIP3    H234565   6.293   5.723   2.204  1.0100  0.6191 -2.1013
11542TIP3   OH234566   2.363   2.605   6.124 -0.5614  0.3415 -0.1390
11542TIP3    H134567   2.292   2.555   6.084  0.3099 -1.1970  0.1402
11542TIP3    H234568   2.440   2.583   6.071  0.0204  0.6558  0.5581
11543TIP3   OH234569   1.671   3.675   1.405  0.1642  0.7071 -0.0119
11543TIP3    H134570   1.630   3.676   1.492 -1.7526  1.1098 -0.8721
11543TIP3    H234571   1.662   3.585   1.375 -0.1068  0.7945 -0.1987
11544TIP3   OH234572   7.359   3.084   4.576  0.2444 -0.0179 -0.1635
11544TIP3    H134573   7.312   3.145   4.520 -0.0380  0.3920  0.5099
11544TIP3    H234574   7.451   3.101   4.557  0.1516 -1.0214 -1.6994
11545TIP3   OH234575   7.236   3.891   2.080  0.2658 -0.1037  0.0395
11545TIP3    H134576   7.321   3.860   2.049  1.3930  2.4863  0.2308
11545TIP3    H234577   7.227   3.854   2.167  1.2023 -0.4340  0.0045
11546TIP3   OH234578   1.954   7.172   2.377  0.5783 -0.2187 -0.1386
11546TIP3    H134579   1.989   7.093   2.334  0.8839  0.3628 -0.9818
11546TIP3    H234580   2.031   7.222   2.401  0.3803 -0.1441  0.3399
11547TIP3   OH234581   6.843   1.710   3.901  0.6041 -0.2956  0.2955
11547TIP3    H134582   6.929   1.700   3.859  0.3563  1.2494 -0.6449
11547TIP3    H234583   6.836   1.803   3.920 -0.8168 -0.4230  0.4849
11548TIP3   OH234584   0.904   4.826   5.604  0.1376 -0.1665 -0.0153
11548TIP3    H134585   0.937   4.737   5.616 -0.9953 -0.4298  1.4935
11548TIP3    H234586   0.857   4.845   5.686  1.2467  2.2282  0.1484
11549TIP3   OH234587   0.427   7.150   5.972  0.0113  0.4105  0.6184
11549TIP3    H134588   0.417   7.128   6.065  1.0190  2.8240  1.3804
11549TIP3    H234589   0.522   7.149   5.958 -0.1586 -0.9713 -0.7304
11550TIP3   OH234590   2.270   0.220   2.535 -0.2779  0.0722 -0.1174
11550TIP3    H134591   2.255   0.134   2.574  0.2041 -0.0105 -0.1065
11550TIP3    H234592   2.219   0.281   2.589  0.8099  0.0388  0.9768
11551TIP3   OH234593   4.650   3.425   4.118 -0.4738 -0.4071 -0.0450
11551TIP3    H134594   4.640   3.519   4.102  0.2263 -0.3939 -0.4766
11551TIP3    H234595   4.642   3.416   4.213 -0.1875  0.1406  0.0356
11552TIP3   OH234596   7.790   4.606   3.318 -0.0187  0.0695 -0.2845
11552TIP3    H134597   7.701   4.582   3.291  0.1350 -0.9009  0.0379
11552TIP3    H234598   7.845   4.536   3.284  0.3322 -0.5562  1.4629
11553TIP3   OH234599   7.555   3.659   6.383 -0.3854  0.3267 -0.6316
11553TIP3    H134600   7.595   3.746   6.390 -0.5906  0.3690  0.1258
11553TIP3    H234601   7.532   3.651   6.290  0.6285  0.6223 -0.9224
11554TIP3   OH234602   2.732   2.354   4.011 -0.4622 -0.0053 -0.4998
11554TIP3    H134603   2.732   2.401   3.927 -1.0330  0.9195  0.0078
11554TIP3    H234604   2.774   2.415   4.072  0.3330 -0.8409 -0.1863
11555TIP3   OH234605   7.341   3.999   5.361  0.0697 -0.1158  0.2234
11555TIP3    H134606   7.404   4.035   5.297 -0.4278  2.6911  1.1434
11555TIP3    H234607   7.378   3.915   5.387  2.2478  0.3980 -0.9590
11556TIP3   OH234608   6.988   0.033   4.604 -0.5077 -0.0630  0.0282
11556TIP3    H134609   6.981   0.125   4.625 -2.1749 -0.2175  0.2559
11556TIP3    H234610   6.990   0.030   4.508 -2.7861  0.1195 -0.0674
11557TIP3   OH234611   5.891   7.431   0.025 -0.5107  0.2332 -0.0320
11557TIP3    H134612   5.901   7.440  -0.070  0.3719  1.2563  0.1391
11557TIP3    H234613   5.902   7.519   0.059 -1.4025 -0.0332  0.9844
11558TIP3   OH234614   7.108   0.249   6.182  0.0452 -0.7866 -0.2010
11558TIP3    H134615   7.183   0.196   6.154  0.3749  0.0305 -0.8915
11558TIP3    H234616   7.089   0.305   6.108 -1.4758 -1.1973 -0.1639
11559TIP3   OH234617   3.395   0.026   2.175 -0.4851  0.0887 -0.5625
11559TIP3    H134618   3.317  -0.005   2.220 -0.0767 -1.4893 -0.9051
11559TIP3    H234619   3.455   0.051   2.246 -0.4418 -0.8843 -0.2386
11560TIP3   OH234620   1.521   3.362   6.581 -0.1795 -0.3348 -0.0976
11560TIP3    H134621   1.495   3.320   6.662 -0.7322  0.3941  0.1180
11560TIP3    H234622   1.608   3.328   6.562  0.0782 -0.2802  0.9607
11561TIP3   OH234623   6.776   3.009   4.256 -0.0689 -0.0220  0.3744
11561TIP3    H134624   6.714   3.068   4.215 -1.5149 -1.7480 -0.0347
11561TIP3    H234625   6.818   2.964   4.183  0.5937  0.0622  0.6932
11562TIP3   OH234626   7.766   1.403   5.488  0.1100 -0.4571 -0.4267
11562TIP3    H134627   7.717   1.470   5.440 -0.3278 -0.6243 -0.2222
11562TIP3    H234628   7.778   1.332   5.425  2.3629  0.6157 -1.2916
11563TIP3   OH234629   7.523   7.709   2.038  0.1272 -0.6119  0.4978
11563TIP3    H134630   7.559   7.733   1.953  0.2585  0.0100  0.7207
11563TIP3    H234631   7.597   7.717   2.098 -0.7160  2.6222  1.3122
11564TIP3   OH234632   8.413   6.952   3.315  0.0829 -0.0604 -0.1046
11564TIP3    H134633   8.419   6.882   3.379 -2.5600  1.2041  1.7100
11564TIP3    H234634   8.323   6.985   3.323  0.1035  1.2036 -3.4102
11565TIP3   OH234635   2.547   4.326   2.252  0.3112 -0.0806  0.3524
11565TIP3    H134636   2.517   4.250   2.202  1.0634 -0.8563  1.0435
11565TIP3    H234637   2.541   4.399   2.191  0.7215 -0.9149 -0.7248
11566TIP3   OH234638   1.476   4.075   0.359  0.2684 -0.1964  0.1126
11566TIP3    H134639   1.382   4.062   0.346 -0.1662  1.0039  1.7216
11566TIP3    H234640   1.508   4.108   0.275 -0.9689  0.4491 -0.1199
11567TIP3   OH234641   3.739   3.647   2.880  0.0600 -0.1790  0.3252
11567TIP3    H134642   3.688   3.590   2.822 -0.5332  1.1581 -0.5229
11567TIP3    H234643   3.696   3.732   2.873  0.9499  0.3929  1.5186
11568TIP3   OH234644   7.233   4.409   6.123 -0.2722  0.1725  0.6690
11568TIP3    H134645   7.274   4.414   6.210  0.4561 -0.1346  0.3522
11568TIP3    H234646   7.230   4.500   6.094  1.5635  0.0982  0.0902
11569TIP3   OH234647   5.867   0.266   3.777  0.0440 -0.7425  0.4666
11569TIP3    H134648   5.775   0.245   3.786 -0.6011  1.6797  0.2639
11569TIP3    H234649   5.880   0.342   3.834  1.0700  1.0222 -1.9562
11570TIP3   OH234650   5.507   5.998   3.008 -0.5636  0.4740  0.7663
11570TIP3    H134651   5.423   6.042   2.992 -0.9252 -0.3116  0.4662
11570TIP3    H234652   5.483   5.915   3.048 -0.3679 -2.0745 -3.7416
11571TIP3   OH234653   7.180   7.666   3.243  0.2925 -0.1305  0.1309
11571TIP3    H134654   7.119   7.604   3.283 -0.5584  1.7565  1.9904
11571TIP3    H234655   7.135   7.697   3.164 -0.5201  0.1286  0.6827
11572TIP3   OH234656   7.508   1.657   3.348  0.5624 -0.2060  0.2688
11572TIP3    H134657   7.494   1.590   3.281 -1.5721  1.3546 -0.9642
11572TIP3    H234658   7.442   1.637   3.415 -0.3345  0.8208 -0.2812
11573TIP3   OH234659   1.110   0.672   6.623  0.6788 -0.0556 -0.0309
11573TIP3    H134660   1.139   0.704   6.708 -1.0813  1.8541 -0.0728
11573TIP3    H234661   1.019   0.702   6.616  1.0053  0.5132 -2.9237
11574TIP3   OH234662   7.529   4.046   0.241 -0.1272  0.2613  0.0647
11574TIP3    H134663   7.601   4.057   0.303 -0.5857  0.2552  0.6081
11574TIP3    H234664   7.450   4.044   0.296 -0.3995 -1.8945 -0.3093
11575TIP3   OH234665   5.691   5.034   5.502 -0.0365 -0.0275 -0.3028
11575TIP3    H134666   5.687   5.071   5.590  0.0331 -1.2589  0.2374
11575TIP3    H234667   5.730   4.947   5.514 -1.8171 -1.0137 -1.2646
11576TIP3   OH234668   4.830   6.629   4.747 -0.4183 -0.1896 -0.6847
11576TIP3    H134669   4.886   6.565   4.791  0.2510  1.0241  0.2995
11576TIP3    H234670   4.771   6.661   4.816  0.6140  1.7163 -0.6068
11577TIP3   OH234671   7.851   4.062   6.016 -0.5080 -0.9465  0.3068
11577TIP3    H134672   7.805   4.137   5.979  0.8226  0.5010  1.4537
11577TIP3    H234673   7.831   4.065   6.109 -0.0266 -1.7109  0.4415
11578TIP3   OH234674   1.862   2.694   3.595  0.5225 -0.2251 -0.6671
11578TIP3    H134675   1.938   2.661   3.642  2.6518  4.7449 -0.0095
11578TIP3    H234676   1.883   2.680   3.502  1.2181 -0.7750 -0.4284
11579TIP3   OH234677   8.334   0.839   3.965  0.3678  0.1512  0.7122
11579TIP3    H134678   8.266   0.772   3.969  0.0768  0.3459 -0.6533
11579TIP3    H234679   8.302   0.908   4.023 -0.2275 -0.0885  0.6798
11580TIP3   OH234680   5.452   5.895   4.057  0.0939  0.0424 -0.0014
11580TIP3    H134681   5.431   5.979   4.098 -1.0731  0.2547 -0.9597
11580TIP3    H234682   5.414   5.902   3.969  0.0118 -1.4796 -0.1080
11581TIP3   OH234683   1.588   5.213   2.080 -0.0223  0.3013  0.1528
11581TIP3    H134684   1.528   5.265   2.026  1.6552  1.3397 -0.8073
11581TIP3    H234685   1.670   5.211   2.030  1.0188 -0.3290  1.7981
11582TIP3   OH234686   6.216   0.433   5.344 -0.1168  0.3040  0.5074
11582TIP3    H134687   6.194   0.518   5.306  0.7252 -0.0281 -0.7601
11582TIP3    H234688   6.277   0.393   5.282  1.4106 -0.2110  2.2472
11583TIP3   OH234689   5.439   0.477   1.387 -0.1287 -0.5280 -0.8629
11583TIP3    H134690   5.507   0.410   1.372  1.0190  0.4811 -0.3550
11583TIP3    H234691   5.469   0.552   1.335  0.6611  0.9010  1.5040
11584TIP3   OH234692   5.870   4.211   5.860 -0.3998  0.4680 -0.0518
11584TIP3    H134693   5.812   4.279   5.825 -0.8981  1.0198  1.7326
11584TIP3    H234694   5.900   4.163   5.783 -0.1766  2.5848 -1.3587
11585TIP3   OH234695   2.502   2.518   5.394 -0.0263 -0.0030 -0.0756
11585TIP3    H134696   2.561   2.591   5.376  2.9724 -1.8576  1.3850
11585TIP3    H234697   2.529   2.449   5.332  0.0745 -1.2234  1.2668
11586TIP3   OH234698   2.227   2.470   1.796  0.0611 -0.0008  0.3257
11586TIP3    H134699   2.150   2.428   1.756  0.7973  0.6248 -1.8719
11586TIP3    H234700   2.198   2.492   1.884 -1.0488 -3.1947  0.9218
11587TIP3   OH234701   1.392   1.088   6.169  0.1688  0.2346 -0.0178
11587TIP3    H134702   1.355   1.055   6.087 -2.9131  0.6633  1.0670
11587TIP3    H234703   1.441   1.166   6.144 -0.0180 -0.1148 -1.5560
11588TIP3   OH234704   7.614   1.992   0.911 -0.2094 -0.1506  0.0881
11588TIP3    H134705   7.643   2.072   0.866 -0.3130  0.2016  0.6444
11588TIP3    H234706   7.635   2.007   1.003 -2.1846  0.1301  0.5326
11589TIP3   OH234707   4.501   4.901   0.895  0.1746  0.1976 -0.0755
11589TIP3    H134708   4.466   4.881   0.982 -1.7054 -1.0882 -1.0685
11589TIP3    H234709   4.579   4.845   0.887  1.0798  1.2193  1.1946
11590TIP3   OH234710   2.355   3.170   4.453  0.8847  0.1633 -0.3795
11590TIP3    H134711   2.369   3.090   4.402 -0.6001 -0.4599  0.1196
11590TIP3    H234712   2.404   3.156   4.534  1.1844  0.0471 -0.5822
11591TIP3   OH234713   7.392   3.459   3.668  1.0569  0.2768  0.4117
11591TIP3    H134714   7.319   3.496   3.718 -1.2040 -1.4263 -1.3939
11591TIP3    H234715   7.464   3.453   3.731 -0.6107  1.2077  2.5319
11592TIP3   OH234716   1.678   4.519   5.272 -0.3710 -0.0600  0.0967
11592TIP3    H134717   1.754   4.485   5.225 -1.2211 -1.1837 -0.5018
11592TIP3    H234718   1.618   4.548   5.204  0.5741  3.4721  0.5422
11593TIP3   OH234719   2.415   1.969   6.657 -0.1654  0.1881  0.0368
11593TIP3    H134720   2.395   1.893   6.711 -1.5394  0.9337  0.6190
11593TIP3    H234721   2.482   1.938   6.595  1.2578 -0.7561  1.9533
11594TIP3   OH234722   3.064   3.486   0.900 -0.1698  0.0024  0.0537
11594TIP3    H134723   3.065   3.395   0.930  0.5042 -0.2759 -0.7764
11594TIP3    H234724   3.021   3.483   0.815  1.2926  0.1909 -0.7305
11595TIP3   OH234725   0.096   2.478   2.811  0.1905  0.1908  0.2449
11595TIP3    H134726   0.160   2.529   2.761  1.5390 -1.6690  0.0002
11595TIP3    H234727   0.125   2.487   2.902  0.4368 -0.1398  0.2004
11596TIP3   OH234728   2.715   2.638   1.197 -0.5556 -0.4549  0.1544
11596TIP3    H134729   2.799   2.629   1.151  0.2715  0.0026  1.5128
11596TIP3    H234730   2.652   2.656   1.128  1.0231  2.7313 -0.6780
11597TIP3   OH234731   5.211   1.823   6.751  0.3137 -0.2181  0.4885
11597TIP3    H134732   5.140   1.826   6.687 -1.6450 -0.9204  2.5390
11597TIP3    H234733   5.271   1.894   6.723 -0.5942 -0.3002 -1.8906
11598TIP3   OH234734   0.488   3.836   6.520 -0.0860 -0.0059  0.5868
11598TIP3    H134735   0.578   3.807   6.536 -0.2124 -0.1981  0.9653
11598TIP3    H234736   0.489   3.867   6.430 -0.0860 -1.8047 -0.0748
11599TIP3   OH234737   4.644   3.359   2.825  0.5021 -0.4186 -0.4039
11599TIP3    H134738   4.570   3.345   2.885  1.6616 -0.0604  1.1802
11599TIP3    H234739   4.665   3.452   2.834  1.4240 -0.6096 -0.4684
11600TIP3   OH234740   3.418   7.178   1.094 -0.5251 -0.0162 -0.0148
11600TIP3    H134741   3.441   7.116   1.024 -3.0836 -1.5179  0.3693
11600TIP3    H234742   3.379   7.124   1.162 -0.5080  1.7587  1.4699
11601TIP3   OH234743   2.907   0.862   1.365  0.6544  0.4965 -0.2548
11601TIP3    H134744   2.823   0.892   1.328  0.9782  2.0564  0.1864
11601TIP3    H234745   2.964   0.853   1.289  0.0320 -0.8322 -0.5884
11602TIP3   OH234746   7.122   2.848   3.824 -0.0809  0.2548  0.2517
11602TIP3    H134747   7.061   2.775   3.815 -1.0093  0.9816  0.4128
11602TIP3    H234748   7.208   2.808   3.825 -0.5524 -0.8054 -0.0187
11603TIP3   OH234749   0.700   4.342   2.731 -0.0541 -0.2531 -0.0207
11603TIP3    H134750   0.691   4.410   2.799 -0.6805  0.6116 -0.9387
11603TIP3    H234751   0.669   4.384   2.651  0.3402 -1.3716 -0.7849
11604TIP3   OH234752   2.016   7.573   5.965  0.0228  0.5954 -0.1560
11604TIP3    H134753   2.061   7.655   5.987  1.4186 -0.1790 -0.0392
11604TIP3    H234754   2.086   7.511   5.947 -0.9903 -0.8413  0.6506
11605TIP3   OH234755   5.873   4.640   1.249 -0.0808  0.1487  0.6376
11605TIP3    H134756   5.946   4.671   1.195 -0.0717  0.7560  0.9908
11605TIP3    H234757   5.901   4.658   1.339 -0.3618 -0.2806  0.8089
11606TIP3   OH234758   4.014   5.501   1.615  0.2551 -0.2515  0.3853
11606TIP3    H134759   4.103   5.536   1.606  0.1201 -0.4083 -2.3814
11606TIP3    H234760   3.957   5.577   1.606  0.0790 -0.5379 -1.3186
11607TIP3   OH234761   5.055   3.111   2.751 -0.1208  0.5800 -0.3943
11607TIP3    H134762   5.073   3.057   2.674  0.6247  0.6108 -0.2478
11607TIP3    H234763   5.098   3.065   2.823  1.0094  1.6367 -0.3565
11608TIP3   OH234764   1.325   1.309   1.040 -0.1358  0.5945 -0.2499
11608TIP3    H134765   1.366   1.314   1.127 -1.6209 -0.0967  0.5160
11608TIP3    H234766   1.306   1.400   1.017 -0.7509  0.7091  0.6662
11609TIP3   OH234767   7.688   6.791   4.053  0.6121 -0.6122  0.3654
11609TIP3    H134768   7.743   6.724   4.015  1.6975 -0.6963  1.9985
11609TIP3    H234769   7.717   6.873   4.012 -0.2722 -1.0182 -1.1392
11610TIP3   OH234770   2.131   5.525   1.577  0.7544 -0.4685 -0.1719
11610TIP3    H134771   2.052   5.514   1.630  0.1489 -1.7523 -1.2660
11610TIP3    H234772   2.141   5.441   1.531  2.9428 -0.4576  0.1750
11611TIP3   OH234773   8.137   6.871   0.163  0.3931 -0.2117  0.0818
11611TIP3    H134774   8.106   6.934   0.098  0.2367 -0.0324  0.3267
11611TIP3    H234775   8.134   6.787   0.118  0.1615 -0.1087 -0.1020
11612TIP3   OH234776   5.342   7.822   3.761 -0.0322 -0.4207 -0.6376
11612TIP3    H134777   5.429   7.792   3.787 -0.1997 -1.0222 -0.7603
11612TIP3    H234778   5.359   7.891   3.696  0.3556 -0.1768 -0.2831
11613TIP3   OH234779   4.313   2.003   2.772 -0.0054  0.1763 -0.1585
11613TIP3    H134780   4.357   2.088   2.764 -0.0417  0.1107 -1.1833
11613TIP3    H234781   4.369   1.953   2.832 -0.0356  0.9462  0.5312
11614TIP3   OH234782   5.840   0.664   4.171  0.4786  0.1843  0.9944
11614TIP3    H134783   5.773   0.637   4.235  1.6033  0.7127  2.4607
11614TIP3    H234784   5.904   0.712   4.223  2.2727 -0.7472 -0.2446
11615TIP3   OH234785   1.425   7.815   2.992 -0.0816 -0.5565 -0.4489
11615TIP3    H134786   1.463   7.805   3.079  1.8090  0.6635 -1.0792
11615TIP3    H234787   1.406   7.725   2.964 -2.1541 -0.9106  1.7502
11616TIP3   OH234788   4.613   1.995   5.164  0.1186 -0.1634 -0.1237
11616TIP3    H134789   4.707   1.974   5.158  0.3578  0.8696 -0.1740
11616TIP3    H234790   4.608   2.062   5.232 -0.7308 -0.9896  0.6606
11617TIP3   OH234791   5.041   0.542   4.905  0.1955  0.2628  0.1756
11617TIP3    H134792   5.005   0.570   4.821 -0.2523 -2.2357 -0.5447
11617TIP3    H234793   5.116   0.488   4.883  0.5635  0.2140  1.4375
11618TIP3   OH234794   4.948   3.142   0.778 -0.1626  0.0542 -0.3192
11618TIP3    H134795   4.907   3.228   0.768 -1.4285 -0.4620  0.2717
11618TIP3    H234796   4.987   3.124   0.692 -0.6407  0.8353 -0.7122
11619TIP3   OH234797   4.913   7.783   0.002 -0.0793  0.4199  0.1969
11619TIP3    H134798   4.894   7.823   0.086  2.1980 -2.8824  2.5582
11619TIP3    H234799   4.830   7.742  -0.025 -0.3448 -0.3354  2.0359
11620TIP3   OH234800   3.985   2.132   6.762  0.4103 -0.2751  0.3378
11620TIP3    H134801   3.917   2.136   6.829 -0.0206  1.8737 -0.1332
11620TIP3    H234802   4.025   2.219   6.764  0.0938  0.0488 -2.4291
11621TIP3   OH234803   5.968   5.182   2.787 -0.4721 -0.5376  0.0603
11621TIP3    H134804   5.973   5.091   2.755 -1.2031 -0.5096 -0.1575
11621TIP3    H234805   5.908   5.177   2.861 -0.9884 -0.1302 -0.3307
11622TIP3   OH234806   0.116   0.251   1.944  0.0360 -0.6660  0.2112
11622TIP3    H134807   0.120   0.292   1.858 -0.8245 -0.8783  0.0571
11622TIP3    H234808   0.100   0.324   2.005 -2.1765 -0.8049 -0.1366
11623TIP3   OH234809   4.472   5.155   2.769  0.2859  0.3220 -0.1088
11623TIP3    H134810   4.451   5.069   2.733 -0.4928 -0.2520  1.5850
11623TIP3    H234811   4.565   5.150   2.793 -0.0907 -0.5957  1.2914
11624TIP3   OH234812   5.678   7.399   3.024  0.0746  0.1896  0.2326
11624TIP3    H134813   5.735   7.324   3.040  1.3539  1.0541 -0.1313
11624TIP3    H234814   5.738   7.472   3.011 -1.1425  1.2984  0.6477
11625TIP3   OH234815   6.772   1.381   5.770  0.1775 -0.2377  0.2601
11625TIP3    H134816   6.860   1.369   5.806  0.3422  0.5633  0.1430
11625TIP3    H234817   6.745   1.293   5.743  0.3913 -0.7233  1.5430
11626TIP3   OH234818   7.736   5.883   1.922 -0.0447  0.1764 -0.2476
11626TIP3    H134819   7.713   5.799   1.961  1.6296  0.3278  1.1864
11626TIP3    H234820   7.751   5.864   1.830 -0.0013 -1.0346 -0.0078
11627TIP3   OH234821   5.185   0.737   6.705  0.2756  0.3778 -0.8821
11627TIP3    H134822   5.251   0.801   6.733  0.0495  0.7338 -1.1544
11627TIP3    H234823   5.105   0.765   6.750  0.3999 -0.2985 -0.2197
11628TIP3   OH234824   1.270   5.158   1.674  0.3418  0.4863  0.1211
11628TIP3    H134825   1.228   5.224   1.618 -1.9954  0.4885  1.7141
11628TIP3    H234826   1.234   5.074   1.643  1.8791  0.0963 -0.7013
11629TIP3   OH234827   3.926   1.611   0.512  0.1470 -0.2955  0.0221
11629TIP3    H134828   3.910   1.628   0.419 -0.6653 -0.3983  0.1310
11629TIP3    H234829   3.901   1.519   0.524  0.7559 -0.4357  0.2378
11630TIP3   OH234830   6.706   4.268   3.635  0.3787 -0.4434 -0.2480
11630TIP3    H134831   6.726   4.210   3.562  0.3341 -0.5402 -0.1838
11630TIP3    H234832   6.787   4.317   3.650  0.2219 -0.0322 -0.7113
11631TIP3   OH234833   7.457   3.295   0.624 -0.4004 -0.2492 -0.1022
11631TIP3    H134834   7.424   3.218   0.577  0.2920 -0.3803 -0.3974
11631TIP3    H234835   7.552   3.288   0.616 -0.1780 -0.8050  2.1413
11632TIP3   OH234836   3.303   3.518   2.061 -0.2083 -0.3576  0.2856
11632TIP3    H134837   3.353   3.593   2.093 -1.5019  0.0578  1.4798
11632TIP3    H234838   3.364   3.445   2.067  1.1713  0.6128 -1.1821
11633TIP3   OH234839   0.843   7.609   2.838 -0.2575  0.7838 -0.5040
11633TIP3    H134840   0.751   7.605   2.812 -0.2284 -0.6464 -0.4310
11633TIP3    H234841   0.887   7.545   2.783  0.9247  2.2386 -1.3483
11634TIP3   OH234842   5.012   3.995   4.150  0.3138  0.1509 -0.2389
11634TIP3    H134843   5.045   3.923   4.096 -0.3521 -0.8929  0.6969
11634TIP3    H234844   5.031   3.968   4.240 -1.1419  0.5055  0.1996
11635TIP3   OH234845   5.888   1.580   0.283  0.0743  0.6228  0.0175
11635TIP3    H134846   5.963   1.539   0.327 -0.8584 -2.0989 -0.7579
11635TIP3    H234847   5.926   1.656   0.239  2.1869 -0.0625  0.4970
11636TIP3   OH234848   3.856   4.681   6.497 -0.2046 -0.0787 -0.2078
11636TIP3    H134849   3.889   4.685   6.407  0.3823 -0.3647 -0.0169
11636TIP3    H234850   3.781   4.740   6.498 -1.3883 -1.5004 -1.3650
11637TIP3   OH234851   0.482   0.571   0.829 -0.8636 -0.2173 -0.1372
11637TIP3    H134852   0.560   0.546   0.779 -1.4162 -0.7268 -0.7566
11637TIP3    H234853   0.517   0.621   0.902 -0.1066  2.1270 -1.9523
11638TIP3   OH234854   1.804   3.225   1.235  0.1567 -0.3403 -0.4472
11638TIP3    H134855   1.861   3.180   1.173  0.0782  0.4814 -1.1275
11638TIP3    H234856   1.761   3.293   1.184  1.3215  1.4445  0.8101
11639TIP3   OH234857   6.658   6.858   4.399 -0.2745  0.2571  0.1525
11639TIP3    H134858   6.594   6.910   4.350 -2.2031 -0.9760  1.2084
11639TIP3    H234859   6.740   6.870   4.352 -1.2821  1.8541 -1.3292
11640TIP3   OH234860   0.428   4.936   1.191 -0.6701 -0.7310 -0.1414
11640TIP3    H134861   0.461   4.849   1.166 -1.6918 -1.1242 -0.1732
11640TIP3    H234862   0.500   4.996   1.171 -0.1497 -1.5004 -0.6292
11641TIP3   OH234863   1.180   1.083   5.975  0.1591  0.5807 -0.2000
11641TIP3    H134864   1.124   1.116   6.046  0.0189 -0.9395  0.4283
11641TIP3    H234865   1.223   1.161   5.941 -0.2381  1.4351  1.1558
11642TIP3   OH234866   2.990   3.627   3.473 -0.2846 -0.1076  0.2430
11642TIP3    H134867   2.902   3.591   3.483 -0.8268  0.4978 -1.8590
11642TIP3    H234868   2.976   3.718   3.444  1.0036 -0.2556 -0.9472
11643TIP3   OH234869   4.721   7.381   0.941  0.1545 -0.3061 -0.0542
11643TIP3    H134870   4.705   7.469   0.974 -1.5251  0.3079 -2.3219
11643TIP3    H234871   4.659   7.326   0.989 -1.2933  0.3444 -1.1452
11644TIP3   OH234872   0.620   3.445   3.554 -0.3791  0.1727  0.1109
11644TIP3    H134873   0.585   3.506   3.619 -0.4505  2.7865 -2.2029
11644TIP3    H234874   0.714   3.462   3.554 -0.2811 -0.3703  0.0756
11645TIP3   OH234875   5.887   6.832   0.351  0.1047 -0.2062 -0.0718
11645TIP3    H134876   5.824   6.760   0.350 -1.8494  1.4311 -0.5890
11645TIP3    H234877   5.903   6.848   0.444  2.5979 -2.8959  0.0996
11646TIP3   OH234878   4.898   5.540   6.809  0.0026  0.4789  1.0793
11646TIP3    H134879   4.899   5.612   6.746  2.2407  0.0012  0.5099
11646TIP3    H234880   4.976   5.489   6.789 -0.3752 -0.8986  2.8863
11647TIP3   OH234881   0.679   6.677   2.242  0.2954 -0.0698  0.1780
11647TIP3    H134882   0.748   6.720   2.191  1.1805  0.2164  1.5581
11647TIP3    H234883   0.651   6.744   2.304  0.1926 -0.8174  0.9545
11648TIP3   OH234884   8.386   1.730   0.947  0.4596  0.3144  0.1161
11648TIP3    H134885   8.351   1.818   0.934  0.4809  0.4651  1.0312
11648TIP3    H234886   8.397   1.696   0.858  1.0518  1.4631 -0.2758
11649TIP3   OH234887   2.482   4.900   2.700  0.0843 -0.1993  0.2165
11649TIP3    H134888   2.531   4.888   2.619 -0.7549  1.0841 -0.5209
11649TIP3    H234889   2.390   4.898   2.673 -0.2545 -1.0078  1.3359
11650TIP3   OH234890   6.692   1.146   4.651  0.1585 -0.2730  0.0717
11650TIP3    H134891   6.703   1.238   4.627 -2.3042 -0.5617 -2.8201
11650TIP3    H234892   6.763   1.100   4.606 -0.0270 -0.0081 -0.4977
11651TIP3   OH234893   4.456   1.995   0.537  0.0037  0.2741 -0.1558
11651TIP3    H134894   4.363   1.976   0.527 -0.3825  0.7668  1.9544
11651TIP3    H234895   4.487   1.930   0.600  1.0408  0.2725 -0.6446
11652TIP3   OH234896   0.613   4.114   4.790 -0.6375  0.4966  0.6305
11652TIP3    H134897   0.639   4.205   4.776  0.4790  0.2409  0.9335
11652TIP3    H234898   0.661   4.087   4.868  3.3957 -1.9475 -2.3215
11653TIP3   OH234899   4.198   7.698   2.982 -0.0194  0.0312 -0.0674
11653TIP3    H134900   4.266   7.701   2.915 -0.2402 -1.0212 -0.3510
11653TIP3    H234901   4.244   7.680   3.064  0.1528  0.4063 -0.0815
11654TIP3   OH234902   2.708   5.675   6.185 -0.1558 -0.0799  0.2794
11654TIP3    H134903   2.745   5.608   6.242  0.6305 -0.1794 -0.3295
11654TIP3    H234904   2.779   5.738   6.173 -0.2848 -0.1033 -0.6563
11655TIP3   OH234905   6.515   4.823   1.315 -0.0188  0.3498  0.3875
11655TIP3    H134906   6.525   4.891   1.248 -0.7901 -0.3267 -0.4418
11655TIP3    H234907   6.443   4.854   1.370 -0.5940  0.0493 -0.1910
11656TIP3   OH234908   0.746   3.491   6.191  0.3011 -0.9140  0.1761
11656TIP3    H134909   0.751   3.496   6.095  1.0420 -0.7425  0.2177
11656TIP3    H234910   0.671   3.547   6.214  0.0348 -1.0632 -0.3075
11657TIP3   OH234911   4.219   1.688   0.545  0.3392 -0.5379  0.1123
11657TIP3    H134912   4.262   1.666   0.628  0.8931 -0.0470 -0.0370
11657TIP3    H234913   4.127   1.667   0.559  0.5151 -0.9718  0.6692
11658TIP3   OH234914   0.675   2.972   6.810 -0.3283  0.0994  0.1489
11658TIP3    H134915   0.604   2.924   6.852 -0.1183 -0.1843  0.1797
11658TIP3    H234916   0.727   3.007   6.883  2.2246 -3.4936  0.3184
11659TIP3   OH234917   3.643   5.358   3.639 -0.0051  0.3867 -0.1844
11659TIP3    H134918   3.665   5.380   3.549  1.3707  0.3658  0.1231
11659TIP3    H234919   3.727   5.339   3.680 -0.6494 -0.0163  0.9976
11660TIP3   OH234920   4.508   1.105   1.351  0.4262 -0.3669  0.5235
11660TIP3    H134921   4.551   1.051   1.417  1.6004  0.2170  0.2569
11660TIP3    H234922   4.559   1.092   1.271  0.9823  1.3986  0.5386
11661TIP3   OH234923   7.341   7.293   6.822 -0.2159  0.0078 -0.3067
11661TIP3    H134924   7.353   7.201   6.799 -1.2230 -0.0039 -0.8183
11661TIP3    H234925   7.290   7.292   6.903  0.3338  0.1118  0.0468
11662TIP3   OH234926   2.131   4.074   2.420 -0.0930 -0.1630 -0.1348
11662TIP3    H134927   2.069   4.036   2.358 -0.5476  2.0116 -1.1075
11662TIP3    H234928   2.205   4.102   2.366 -0.1690  1.1008  0.3785
11663TIP3   OH234929   3.026   2.150   0.067  0.0134  0.2407  0.2792
11663TIP3    H134930   2.979   2.096   0.003  0.7015 -0.3940  0.2965
11663TIP3    H234931   2.962   2.215   0.094 -0.6443 -0.1832 -0.2095
11664TIP3   OH234932   2.899   2.120   4.684  0.4807  0.1514  0.7355
11664TIP3    H134933   2.884   2.064   4.760  0.6403 -0.8078  0.0762
11664TIP3    H234934   2.841   2.085   4.617  0.1173  1.1780  0.4879
11665TIP3   OH234935   0.387   6.799   2.229  0.3594  0.1832 -0.7493
11665TIP3    H134936   0.362   6.787   2.321 -1.3592  0.7802 -1.1136
11665TIP3    H234937   0.443   6.724   2.210  0.2642 -0.2608  0.6144
11666TIP3   OH234938   7.228   3.039   5.075 -0.1871 -0.5947  0.5255
11666TIP3    H134939   7.171   3.039   4.999 -0.4592 -0.1448  0.7236
11666TIP3    H234940   7.243   3.132   5.094 -1.2137 -0.6627  1.8210
11667TIP3   OH234941   4.189   2.683   0.170 -0.2386  0.9860 -0.0556
11667TIP3    H134942   4.266   2.644   0.210 -0.3493  1.9174  1.1223
11667TIP3    H234943   4.223   2.749   0.110 -0.0177 -1.3225 -2.6629
11668TIP3   OH234944   7.788   1.629   6.557 -0.3870 -0.3058 -0.5518
11668TIP3    H134945   7.790   1.606   6.649  0.8468  0.5453 -0.3433
11668TIP3    H234946   7.823   1.718   6.553  1.3527 -0.9960 -2.0191
11669TIP3   OH234947   5.204   2.840   6.134  0.0990 -0.0302 -0.2433
11669TIP3    H134948   5.175   2.919   6.179 -3.3455 -1.5708  0.6091
11669TIP3    H234949   5.175   2.852   6.043 -0.8723 -0.4553 -0.0038
11670TIP3   OH234950   0.844   4.299   1.651 -0.0254 -0.0272 -0.3018
11670TIP3    H134951   0.875   4.230   1.710 -1.1518 -0.2833  0.0116
11670TIP3    H234952   0.894   4.287   1.571 -0.0386 -1.0608 -0.1613
11671TIP3   OH234953   5.002   5.970   1.801  0.4329  0.1857 -0.1078
11671TIP3    H134954   5.005   5.938   1.710  3.0346  0.9726 -0.3901
11671TIP3    H234955   4.998   6.065   1.793 -1.5638  0.1993  0.6709
11672TIP3   OH234956   0.278   7.192   2.326  0.5187 -0.3235 -0.3183
11672TIP3    H134957   0.203   7.163   2.275  0.3118 -2.7881  1.2209
11672TIP3    H234958   0.260   7.284   2.346 -0.6305 -0.0472 -2.3802
11673TIP3   OH234959   7.357   5.702   5.918  0.1186 -0.0632 -0.3534
11673TIP3    H134960   7.386   5.790   5.891  2.1306 -0.9623 -1.3791
11673TIP3    H234961   7.437   5.661   5.951 -1.0146 -1.1824  1.0906
11674TIP3   OH234962   7.426   5.459   1.064 -0.2651 -0.2501 -0.2977
11674TIP3    H134963   7.389   5.459   1.153  1.7534 -1.0804  0.5975
11674TIP3    H234964   7.449   5.367   1.048  0.8329  0.1335 -1.0297
11675TIP3   OH234965   2.902   5.355   3.591  0.1228 -0.4499 -0.2394
11675TIP3    H134966   2.993   5.386   3.584  0.4207 -1.4622 -1.3864
11675TIP3    H234967   2.849   5.434   3.590  0.9518  0.1189 -0.8347
11676TIP3   OH234968   6.195   7.093   1.199  0.3949  0.0709  0.1873
11676TIP3    H134969   6.250   7.155   1.150 -0.2482 -0.2058 -0.9151
11676TIP3    H234970   6.244   7.078   1.280  0.2586  2.5406  0.8287
11677TIP3   OH234971   5.112   6.673   1.771 -0.3062  0.0381 -0.0273
11677TIP3    H134972   5.112   6.588   1.816  2.3548 -0.2180 -0.2980
11677TIP3    H234973   5.116   6.651   1.678 -2.1314  0.5229 -0.2409
11678TIP3   OH234974   7.152   0.277   4.896 -0.1793  0.0431 -0.3382
11678TIP3    H134975   7.149   0.366   4.862 -1.2669  0.4728  0.8125
11678TIP3    H234976   7.147   0.221   4.818 -0.2927  0.9819 -1.0158
11679TIP3   OH234977   3.844   1.893   0.891  0.4957  0.4769 -0.4874
11679TIP3    H134978   3.938   1.906   0.882  0.4931  0.9667  0.0592
11679TIP3    H234979   3.818   1.958   0.957  0.0420 -0.7402  0.5662
11680TIP3   OH234980   3.326   7.020   1.352 -0.1227  0.1710  0.2931
11680TIP3    H134981   3.248   7.076   1.355 -0.3660 -0.0149 -1.4083
11680TIP3    H234982   3.333   6.984   1.440 -1.2984  1.0824  0.7881
11681TIP3   OH234983   6.880   7.186   1.970  0.3631  0.4765  0.2911
11681TIP3    H134984   6.905   7.112   2.025 -1.7121 -0.4350  0.0936
11681TIP3    H234985   6.960   7.209   1.922  1.8369  0.3531  2.5597
11682TIP3   OH234986   3.843   1.290   1.914  0.7550 -0.3408 -0.0188
11682TIP3    H134987   3.869   1.288   1.821  1.3016 -1.6904  0.1415
11682TIP3    H234988   3.877   1.374   1.946 -1.3854  1.2228 -1.5360
11683TIP3   OH234989   7.705   2.011   5.209 -0.5394  0.3993  0.8273
11683TIP3    H134990   7.791   2.025   5.167 -0.1139 -0.3581  1.4287
11683TIP3    H234991   7.717   1.932   5.261 -1.8198 -0.1130  0.3712
11684TIP3   OH234992   5.174   1.016   5.726 -0.2925 -0.4366  0.3402
11684TIP3    H134993   5.123   0.939   5.749  1.1064 -1.2888  0.7716
11684TIP3    H234994   5.264   0.984   5.721  0.1886  0.9499 -0.5822
11685TIP3   OH234995   4.716   5.808   0.484  0.8623  0.1725  0.0350
11685TIP3    H134996   4.652   5.814   0.413  0.5814 -0.3650  0.2297
11685TIP3    H234997   4.775   5.882   0.471 -0.8683  1.7997  0.9061
11686TIP3   OH234998   2.542   6.234   5.784  0.2960  0.1272  0.0229
11686TIP3    H134999   2.534   6.235   5.689 -0.6261  0.9552  0.0891
11686TIP3    H235000   2.556   6.142   5.806  5.0714  0.2932 -1.1783
11687TIP3   OH235001   1.181   6.250   3.984 -0.0034 -0.0554  0.3713
11687TIP3    H135002   1.134   6.238   4.067 -1.1279 -0.3057 -0.2800
11687TIP3    H235003   1.221   6.165   3.966 -1.8968 -0.7923 -0.5981
11688TIP3   OH235004   8.002   0.444   3.444 -0.2866  0.2475 -0.4166
11688TIP3    H135005   8.010   0.472   3.353  1.6818 -0.5682 -0.5553
11688TIP3    H235006   8.073   0.491   3.489 -0.4661 -0.2931  0.4402
11689TIP3   OH235007   0.322   6.948   0.825  0.8255 -0.3192  0.1631
11689TIP3    H135008   0.336   6.952   0.731  3.3004 -0.4111  0.4673
11689TIP3    H235009   0.258   6.878   0.837 -2.2200  1.8617 -1.5931
11690TIP3   OH235010   8.194   1.503   6.290 -0.0624 -0.4352  0.4829
11690TIP3    H135011   8.254   1.500   6.216 -1.9347 -1.5676 -1.1033
11690TIP3    H235012   8.225   1.576   6.344  0.5866  1.3998 -2.1673
11691TIP3   OH235013   1.210   1.165   3.716 -0.5261 -0.6024  0.0494
11691TIP3    H135014   1.164   1.210   3.645  1.3963  0.4530 -0.6072
11691TIP3    H235015   1.181   1.074   3.710 -2.3426 -0.0354 -0.4143
11692TIP3   OH235016   5.258   7.623   3.572 -0.5777  0.1795 -0.1250
11692TIP3    H135017   5.284   7.702   3.620  0.9522 -0.7585  0.6601
11692TIP3    H235018   5.182   7.650   3.520  0.4245  2.3870 -0.5335
11693TIP3   OH235019   7.753   4.260   5.871  0.1359 -0.7091  0.0436
11693TIP3    H135020   7.721   4.346   5.842  1.3002 -0.6580 -1.1653
11693TIP3    H235021   7.697   4.198   5.825  1.6843 -0.6195 -2.1031
11694TIP3   OH235022   1.337   3.687   1.923 -0.5295 -0.9179 -0.4244
11694TIP3    H135023   1.417   3.726   1.957 -1.9238  1.0465  0.7732
11694TIP3    H235024   1.283   3.670   2.000 -2.9416  1.7446 -1.3532
11695TIP3   OH235025   6.229   6.133   5.503 -0.3216 -0.3468 -0.5663
11695TIP3    H135026   6.142   6.100   5.481 -0.2825 -0.4892 -0.5018
11695TIP3    H235027   6.258   6.177   5.423 -0.8819  0.6085 -0.2555
11696TIP3   OH235028   1.622   2.410   1.012  0.2787  0.1154  0.3173
11696TIP3    H135029   1.543   2.356   1.019  0.0950  0.3159 -0.1696
11696TIP3    H235030   1.590   2.494   0.980  0.6713  0.2450  0.2681
11697TIP3   OH235031   4.956   2.550   2.997 -0.1613 -0.3734  0.1818
11697TIP3    H135032   4.863   2.541   2.976 -0.4733  0.0421  1.3296
11697TIP3    H235033   4.982   2.463   3.027 -0.4586 -0.2163  0.9053
11698TIP3   OH235034   1.463   5.594   3.774 -0.1524  0.3568  0.1734
11698TIP3    H135035   1.481   5.577   3.681  0.9984 -0.4450  0.5253
11698TIP3    H235036   1.432   5.510   3.808 -1.2838  0.8387  0.3610
11699TIP3   OH235037   5.488   0.525   3.926 -0.1026 -0.2196 -0.0791
11699TIP3    H135038   5.429   0.500   3.855  1.6917 -4.1226 -0.4478
11699TIP3    H235039   5.437   0.510   4.006 -1.2020  1.4631 -0.4184
11700TIP3   OH235040   1.343   1.685   4.489  0.4166  0.2160 -0.3907
11700TIP3    H135041   1.324   1.612   4.429  0.4420 -1.1092  1.1513
11700TIP3    H235042   1.322   1.763   4.438 -0.4505 -0.8847 -1.8175
11701TIP3   OH235043   1.909   4.970   4.873  0.2458 -0.3803 -0.3281
11701TIP3    H135044   1.944   5.006   4.955  1.1145  0.3188 -0.9935
11701TIP3    H235045   1.983   4.971   4.813 -0.5827 -0.1606 -1.3631
11702TIP3   OH235046   6.975   3.952   0.364  0.1493 -0.0927  0.0860
11702TIP3    H135047   6.895   3.902   0.346 -1.1875  1.5132  1.2015
11702TIP3    H235048   6.999   3.991   0.280 -0.3577 -0.4392 -0.2272
11703TIP3   OH235049   5.729   2.978   2.196  0.0862  0.0903  0.0143
11703TIP3    H135050   5.803   3.020   2.239  0.5777 -1.3221  0.5829
11703TIP3    H235051   5.767   2.908   2.143 -0.5605  1.3133 -2.2364
11704TIP3   OH235052   1.900   2.877   5.192 -0.2633 -0.2485  0.1878
11704TIP3    H135053   1.891   2.792   5.235 -0.4063  0.3087  1.2887
11704TIP3    H235054   1.971   2.865   5.129 -0.5447 -1.2881  0.0554
11705TIP3   OH235055   8.363   5.359   5.673  0.2342 -0.4605 -0.0296
11705TIP3    H135056   8.310   5.313   5.738 -1.1710  1.7432  0.4667
11705TIP3    H235057   8.401   5.433   5.720 -1.6658  1.8359 -1.8333
11706TIP3   OH235058   4.711   0.811   0.503  0.3232 -0.2989  0.4824
11706TIP3    H135059   4.617   0.805   0.486  0.5398  0.4884 -1.2114
11706TIP3    H235060   4.733   0.901   0.480  1.7402 -0.8798 -0.5723
11707TIP3   OH235061   4.869   2.887   6.589 -0.4315 -0.1596  0.0849
11707TIP3    H135062   4.793   2.945   6.579  0.3125  1.2029  1.8011
11707TIP3    H235063   4.833   2.805   6.622 -1.2183  0.2763  0.3265
11708TIP3   OH235064   0.516   3.526   1.090  0.1788  0.2443 -0.1283
11708TIP3    H135065   0.530   3.612   1.128  0.0023  0.0527  0.3781
11708TIP3    H235066   0.605   3.494   1.069  0.3211  0.1188  0.6474
11709TIP3   OH235067   3.437   3.408   5.810 -0.2678 -0.8690  0.3524
11709TIP3    H135068   3.508   3.352   5.777  0.3411 -0.6255  1.2245
11709TIP3    H235069   3.477   3.494   5.820 -0.8961 -0.5417  0.1273
11710TIP3   OH235070   3.609   4.903   2.130 -0.0855  0.2102  0.3162
11710TIP3    H135071   3.610   4.949   2.214 -0.6651 -2.1948  1.7287
11710TIP3    H235072   3.678   4.837   2.139  0.3851  0.4161 -1.4514
11711TIP3   OH235073   1.549   7.725   0.383 -0.7446 -0.2790  0.0419
11711TIP3    H135074   1.603   7.731   0.304 -2.1188  0.1122 -0.8916
11711TIP3    H235075   1.578   7.799   0.437 -0.7586  0.2909 -0.7160
11712TIP3   OH235076   3.154   5.926   4.485  0.3108 -0.0868  0.3828
11712TIP3    H135077   3.074   5.976   4.471 -0.7558 -1.4778  1.1832
11712TIP3    H235078   3.151   5.857   4.420  2.1054  1.1899 -1.1604
11713TIP3   OH235079   5.828   3.663   2.964  0.5877 -1.3421 -0.1498
11713TIP3    H135080   5.871   3.701   3.040  0.2892 -1.1337 -0.0864
11713TIP3    H235081   5.777   3.590   2.999 -0.0088 -0.8913 -0.0668
11714TIP3   OH235082   1.542   0.305   5.540  0.7187 -0.0857 -0.1482
11714TIP3    H135083   1.582   0.221   5.559  0.3891 -0.3949 -0.8226
11714TIP3    H235084   1.453   0.297   5.573  1.1502  0.5738  1.2768
11715TIP3   OH235085   6.497   3.725   0.823  0.1446 -0.0522 -0.1485
11715TIP3    H135086   6.502   3.631   0.810  0.0258  0.0871 -1.3016
11715TIP3    H235087   6.404   3.746   0.811 -0.4376 -0.1645  3.1144
11716TIP3   OH235088   5.051   4.048   0.650  0.2332 -0.1352 -0.1685
11716TIP3    H135089   5.013   4.136   0.654 -0.6899 -0.2907 -3.1859
11716TIP3    H235090   4.977   3.990   0.665  0.6304 -0.4376  0.6869
11717TIP3   OH235091   8.016   2.862   1.652  0.1973  0.1973  0.2554
11717TIP3    H135092   8.005   2.818   1.737  1.5308  0.5379  0.6185
11717TIP3    H235093   8.078   2.807   1.604 -0.7284 -0.1232 -0.6134
11718TIP3   OH235094   2.120   1.586   2.577  0.3480  0.5523 -1.1203
11718TIP3    H135095   2.125   1.670   2.623  0.4832  1.2029 -2.2908
11718TIP3    H235096   2.157   1.523   2.639 -0.7888  1.1490  0.2129
11719TIP3   OH235097   5.562   2.275   0.554  0.6089  0.3743  0.5238
11719TIP3    H135098   5.517   2.332   0.617 -1.5422 -2.3213  1.6170
11719TIP3    H235099   5.593   2.201   0.605  0.7514 -0.8589 -1.2360
11720TIP3   OH235100   8.396   2.157   4.784 -0.0408 -0.1176 -0.1920
11720TIP3    H135101   8.324   2.117   4.735 -0.9809 -0.5340  1.4328
11720TIP3    H235102   8.354   2.228   4.833  1.2382  1.5826 -1.4685
11721TIP3   OH235103   1.799   0.564   3.607  0.5136 -0.5812  0.1965
11721TIP3    H135104   1.771   0.618   3.681  2.5773 -1.4704  1.7442
11721TIP3    H235105   1.828   0.627   3.541 -1.0579  0.2254  0.2348
11722TIP3   OH235106   2.540   1.585   0.175  0.7720 -0.6325  0.5480
11722TIP3    H135107   2.457   1.547   0.205 -1.3534  2.3584 -1.0478
11722TIP3    H235108   2.531   1.592   0.080  2.8736 -0.1886  0.3304
11723TIP3   OH235109   2.302   4.724   5.519 -0.2506  0.3420  0.1244
11723TIP3    H135110   2.273   4.695   5.432 -0.6502  1.9623 -0.3088
11723TIP3    H235111   2.397   4.723   5.513 -0.2690  0.1622 -0.2354
11724TIP3   OH235112   1.932   3.847   5.984  0.5342 -0.0818 -0.2416
11724TIP3    H135113   1.890   3.822   6.067  1.0629 -0.3341 -0.0439
11724TIP3    H235114   1.873   3.912   5.946  0.3557  0.1432  0.4008
11725TIP3   OH235115   6.178   2.500   5.806  0.1232  0.3890 -0.0827
11725TIP3    H135116   6.253   2.505   5.746  0.1293 -2.5463 -0.4718
11725TIP3    H235117   6.102   2.518   5.751  0.3452  0.6837 -0.2966
11726TIP3   OH235118   6.089   2.385   4.642 -0.1620 -0.4771  0.1861
11726TIP3    H135119   6.156   2.419   4.701 -0.8163 -0.3701  0.8758
11726TIP3    H235120   6.007   2.420   4.676 -0.7892 -2.1852  0.5248
11727TIP3   OH235121   1.215   6.953   5.235 -0.4737  0.2240 -0.6250
11727TIP3    H135122   1.184   6.988   5.319  1.6388 -2.3314  1.4260
11727TIP3    H235123   1.293   7.004   5.214  0.0510 -0.2855  0.0128
11728TIP3   OH235124   3.537   4.637   6.225 -0.1074  0.0608 -0.1514
11728TIP3    H135125   3.550   4.730   6.209 -2.1307  0.2442 -1.1246
11728TIP3    H235126   3.474   4.633   6.297  1.9482 -0.6561  1.7303
11729TIP3   OH235127   0.987   2.654   1.040 -0.4218  0.0263 -0.0238
11729TIP3    H135128   0.977   2.583   0.977  1.5575 -0.9847  0.7151
11729TIP3    H235129   0.974   2.613   1.126  1.5436  0.2969  0.4628
11730TIP3   OH235130   7.988   5.115   0.505  0.3263  0.2366  0.0591
11730TIP3    H135131   8.034   5.080   0.581  0.5955  0.7665  0.1411
11730TIP3    H235132   8.052   5.172   0.462 -0.5075  1.6766  0.6629
11731TIP3   OH235133   0.975   0.342   0.865  0.2789 -0.1356 -0.2706
11731TIP3    H135134   0.882   0.319   0.870  0.4800 -1.0745 -0.7442
11731TIP3    H235135   0.996   0.335   0.772  0.7624  0.3632 -0.2027
11732TIP3   OH235136   4.480   7.072   3.889  0.0000  0.3646  0.3645
11732TIP3    H135137   4.464   7.007   3.959 -0.1460  0.7790  0.7234
11732TIP3    H235138   4.439   7.152   3.922 -0.7057  0.3842 -0.5149
11733TIP3   OH235139   5.431   3.395   5.483 -0.0815 -0.0655 -0.6853
11733TIP3    H135140   5.457   3.467   5.426 -1.5195  0.3291 -0.8550
11733TIP3    H235141   5.363   3.431   5.539  0.5607 -0.7547  0.5774
11734TIP3   OH235142   2.759   3.813   2.879  0.2230 -0.5151 -0.0943
11734TIP3    H135143   2.821   3.883   2.861 -0.3605  0.1615  0.4708
11734TIP3    H235144   2.680   3.858   2.910  0.2719 -1.4683  1.5542
11735TIP3   OH235145   2.954   1.533   5.821  0.2990 -0.1576  0.4915
11735TIP3    H135146   2.972   1.599   5.889  0.9233  0.6701 -0.4542
11735TIP3    H235147   3.019   1.465   5.836  1.2140  0.5883  0.0053
11736TIP3   OH235148   4.827   4.906   4.802 -0.1007  0.5237 -0.1138
11736TIP3    H135149   4.865   4.984   4.841 -1.8765  0.9010  0.9689
11736TIP3    H235150   4.794   4.855   4.876 -0.3493 -0.4916 -0.8944
11737TIP3   OH235151   2.252   7.362   3.522  0.0546  0.1421 -0.2890
11737TIP3    H135152   2.228   7.438   3.576 -0.0844 -0.6231  0.7385
11737TIP3    H235153   2.169   7.318   3.505  0.2634 -0.3818  0.0383
11738TIP3   OH235154   4.720   5.558   4.335  0.5231  0.0682 -0.2170
11738TIP3    H135155   4.770   5.528   4.411 -0.3763 -0.8454  0.0412
11738TIP3    H235156   4.785   5.569   4.266  1.0095 -1.7225 -0.0834
11739TIP3   OH235157   4.905   6.372   0.083 -0.4826  0.0319  0.5028
11739TIP3    H135158   4.869   6.288   0.056 -0.8788  0.0518  0.9468
11739TIP3    H235159   4.971   6.393   0.017  1.2894 -1.7160  1.6022
11740TIP3   OH235160   3.879   0.427   6.316 -0.1789  0.6870 -0.0447
11740TIP3    H135161   3.836   0.507   6.344 -1.7374 -0.4431  0.9590
11740TIP3    H235162   3.892   0.438   6.222 -0.5200  2.0202  0.0456
11741TIP3   OH235163   3.359   3.837   0.932  0.0133  0.5260  0.4914
11741TIP3    H135164   3.339   3.926   0.960 -1.1911  0.1667  0.8259
11741TIP3    H235165   3.305   3.781   0.988  1.9078 -0.5274  1.3763
11742TIP3   OH235166   7.748   3.242   3.707 -0.0693 -0.0809  0.3280
11742TIP3    H135167   7.791   3.327   3.697  1.7479 -1.0707 -0.7365
11742TIP3    H235168   7.739   3.232   3.802  0.8904  0.7371  0.5329
11743TIP3   OH235169   7.526   4.581   3.649  0.3977  0.0135 -0.0514
11743TIP3    H135170   7.446   4.556   3.602 -0.1979  2.4153 -0.4412
11743TIP3    H235171   7.587   4.509   3.632 -1.3542 -1.4073 -0.5648
11744TIP3   OH235172   1.535   4.700   4.818 -0.3243 -0.0553 -0.5237
11744TIP3    H135173   1.628   4.685   4.830 -0.6336 -0.1717  2.3255
11744TIP3    H235174   1.520   4.788   4.853 -1.4332 -0.4216 -0.0388
11745TIP3   OH235175   6.365   7.198   0.966  0.4814  0.0211 -0.5061
11745TIP3    H135176   6.310   7.271   0.935 -1.0884 -1.2399 -0.8224
11745TIP3    H235177   6.327   7.121   0.924 -1.2291 -1.7328  3.7792
11746TIP3   OH235178   1.628   7.562   3.546  0.2783 -0.3411  0.4107
11746TIP3    H135179   1.533   7.547   3.540  0.1907  0.5724 -0.9900
11746TIP3    H235180   1.667   7.480   3.515 -0.0400 -0.7760  1.1330
11747TIP3   OH235181   7.420   0.728   1.631  0.3505  0.4071  0.1716
11747TIP3    H135182   7.330   0.753   1.651  0.1765 -0.0130 -0.0706
11747TIP3    H235183   7.466   0.811   1.619 -0.0846  0.6204 -0.0521
11748TIP3   OH235184   3.122   1.037   0.130 -0.3880 -0.8426  0.8112
11748TIP3    H135185   3.079   0.993   0.203  0.9432 -1.9749  0.9557
11748TIP3    H235186   3.100   1.129   0.141 -1.5251 -1.1953  1.7078
11749TIP3   OH235187   6.786   4.000   6.282  0.4333  0.0345 -0.9432
11749TIP3    H135188   6.869   4.025   6.324  1.1155  0.6541 -2.5539
11749TIP3    H235189   6.804   3.915   6.242 -0.2878 -0.6686  0.1645
11750TIP3   OH235190   0.371   5.936   1.924 -0.3729  0.2353  0.0447
11750TIP3    H135191   0.366   5.848   1.961  1.2976  0.1597  0.1766
11750TIP3    H235192   0.348   5.994   1.997 -0.3831 -0.0556  0.2746
11751TIP3   OH235193   3.819   1.748   6.143 -0.0515  0.1742  0.1727
11751TIP3    H135194   3.814   1.844   6.149  1.7959  0.6399 -3.2507
11751TIP3    H235195   3.905   1.727   6.178  0.4705  0.0851 -1.1082
11752TIP3   OH235196   1.819   0.291   2.749 -0.6561  0.4246  0.0549
11752TIP3    H135197   1.894   0.290   2.809  0.9589  2.8579 -1.7417
11752TIP3    H235198   1.771   0.370   2.772 -0.9233  0.5224 -0.8216
11753TIP3   OH235199   3.731   7.634   5.817 -0.0089 -0.3013 -0.1273
11753TIP3    H135200   3.675   7.699   5.775  1.4980  1.5006  0.4752
11753TIP3    H235201   3.807   7.626   5.759  0.8976  0.2784  0.9279
11754TIP3   OH235202   3.145   0.507   4.202  0.2385  0.0288  0.5243
11754TIP3    H135203   3.049   0.503   4.194  0.1436  1.7779  0.2916
11754TIP3    H235204   3.175   0.539   4.117  0.9378  0.5105  0.9425
11755TIP3   OH235205   0.687   0.341   4.146  0.7009 -0.1329  0.2955
11755TIP3    H135206   0.655   0.313   4.232  1.9027 -1.9266  0.1997
11755TIP3    H235207   0.661   0.270   4.087  1.1276  0.4135 -0.5581
11756TIP3   OH235208   2.113   6.983   3.289  0.0552 -0.2003  0.0817
11756TIP3    H135209   2.065   6.901   3.301 -0.2431 -0.5877 -2.8878
11756TIP3    H235210   2.188   6.958   3.234  1.0817  1.1974  0.7980
11757TIP3   OH235211   5.918   1.666   6.621  0.5338 -0.3285  0.0488
11757TIP3    H135212   6.003   1.632   6.595  1.6415 -0.8186  3.7322
11757TIP3    H235213   5.859   1.592   6.612  0.9531 -0.6126 -0.4400
11758TIP3   OH235214   1.902   6.729   1.451  0.3605  0.1767  0.4293
11758TIP3    H135215   1.832   6.697   1.395  1.8153 -1.1421 -0.6940
11758TIP3    H235216   1.914   6.660   1.517  0.0292  0.8059  1.1727
11759TIP3   OH235217   2.630   5.217   5.009 -0.1695 -0.4392 -0.2300
11759TIP3    H135218   2.698   5.246   5.070  0.1336 -0.0802 -0.7365
11759TIP3    H235219   2.562   5.284   5.015 -0.8873 -1.2381  0.9219
11760TIP3   OH235220   1.615   6.640   4.187  0.4285 -0.5338  0.5084
11760TIP3    H135221   1.609   6.700   4.261  1.5522  0.8729 -0.4746
11760TIP3    H235222   1.578   6.688   4.114  1.9197 -0.7616 -0.4483
11761TIP3   OH235223   5.369   2.529   2.237 -0.1053 -0.4969 -0.0444
11761TIP3    H135224   5.283   2.547   2.198  0.2268  0.9553 -0.1716
11761TIP3    H235225   5.408   2.616   2.250  0.5797 -1.0229  1.7408
11762TIP3   OH235226   1.008   3.824   2.418  0.0161 -0.0214 -0.3434
11762TIP3    H135227   1.079   3.858   2.473  1.5062 -0.4553 -1.8907
11762TIP3    H235228   1.027   3.730   2.410 -1.5061 -0.3972  0.2714
11763TIP3   OH235229   5.605   1.063   5.522  0.3654  0.2578  0.1929
11763TIP3    H135230   5.547   1.006   5.572  0.1574  0.7951  0.5823
11763TIP3    H235231   5.679   1.078   5.580 -0.0751  1.2276  0.5223
11764TIP3   OH235232   0.461   3.645   4.310 -0.3685 -0.6156  0.3150
11764TIP3    H135233   0.536   3.637   4.252 -0.9205 -1.5010 -0.3070
11764TIP3    H235234   0.397   3.583   4.275 -0.8005 -1.0128  1.7426
11765TIP3   OH235235   7.670   5.953   4.076 -0.0742 -0.0501 -0.0114
11765TIP3    H135236   7.698   6.033   4.032 -0.7037 -0.0471 -0.4298
11765TIP3    H235237   7.742   5.891   4.063 -0.2044 -0.0154 -0.9711
11766TIP3   OH235238   0.244   5.707   3.671  0.6014 -0.3508  0.5877
11766TIP3    H135239   0.254   5.618   3.706  1.7605  0.0272  1.2564
11766TIP3    H235240   0.333   5.739   3.660  0.1925  0.8210  0.5531
11767TIP3   OH235241   4.156   5.308   5.929  0.7670 -0.1328  0.3439
11767TIP3    H135242   4.194   5.262   6.004  0.1579 -0.4341  0.4697
11767TIP3    H235243   4.222   5.299   5.860  1.1000 -0.3102  0.6806
11768TIP3   OH235244   2.757   5.526   0.025 -0.1970 -0.7870 -0.0236
11768TIP3    H135245   2.729   5.515   0.116 -0.3232 -0.1150  0.0237
11768TIP3    H235246   2.677   5.517  -0.027 -0.1532 -0.9917 -0.0573
11769TIP3   OH235247   6.650   1.592   1.615  0.0367  0.2939 -0.0808
11769TIP3    H135248   6.620   1.590   1.524  0.5722 -0.0015 -0.2544
11769TIP3    H235249   6.613   1.673   1.650 -0.6371  0.1359 -0.3962
11770TIP3   OH235250   3.900   5.911   3.545 -0.0662  0.2382 -0.0720
11770TIP3    H135251   3.961   5.903   3.618 -0.7709  1.5342  0.6878
11770TIP3    H235252   3.833   5.972   3.576 -0.9867 -0.0606 -1.3987
11771TIP3   OH235253   4.023   5.602   1.971 -0.1363  0.0982  0.0535
11771TIP3    H135254   4.036   5.573   2.061  2.9103 -1.9656 -0.8714
11771TIP3    H235255   4.104   5.649   1.949 -0.8041  0.5409 -1.6294
11772TIP3   OH235256   5.698   3.641   4.993  0.1879 -0.2703  0.6279
11772TIP3    H135257   5.731   3.585   5.063 -2.7041 -1.1282  1.4447
11772TIP3    H235258   5.690   3.728   5.034 -2.6495 -1.0110  1.9368
11773TIP3   OH235259   2.681   1.552   4.103 -0.4975  0.0917 -0.2498
11773TIP3    H135260   2.755   1.569   4.045 -1.5407 -0.1560 -1.7092
11773TIP3    H235261   2.604   1.573   4.051 -1.4735  0.1923  1.1779
11774TIP3   OH235262   1.321   4.290   4.225 -0.2055  0.1962  0.3101
11774TIP3    H135263   1.412   4.296   4.195 -0.9570  0.7335 -2.1159
11774TIP3    H235264   1.310   4.366   4.282  0.2081  1.7102 -1.5040
11775TIP3   OH235265   1.847   5.895   1.283  0.1113  0.7934 -0.2455
11775TIP3    H135266   1.891   5.816   1.314  1.0210  1.1617 -0.5511
11775TIP3    H235267   1.896   5.967   1.322  0.7517  1.2432 -1.8112
11776TIP3   OH235268   2.821   0.099   0.554  0.1846  0.1587  0.0789
11776TIP3    H135269   2.764   0.104   0.632  1.6357 -1.2062  1.3028
11776TIP3    H235270   2.803   0.012   0.518  0.6740  0.1626 -0.1748
11777TIP3   OH235271   0.205   0.455   2.982  0.0945 -0.4719  0.5263
11777TIP3    H135272   0.110   0.458   2.968  0.0872 -2.7973 -0.4394
11777TIP3    H235273   0.222   0.363   3.004  2.2044 -0.2514 -0.0219
11778TIP3   OH235274   0.660   7.114   0.549  0.1230  0.3858  0.1229
11778TIP3    H135275   0.723   7.052   0.586 -1.7891 -0.1847  2.7167
11778TIP3    H235276   0.670   7.193   0.602  0.1467  1.1031 -0.9114
11779TIP3   OH235277   6.629   4.244   1.845 -0.3797  0.0673  0.5175
11779TIP3    H135278   6.609   4.158   1.809  1.6595 -0.1209 -0.2382
11779TIP3    H235279   6.718   4.237   1.880 -1.0701  1.1699  2.7548
11780TIP3   OH235280   4.495   0.127   2.924 -0.3978 -0.0564 -0.0798
11780TIP3    H135281   4.437   0.106   2.998 -1.8774  1.5745 -0.6982
11780TIP3    H235282   4.452   0.087   2.849 -0.4662  0.7309 -0.4697
11781TIP3   OH235283   7.305   0.248   3.462 -0.5271 -0.0217  0.6203
11781TIP3    H135284   7.395   0.215   3.466 -0.9943 -1.7525 -1.4474
11781TIP3    H235285   7.314   0.342   3.475  1.5849 -0.1377  0.4308
11782TIP3   OH235286   6.955   7.620   2.204 -0.4875 -0.2679  0.0936
11782TIP3    H135287   6.948   7.526   2.219 -0.9177 -0.5016 -1.3820
11782TIP3    H235288   6.959   7.658   2.291 -1.7766 -1.5585  0.7630
11783TIP3   OH235289   3.714   5.677   3.914  0.9402 -0.6685  0.1666
11783TIP3    H135290   3.645   5.743   3.923  1.3401 -0.3608  1.1434
11783TIP3    H235291   3.705   5.646   3.825 -0.3013 -0.4478  0.1882
11784TIP3   OH235292   5.184   0.508   1.321  0.6555  0.7159  0.0538
11784TIP3    H135293   5.265   0.484   1.366  0.2453  0.7833  0.8522
11784TIP3    H235294   5.190   0.464   1.237  0.9261 -0.3955  0.6249
11785TIP3   OH235295   3.542   2.458   3.681  0.0685 -0.5069 -0.1761
11785TIP3    H135296   3.486   2.402   3.627  0.5637 -0.7505 -0.4527
11785TIP3    H235297   3.569   2.529   3.623 -0.5039 -0.0082  0.1560
11786TIP3   OH235298   3.266   6.660   6.748 -0.1595  0.4458 -0.1018
11786TIP3    H135299   3.235   6.569   6.751  0.9939  0.0109 -0.7487
11786TIP3    H235300   3.219   6.704   6.819 -1.0134 -0.5629 -0.0169
11787TIP3   OH235301   1.224   6.551   5.689  0.4223  0.0371 -0.1483
11787TIP3    H135302   1.162   6.478   5.694 -0.4403  0.6811 -1.0448
11787TIP3    H235303   1.286   6.535   5.761  0.8381 -2.0982 -0.8780
11788TIP3   OH235304   3.266   6.474   4.551  0.3700  0.5636  0.2746
11788TIP3    H135305   3.192   6.521   4.513  0.5303 -0.2371 -1.1123
11788TIP3    H235306   3.343   6.518   4.513  0.6028  0.9914  1.2181
11789TIP3   OH235307   7.553   2.291   6.056  0.1488 -0.4396 -0.0385
11789TIP3    H135308   7.613   2.361   6.082  0.3588 -0.2934 -0.9021
11789TIP3    H235309   7.554   2.231   6.130  1.3032 -0.3904  0.0054
11790TIP3   OH235310   7.630   4.581   1.587 -0.4564  0.4495 -0.0125
11790TIP3    H135311   7.680   4.605   1.508  1.0443 -1.5344  0.2536
11790TIP3    H235312   7.691   4.529   1.639 -2.7520 -2.0626  0.3810
11791TIP3   OH235313   3.949   4.602   6.231 -0.8763  0.2922 -0.6678
11791TIP3    H135314   3.892   4.604   6.154 -1.6335 -1.0467 -0.1706
11791TIP3    H235315   3.966   4.509   6.246  2.0927  0.6421 -1.2387
11792TIP3   OH235316   1.797   5.632   5.947 -0.5205  0.2790  0.1729
11792TIP3    H135317   1.742   5.554   5.938 -1.0999  0.8448 -1.6216
11792TIP3    H235318   1.814   5.661   5.857  0.0905  1.9366  0.7682
11793TIP3   OH235319   1.195   4.180   5.980 -0.3838  0.0706 -0.2181
11793TIP3    H135320   1.250   4.152   5.907  0.4925  2.3928 -0.5291
11793TIP3    H235321   1.246   4.159   6.058 -1.4736 -2.7494 -0.1364
11794TIP3   OH235322   3.583   1.068   0.863 -0.2573 -0.0943 -0.6970
11794TIP3    H135323   3.623   0.985   0.836  0.3186 -0.1972  0.3946
11794TIP3    H235324   3.539   1.100   0.785 -1.8391 -2.2024 -0.7640
11795TIP3   OH235325   7.760   4.704   0.050 -0.2045  0.9081  0.7130
11795TIP3    H135326   7.775   4.777   0.110 -0.9015  1.7642 -0.1164
11795TIP3    H235327   7.752   4.627   0.107  0.4384  1.4883  1.6076
11796TIP3   OH235328   0.438   2.015   5.071 -0.2172 -0.4356  0.5024
11796TIP3    H135329   0.468   1.935   5.026 -0.2821  0.1828 -0.6885
11796TIP3    H235330   0.352   2.032   5.033  0.7628  1.4911 -1.0382
11797TIP3   OH235331   4.498   0.749   4.494 -0.6253 -0.3226  0.2583
11797TIP3    H135332   4.511   0.843   4.483 -0.3699 -0.4736 -0.8537
11797TIP3    H235333   4.442   0.724   4.421  0.9696 -1.3631 -0.6750
11798TIP3   OH235334   3.669   4.916   1.860  0.4894 -0.3930  0.1648
11798TIP3    H135335   3.658   4.822   1.844 -0.3690 -0.6065  1.7828
11798TIP3    H235336   3.621   4.932   1.941 -3.9046  2.3672 -2.5194
11799TIP3   OH235337   0.290   3.937   3.369  0.3755 -0.1115  0.2301
11799TIP3    H135338   0.321   3.927   3.278  0.6441  0.6255  0.2350
11799TIP3    H235339   0.238   4.017   3.368  1.8237  0.9015  1.0823
11800TIP3   OH235340   2.398   5.037   1.415  0.0918  0.0224 -0.3852
11800TIP3    H135341   2.364   5.043   1.326  0.2799 -1.6997 -0.6050
11800TIP3    H235342   2.322   5.013   1.468  0.2977 -0.5649 -0.3504
11801TIP3   OH235343   0.999   3.298   5.244  0.1568  0.7706  0.1541
11801TIP3    H135344   0.912   3.332   5.267 -0.9745 -1.3417 -0.7717
11801TIP3    H235345   0.997   3.206   5.269  1.3236  0.1101 -1.9318
11802TIP3   OH235346   5.940   0.527   0.887 -0.0025 -0.5885  0.4447
11802TIP3    H135347   5.891   0.608   0.880 -0.2213 -0.6921  0.7369
11802TIP3    H235348   5.919   0.479   0.807 -1.1653 -1.0566  0.9964
11803TIP3   OH235349   7.154   0.846   5.975  0.3594 -0.2504  0.1761
11803TIP3    H135350   7.245   0.819   5.968  0.6547  0.8972 -0.6492
11803TIP3    H235351   7.108   0.792   5.911  0.1554 -1.9477  1.6745
11804TIP3   OH235352   6.495   7.804   0.786  0.7452 -0.4968 -0.0905
11804TIP3    H135353   6.476   7.884   0.736  0.2351 -0.7103 -0.2413
11804TIP3    H235354   6.570   7.828   0.841 -1.2275  1.0634  2.1104
11805TIP3   OH235355   5.915   5.837   4.473  0.0083 -0.0158 -0.2733
11805TIP3    H135356   5.853   5.788   4.527  0.6335 -0.3270  0.1750
11805TIP3    H235357   5.978   5.874   4.536 -0.5555  1.5304 -0.5827
11806TIP3   OH235358   5.607   1.518   2.516 -0.7223  0.0229  0.5514
11806TIP3    H135359   5.577   1.604   2.544  0.1835  1.1488 -1.6585
11806TIP3    H235360   5.650   1.481   2.592 -1.8495  1.1572  1.7926
11807TIP3   OH235361   4.146   1.470   2.084  0.4265 -0.1388 -0.2417
11807TIP3    H135362   4.241   1.467   2.075  0.3123 -1.4344 -1.3663
11807TIP3    H235363   4.115   1.496   1.997 -0.2907 -1.2543 -0.3396
11808TIP3   OH235364   2.459   6.799   5.718  0.4093 -0.1874 -0.0191
11808TIP3    H135365   2.366   6.821   5.717  0.4192  0.0099  1.3237
11808TIP3    H235366   2.479   6.782   5.810  1.4853 -1.2167 -0.4131
11809TIP3   OH235367   5.849   6.422   4.605 -0.0087  0.4106  0.2559
11809TIP3    H135368   5.907   6.497   4.619  1.3421 -0.6415  0.4769
11809TIP3    H235369   5.907   6.351   4.580 -1.4282 -0.1768 -1.5952
11810TIP3   OH235370   2.858   3.558   6.442  0.7025 -0.5225  0.2853
11810TIP3    H135371   2.826   3.475   6.407  1.7782 -0.6719 -0.3797
11810TIP3    H235372   2.903   3.600   6.369 -2.0180  1.8898 -0.2066
11811TIP3   OH235373   2.458   5.163   2.823 -0.3718 -0.3267  0.8203
11811TIP3    H135374   2.475   5.164   2.917 -1.7701 -1.6822  1.1303
11811TIP3    H235375   2.474   5.072   2.798 -1.4347 -0.3017  0.0316
11812TIP3   OH235376   0.571   2.860   2.005 -0.6793 -0.2127 -0.0607
11812TIP3    H135377   0.482   2.832   1.984 -1.2828  0.9997  0.7450
11812TIP3    H235378   0.607   2.789   2.057 -2.4871  0.7329  2.7241
11813TIP3   OH235379   5.324   3.176   5.359 -0.0939 -0.0971 -0.2895
11813TIP3    H135380   5.385   3.221   5.418  1.9448 -0.7886 -1.7587
11813TIP3    H235381   5.258   3.242   5.338  0.7101  1.0121  0.5673
11814TIP3   OH235382   1.349   0.293   1.776  0.3135  0.1298 -0.1146
11814TIP3    H135383   1.437   0.259   1.792  0.1635 -0.1363  0.1449
11814TIP3    H235384   1.322   0.330   1.860  0.2566  0.3986 -0.2490
11815TIP3   OH235385   2.567   3.764   5.969 -0.6418 -0.4773 -0.7693
11815TIP3    H135386   2.548   3.698   5.903  0.5519 -0.1864 -1.4267
11815TIP3    H235387   2.663   3.768   5.973 -0.6917  0.4883 -0.0071
11816TIP3   OH235388   0.947   4.016   5.972  0.4212 -0.3826 -0.2354
11816TIP3    H135389   1.033   4.033   6.012  1.1311 -1.7758 -1.0954
11816TIP3    H235390   0.967   3.988   5.883 -0.8177 -2.3095  0.0436
11817TIP3   OH235391   3.959   2.021   1.816 -0.2429 -0.1501  0.7536
11817TIP3    H135392   3.998   1.949   1.864 -0.8734  0.0933  1.6529
11817TIP3    H235393   3.877   2.039   1.862  0.2169  1.5808  0.9828
11818TIP3   OH235394   6.128   7.849   6.044 -0.1099 -0.0739  0.1324
11818TIP3    H135395   6.073   7.919   6.078 -0.7995  0.3155 -1.6886
11818TIP3    H235396   6.196   7.838   6.111 -1.2401  0.7878  1.4941
11819TIP3   OH235397   3.156   6.500   2.059 -0.1808  0.0361  0.2078
11819TIP3    H135398   3.186   6.496   1.968 -0.5417  1.3792  0.0093
11819TIP3    H235399   3.224   6.550   2.104 -0.3599 -0.0127  0.5306
11820TIP3   OH235400   1.896   6.591   4.202 -0.1647  0.4463  0.5366
11820TIP3    H135401   1.922   6.683   4.201 -0.9077  0.6866  1.7757
11820TIP3    H235402   1.802   6.592   4.219 -0.3808 -0.5267 -0.4312
11821TIP3   OH235403   5.486   5.109   2.812  0.2288 -0.0216 -0.5272
11821TIP3    H135404   5.561   5.082   2.759 -0.5849 -0.4506 -1.4925
11821TIP3    H235405   5.524   5.160   2.884  1.5464 -1.2885 -0.2913
11822TIP3   OH235406   6.574   0.833   5.756 -0.0097  0.3124 -1.0578
11822TIP3    H135407   6.609   0.749   5.729 -0.0503  0.6897 -2.3880
11822TIP3    H235408   6.500   0.812   5.813  1.8882 -0.4893  1.2840
11823TIP3   OH235409   1.933   6.913   2.567 -0.2423  0.0471  0.7713
11823TIP3    H135410   2.002   6.953   2.514 -1.3804  2.2759  0.8566
11823TIP3    H235411   1.977   6.847   2.620  1.2030 -1.1599 -1.7706
11824TIP3   OH235412   1.336   7.523   3.525 -0.0409  0.2096  0.0515
11824TIP3    H135413   1.335   7.582   3.600 -0.4365 -0.1375  0.3234
11824TIP3    H235414   1.247   7.525   3.490  0.5095  1.5769 -1.3871
11825TIP3   OH235415   5.745   0.893   4.921 -0.0449 -0.0148  0.0448
11825TIP3    H135416   5.796   0.965   4.884 -1.4336 -0.2552 -2.5970
11825TIP3    H235417   5.686   0.935   4.983  0.2017  0.9274 -0.3396
11826TIP3   OH235418   3.210   7.083   3.963  0.2886 -0.0404  0.0716
11826TIP3    H135419   3.190   6.991   3.946  1.7301 -0.5869  1.1399
11826TIP3    H235420   3.221   7.088   4.058  0.5283  1.1713 -0.0112
11827TIP3   OH235421   6.927   2.182   4.979 -0.5274  0.3270  0.7842
11827TIP3    H135422   6.921   2.086   4.979  1.0266  0.2052 -0.3026
11827TIP3    H235423   6.954   2.204   5.068 -0.3662 -0.2900  0.8922
11828TIP3   OH235424   1.733   0.885   4.605 -0.2690 -0.4256  0.7437
11828TIP3    H135425   1.712   0.803   4.560  2.1845 -1.4202  1.2885
11828TIP3    H235426   1.647   0.919   4.632 -1.4582 -2.0901 -0.6706
11829TIP3   OH235427   3.168   0.683   0.849 -0.0552 -0.4306  0.3619
11829TIP3    H135428   3.106   0.639   0.791 -0.0784 -0.1953  0.2045
11829TIP3    H235429   3.119   0.696   0.930  0.3779 -1.8880  0.8851
11830TIP3   OH235430   5.313   5.713   5.424 -0.1556  0.5171 -0.5266
11830TIP3    H135431   5.357   5.749   5.502 -0.0971 -2.1464  0.7900
11830TIP3    H235432   5.365   5.746   5.351  0.9084  1.6454  0.6635
11831TIP3   OH235433   4.868   3.768   6.540  0.6197  0.1576 -0.2800
11831TIP3    H135434   4.814   3.693   6.514  0.5586  0.1730 -0.1993
11831TIP3    H235435   4.886   3.753   6.633 -1.2924  1.4037  0.3527
11832TIP3   OH235436   1.524   3.275   6.829  0.1470  0.4511  0.4270
11832TIP3    H135437   1.591   3.208   6.816 -0.4899  0.2003 -2.1138
11832TIP3    H235438   1.444   3.227   6.846  0.1638  0.6664  1.1274
11833TIP3   OH235439   6.561   3.909   0.598  0.2347 -0.0495  0.5367
11833TIP3    H135440   6.491   3.941   0.541  1.2972 -0.0714 -0.8411
11833TIP3    H235441   6.522   3.833   0.643 -1.1866  1.0213  1.2114
11834TIP3   OH235442   4.630   7.817   4.857 -0.1850 -0.2977  0.0507
11834TIP3    H135443   4.587   7.744   4.902 -1.4393 -1.2474 -2.5010
11834TIP3    H235444   4.563   7.852   4.799  2.1594 -1.4755 -3.7273
11835TIP3   OH235445   5.533   0.894   4.356 -0.2386  0.3854  0.1353
11835TIP3    H135446   5.550   0.810   4.398 -2.2939  0.0908  0.5050
11835TIP3    H235447   5.611   0.946   4.374  0.3187 -0.8389  1.4504
11836TIP3   OH235448   4.443   2.718   1.808  0.2912  0.6763  0.2099
11836TIP3    H135449   4.514   2.700   1.870 -0.2629  1.3699  1.0648
11836TIP3    H235450   4.484   2.770   1.739  0.8570  0.1133  0.1143
11837TIP3   OH235451   4.398   4.923   2.993  0.2837  0.3762 -0.0696
11837TIP3    H135452   4.445   4.981   2.934  0.6409 -0.1250 -0.2909
11837TIP3    H235453   4.305   4.935   2.970  0.4700 -0.5606 -1.4606
11838TIP3   OH235454   7.333   5.269   6.009 -0.0813  0.0783 -0.0001
11838TIP3    H135455   7.342   5.297   6.100  0.5771  2.6528 -0.7965
11838TIP3    H235456   7.274   5.333   5.969  0.9515 -0.0273 -1.7800
11839TIP3   OH235457   2.222   5.858   6.571  0.3770 -0.3376  0.3498
11839TIP3    H135458   2.294   5.837   6.512 -1.4911 -1.5633 -1.6724
11839TIP3    H235459   2.257   5.844   6.658  2.8337  0.0305 -0.5134
11840TIP3   OH235460   2.109   4.969   1.454 -0.0803 -0.6231 -0.4522
11840TIP3    H135461   2.063   5.027   1.514  0.6722 -1.0219  0.5480
11840TIP3    H235462   2.059   4.887   1.457 -1.0334 -0.1121 -1.7186
11841TIP3   OH235463   4.922   4.973   3.524  0.6785  0.3973  0.0788
11841TIP3    H135464   4.865   4.962   3.448  0.9833  0.3321 -0.1426
11841TIP3    H235465   4.987   4.903   3.515  0.2226 -0.1478  0.8531
11842TIP3   OH235466   6.168   4.221   1.303  0.7159 -0.0056  0.3772
11842TIP3    H135467   6.079   4.251   1.321  0.7991  0.0294  0.7279
11842TIP3    H235468   6.208   4.211   1.389  1.8956  2.4581  0.1793
11843TIP3   OH235469   1.379   7.737   4.650 -0.1778  0.2595  0.0937
11843TIP3    H135470   1.367   7.804   4.582 -0.9250 -0.3302 -0.3654
11843TIP3    H235471   1.302   7.747   4.707 -0.3497 -0.2805 -0.0416
11844TIP3   OH235472   2.748   5.141   6.492 -0.2032  1.0571 -0.1829
11844TIP3    H135473   2.834   5.119   6.456 -0.0672 -1.2096  1.3239
11844TIP3    H235474   2.762   5.225   6.537  0.6631  1.7338 -1.6343
11845TIP3   OH235475   0.771   1.426   5.067 -0.4691  0.0446 -0.0513
11845TIP3    H135476   0.686   1.437   5.109  0.3796 -2.0961  2.4754
11845TIP3    H235477   0.754   1.367   4.993 -1.2640  0.1821  0.0194
11846TIP3   OH235478   3.680   3.164   5.887  0.2972  0.8885 -0.2365
11846TIP3    H135479   3.618   3.092   5.878  0.3230  1.1039 -2.5226
11846TIP3    H235480   3.746   3.149   5.819  1.0508  2.3481  0.1230
11847TIP3   OH235481   3.638   1.855   6.797  0.1171 -0.0833 -0.2214
11847TIP3    H135482   3.714   1.859   6.739  0.5233 -1.1787  0.2104
11847TIP3    H235483   3.640   1.937   6.845  1.4183 -0.3704  0.2607
11848TIP3   OH235484   1.575   7.705   6.393  0.2366 -0.3109 -0.7574
11848TIP3    H135485   1.504   7.766   6.374  0.1817 -0.1592 -0.0804
11848TIP3    H235486   1.547   7.659   6.472 -0.7789 -2.8170 -2.4148
11849TIP3   OH235487   3.419   5.754   0.586 -0.1505  0.6125 -0.1307
11849TIP3    H135488   3.325   5.738   0.578 -0.6224  2.6978  0.6194
11849TIP3    H235489   3.437   5.825   0.524  1.0020  0.0471 -0.4728
11850TIP3   OH235490   1.473   1.856   5.564 -0.0199 -0.2009 -0.1753
11850TIP3    H135491   1.461   1.948   5.539 -0.7941 -0.2706 -0.0760
11850TIP3    H235492   1.437   1.806   5.491  2.6437 -0.4901 -1.4034
11851TIP3   OH235493   1.639   3.440   6.014 -0.1708  0.2242 -0.0663
11851TIP3    H135494   1.578   3.445   6.088 -0.0193 -1.8123  0.2568
11851TIP3    H235495   1.714   3.391   6.048 -0.4256 -1.4618 -1.7344
11852TIP3   OH235496   5.319   0.868   4.198  0.5118  0.2108 -0.1214
11852TIP3    H135497   5.306   0.962   4.194  1.6894  0.4097  0.3951
11852TIP3    H235498   5.399   0.856   4.249 -0.7901 -1.1484  1.7389
11853TIP3   OH235499   7.431   2.592   5.002  0.2057  0.1437 -0.5978
11853TIP3    H135500   7.444   2.500   4.977  0.0348  0.8176 -3.5279
11853TIP3    H235501   7.519   2.624   5.021  0.9588  0.4366 -4.0058
11854TIP3   OH235502   2.232   0.121   0.352  0.1055  0.3655 -0.1295
11854TIP3    H135503   2.281   0.049   0.392 -0.4008  0.8008  1.3087
11854TIP3    H235504   2.285   0.147   0.276  2.3053  1.0444  1.5480
11855TIP3   OH235505   1.906   1.843   1.136  0.1079  0.1647 -0.1807
11855TIP3    H135506   1.989   1.820   1.093  1.1535  0.6707  1.4549
11855TIP3    H235507   1.908   1.938   1.144 -0.7048  0.1928 -0.2567
11856TIP3   OH235508   3.507   7.602   2.159  0.1329  0.0104  0.5003
11856TIP3    H135509   3.425   7.562   2.132 -1.2726  1.7389  1.9721
11856TIP3    H235510   3.547   7.631   2.077 -1.6929  0.8803 -0.1339
11857TIP3   OH235511   1.122   3.940   3.029 -0.4195 -0.2347 -0.3057
11857TIP3    H135512   1.096   3.988   3.108  1.1107 -0.3862  0.3236
11857TIP3    H235513   1.085   3.992   2.957  2.0815  2.6202  0.2613
11858TIP3   OH235514   4.732   5.084   2.714  0.2902 -0.0759  0.6124
11858TIP3    H135515   4.811   5.133   2.692  0.7340 -0.7267  0.7395
11858TIP3    H235516   4.742   5.000   2.670 -1.5015  0.7091 -1.5171
11859TIP3   OH235517   6.803   6.274   5.960  0.4172  0.1393 -1.2741
11859TIP3    H135518   6.721   6.323   5.971  1.2093  1.8333 -2.4571
11859TIP3    H235519   6.801   6.208   6.030 -1.2968  1.0240 -0.4134
11860TIP3   OH235520   7.639   7.805   2.568 -0.1654 -0.2202  0.1669
11860TIP3    H135521   7.584   7.793   2.646  0.9343 -0.0622  0.9931
11860TIP3    H235522   7.631   7.722   2.521 -1.2268 -0.1448  0.1840
11861TIP3   OH235523   3.740   7.323   2.429 -0.1905 -0.0270 -0.2553
11861TIP3    H135524   3.679   7.323   2.355 -1.3310  1.0027  0.6239
11861TIP3    H235525   3.826   7.309   2.390 -0.7571  0.5287 -1.7785
11862TIP3   OH235526   4.772   2.105   2.428 -0.6488 -0.2742  0.2941
11862TIP3    H135527   4.797   2.129   2.517 -1.2718 -1.4331  0.7984
11862TIP3    H235528   4.703   2.040   2.439 -1.9089  0.7685 -1.0488
11863TIP3   OH235529   1.474   0.600   0.187 -0.1974 -0.2555  0.1502
11863TIP3    H135530   1.532   0.529   0.216  0.9417  0.3804 -0.5022
11863TIP3    H235531   1.412   0.557   0.128  0.0305 -0.8278  0.3187
11864TIP3   OH235532   1.503   4.229   6.534  0.0030  0.0975  0.4051
11864TIP3    H135533   1.462   4.274   6.460  0.2392  0.3091  0.3987
11864TIP3    H235534   1.557   4.162   6.494 -0.9223 -0.6872  0.4448
11865TIP3   OH235535   5.180   1.462   5.037  0.3075  0.1333  0.3979
11865TIP3    H135536   5.104   1.459   4.978  1.7975  0.2958 -1.6064
11865TIP3    H235537   5.141   1.464   5.125 -1.9763 -1.4610 -0.4837
11866TIP3   OH235538   8.346   1.012   2.349 -0.4853  0.7064 -0.8472
11866TIP3    H135539   8.345   1.085   2.286 -0.6558  0.6729 -0.8822
11866TIP3    H235540   8.348   0.934   2.295  4.0649  0.6233 -0.9575
11867TIP3   OH235541   3.597   1.840   4.816 -0.2939  0.1939 -0.2399
11867TIP3    H135542   3.653   1.893   4.759 -1.3652  0.8402 -0.7300
11867TIP3    H235543   3.642   1.838   4.900  0.0929  1.3318 -0.4089
11868TIP3   OH235544   6.716   2.499   1.867  0.1763 -0.3427 -0.5840
11868TIP3    H135545   6.759   2.537   1.944  0.5905 -0.4838 -0.7421
11868TIP3    H235546   6.741   2.557   1.795  1.4681 -1.3313 -0.9717
11869TIP3   OH235547   4.619   3.691   2.799  0.9583 -0.1748 -0.8497
11869TIP3    H135548   4.572   3.649   2.727 -1.1034  1.0513 -0.2832
11869TIP3    H235549   4.665   3.764   2.759  2.3332 -1.2856 -1.3799
11870TIP3   OH235550   3.950   0.141   3.338  0.5514  0.4510  0.0266
11870TIP3    H135551   4.035   0.175   3.365 -0.3649  2.4284  0.6161
11870TIP3    H235552   3.951   0.049   3.365  1.7746  0.9444  1.8414
11871TIP3   OH235553   3.589   3.448   4.990 -0.2851  0.0524 -0.3195
11871TIP3    H135554   3.600   3.525   5.046 -1.1459  0.3786 -0.5858
11871TIP3    H235555   3.518   3.472   4.930 -1.9147 -1.6489  0.8361
11872TIP3   OH235556   2.312   2.694   5.513  0.5782 -0.6709 -0.0609
11872TIP3    H135557   2.262   2.670   5.591  0.6227 -1.7833 -0.3673
11872TIP3    H235558   2.343   2.783   5.532 -1.1303 -0.1227  0.3147
11873TIP3   OH235559   3.419   7.304   1.558  0.0840  0.2562 -0.6413
11873TIP3    H135560   3.369   7.313   1.477 -1.6443 -0.2563  0.3311
11873TIP3    H235561   3.368   7.351   1.624 -0.3602 -2.1589  0.8589
11874TIP3   OH235562   7.661   0.156   0.010  0.1199 -0.2815 -0.6936
11874TIP3    H135563   7.609   0.206   0.073 -1.6116 -1.3512 -1.2039
11874TIP3    H235564   7.722   0.106   0.064 -0.2772 -0.0142  0.0209
11875TIP3   OH235565   6.285   0.538   2.866  0.0361  0.6328 -0.2328
11875TIP3    H135566   6.304   0.609   2.806  0.7773  0.0916 -0.6639
11875TIP3    H235567   6.190   0.540   2.878 -0.1042  0.8191 -1.3259
11876TIP3   OH235568   7.997   4.080   5.032  0.0556  0.2363 -0.0091
11876TIP3    H135569   7.984   4.061   4.939  0.7273 -0.1663 -0.0245
11876TIP3    H235570   8.024   4.172   5.035 -1.2812  0.6536 -0.0937
11877TIP3   OH235571   0.876   7.419   2.639 -0.3614  0.3715 -0.7215
11877TIP3    H135572   0.842   7.482   2.575  2.9719  0.3208 -2.7920
11877TIP3    H235573   0.872   7.335   2.594  2.3045  0.3821 -1.1260
11878TIP3   OH235574   0.579   6.873   4.198  0.5654  0.2099 -0.4363
11878TIP3    H135575   0.622   6.897   4.116  1.2100 -1.6012 -0.6762
11878TIP3    H235576   0.644   6.893   4.266 -0.1926  2.2801 -0.2554
11879TIP3   OH235577   6.909   2.147   0.165 -0.1153 -0.6581 -0.3889
11879TIP3    H135578   6.959   2.211   0.216 -2.1837 -0.5469  1.6945
11879TIP3    H235579   6.893   2.075   0.226 -2.4344 -0.6716 -0.9121
11880TIP3   OH235580   0.271   1.754   5.316 -0.1746  0.1058  0.1362
11880TIP3    H135581   0.203   1.726   5.378 -0.0383  1.0518  0.7432
11880TIP3    H235582   0.222   1.790   5.242 -0.3371 -0.6648 -0.1405
11881TIP3   OH235583   5.117   3.625   3.509 -0.1075  0.1082  0.3173
11881TIP3    H135584   5.138   3.563   3.579 -1.3790 -0.3634  0.3238
11881TIP3    H235585   5.039   3.670   3.541 -1.2263 -0.7190 -1.1270
11882TIP3   OH235586   5.519   6.162   6.702 -0.0733 -0.1995  0.2119
11882TIP3    H135587   5.569   6.084   6.728  0.8787  0.3767  0.1515
11882TIP3    H235588   5.437   6.155   6.749  0.3064 -0.8609  0.7891
11883TIP3   OH235589   5.212   2.616   3.881 -0.5670 -0.4707  0.7204
11883TIP3    H135590   5.256   2.561   3.946  0.1396 -1.3574 -0.4559
11883TIP3    H235591   5.258   2.699   3.883  0.7419 -1.1431  0.0269
11884TIP3   OH235592   0.922   5.906   2.280  0.4549 -0.2686  0.2981
11884TIP3    H135593   0.837   5.937   2.313  0.1388 -0.2608 -0.4887
11884TIP3    H235594   0.987   5.946   2.338 -0.0775 -0.2684  0.9102
11885TIP3   OH235595   0.193   1.338   5.297 -0.6744  0.0299  0.5669
11885TIP3    H135596   0.152   1.422   5.312  0.4292  0.5795  0.6186
11885TIP3    H235597   0.255   1.353   5.225 -0.4629 -0.7242  0.5766
11886TIP3   OH235598   3.428   2.429   1.796  0.2624  0.2973  0.1604
11886TIP3    H135599   3.452   2.381   1.875  1.3664  0.0817 -0.2782
11886TIP3    H235600   3.501   2.490   1.783 -0.0052  0.4653 -0.5854
11887TIP3   OH235601   4.842   4.275   2.259  0.1775  0.2926  0.3782
11887TIP3    H135602   4.792   4.232   2.329  1.4662  1.1415  1.8664
11887TIP3    H235603   4.933   4.268   2.286  1.0051 -1.3034 -2.3218
11888TIP3   OH235604   0.535   7.181   3.808  0.0455  0.2177 -0.1068
11888TIP3    H135605   0.512   7.259   3.858  0.5748  1.0123 -1.0731
11888TIP3    H235606   0.462   7.170   3.747  0.1083  0.1216 -0.1644
11889TIP3   OH235607   3.933   3.545   4.298  0.3171 -0.4150  0.3475
11889TIP3    H135608   3.903   3.456   4.282 -1.1034 -0.1569  1.4359
11889TIP3    H235609   3.868   3.600   4.255  0.6642  0.1216  0.5020
11890TIP3   OH235610   3.494   7.331   3.665  0.2771  0.3517  0.1864
11890TIP3    H135611   3.460   7.406   3.714 -1.9752 -2.0630  2.6930
11890TIP3    H235612   3.462   7.345   3.575  0.7171  2.7472  0.3195
11891TIP3   OH235613   3.574   2.356   0.427  0.1698  0.0972 -0.2950
11891TIP3    H135614   3.494   2.309   0.404 -0.2693  0.2153  0.9245
11891TIP3    H235615   3.626   2.293   0.476  0.1939  0.4482  0.1376
11892TIP3   OH235616   4.978   5.096   1.191  0.4291  0.0246  0.2320
11892TIP3    H135617   4.987   5.014   1.143  0.8990  0.2940 -0.1376
11892TIP3    H235618   4.910   5.144   1.144 -0.1789 -0.3317  0.7142
11893TIP3   OH235619   5.780   5.506   2.021 -0.2364  0.3919 -0.3665
11893TIP3    H135620   5.712   5.515   1.955 -1.5398 -0.3745  0.8286
11893TIP3    H235621   5.841   5.577   2.002 -0.5826  0.2189 -2.3507
11894TIP3   OH235622   8.003   7.539   6.095 -0.3431  0.5002  0.3030
11894TIP3    H135623   7.964   7.600   6.032  1.3916  1.0118 -0.3343
11894TIP3    H235624   8.097   7.549   6.083  0.0634  0.4130  2.8003
11895TIP3   OH235625   3.711   0.635   0.041  0.2151 -0.1663  0.4333
11895TIP3    H135626   3.753   0.564  -0.007 -2.2488 -0.3734 -1.6883
11895TIP3    H235627   3.617   0.617   0.034 -0.5857  3.4623 -0.6481
11896TIP3   OH235628   5.240   1.489   2.828  0.1111 -0.0619 -0.0815
11896TIP3    H135629   5.328   1.452   2.839  0.1829  0.0926 -0.1376
11896TIP3    H235630   5.182   1.421   2.861  0.1703 -0.7356 -1.2852
11897TIP3   OH235631   7.339   0.940   4.002 -0.7294 -0.1699 -0.0407
11897TIP3    H135632   7.309   1.031   4.010  1.4882  0.6763 -0.7599
11897TIP3    H235633   7.259   0.889   4.009 -2.6026  1.9671 -3.2608
11898TIP3   OH235634   8.182   5.482   0.828  0.2964 -0.0098  0.2285
11898TIP3    H135635   8.189   5.469   0.923  0.5199 -2.1457 -0.0309
11898TIP3    H235636   8.088   5.494   0.812 -0.1338 -2.5743  0.4586
11899TIP3   OH235637   7.747   2.205   4.273 -0.5860  0.0321 -0.0152
11899TIP3    H135638   7.679   2.150   4.236  0.8525  0.1475 -3.1493
11899TIP3    H235639   7.823   2.147   4.282  0.3824  0.9693 -1.5700
11900TIP3   OH235640   2.748   3.283   1.511  0.2188 -0.2688  0.0324
11900TIP3    H135641   2.828   3.335   1.505  1.5758 -2.2281  0.1511
11900TIP3    H235642   2.718   3.275   1.420  0.1444  0.4670 -0.0131
11901TIP3   OH235643   1.092   5.774   5.203 -0.3082  0.4851  0.1762
11901TIP3    H135644   1.023   5.784   5.269 -0.8622  2.1856 -0.6097
11901TIP3    H235645   1.053   5.720   5.135  0.1791 -1.0625  1.0884
11902TIP3   OH235646   7.650   1.880   6.889  0.0423 -0.2075 -0.4044
11902TIP3    H135647   7.608   1.795   6.904 -0.5979  0.4032  1.5307
11902TIP3    H235648   7.628   1.901   6.799 -0.1067 -1.9121 -0.8094
11903TIP3   OH235649   4.355   3.555   4.962  0.0588  0.0751 -0.0091
11903TIP3    H135650   4.326   3.536   4.872  2.0535 -0.2964 -0.6203
11903TIP3    H235651   4.385   3.646   4.958  0.9788 -0.2119  0.0209
11904TIP3   OH235652   7.948   5.315   1.437  0.4724 -0.3524  0.3680
11904TIP3    H135653   8.041   5.337   1.428  0.2203  0.4763 -0.3964
11904TIP3    H235654   7.902   5.398   1.423 -0.4287 -0.9557 -0.3956
11905TIP3   OH235655   6.149   1.928   2.727  0.1810 -0.5872 -0.6530
11905TIP3    H135656   6.225   1.909   2.671  2.1538  0.8510  1.3657
11905TIP3    H235657   6.153   2.023   2.740 -0.0896 -0.8772  2.0236
11906TIP3   OH235658   2.674   3.364   2.996  0.1926 -0.4519  0.2286
11906TIP3    H135659   2.733   3.311   2.942 -0.2301 -0.7067  0.0157
11906TIP3    H235660   2.729   3.394   3.069  1.3768  1.6874 -1.4097
11907TIP3   OH235661   2.420   7.765   1.421  0.3417 -0.5953 -0.3489
11907TIP3    H135662   2.450   7.853   1.444 -0.2400 -0.8926  1.7673
11907TIP3    H235663   2.370   7.778   1.341  0.7818  0.9027 -0.4208
11908TIP3   OH235664   6.943   2.751   2.912 -0.4998  0.1391  0.7160
11908TIP3    H135665   6.874   2.816   2.898  0.5873  1.2638  0.4240
11908TIP3    H235666   7.015   2.800   2.951  0.8434 -0.5978 -0.7202
11909TIP3   OH235667   4.644   3.332   4.390  0.4193  0.1274  0.2833
11909TIP3    H135668   4.656   3.334   4.485 -1.0857  0.8880  0.4778
11909TIP3    H235669   4.705   3.265   4.360  2.6552  1.5021  1.4972
11910TIP3   OH235670   8.304   1.896   6.261  0.2768 -0.4527  0.1679
11910TIP3    H135671   8.350   1.957   6.319 -0.5575  0.2484  0.1170
11910TIP3    H235672   8.333   1.920   6.173  0.4501 -0.5620  0.1954
11911TIP3   OH235673   3.631   6.540   3.625 -0.0849 -0.2545  0.8137
11911TIP3    H135674   3.585   6.513   3.705  0.0996  2.6822  2.0142
11911TIP3    H235675   3.713   6.577   3.656 -0.7653  2.5941 -0.5044
11912TIP3   OH235676   6.462   5.789   5.499  0.0393 -0.3356  0.2435
11912TIP3    H135677   6.380   5.769   5.543  0.3786 -1.2974  0.4793
11912TIP3    H235678   6.515   5.833   5.566  0.0882 -0.6567  0.4219
11913TIP3   OH235679   5.595   6.234   6.119 -0.4277  0.1310  0.1828
11913TIP3    H135680   5.576   6.203   6.031 -2.5833 -0.1901  0.7199
11913TIP3    H235681   5.637   6.159   6.162  3.2643  1.1317 -1.2766
11914TIP3   OH235682  -0.002   5.595   3.587  0.3638  0.0933  0.4530
11914TIP3    H135683  -0.009   5.658   3.515 -0.7221 -0.0727  0.3890
11914TIP3    H235684   0.078   5.619   3.633 -0.0374  1.5364  0.4390
11915TIP3   OH235685   8.125   7.670   2.708  0.2338 -0.3917  0.0476
11915TIP3    H135686   8.114   7.616   2.786  0.3418 -0.0489  0.3035
11915TIP3    H235687   8.041   7.715   2.698  0.4337  0.0527  0.3417
11916TIP3   OH235688   5.280   2.135   0.928 -0.2140 -0.0776 -0.1255
11916TIP3    H135689   5.358   2.084   0.904 -0.1806 -0.4809  0.8061
11916TIP3    H235690   5.247   2.169   0.845 -0.0727 -1.3887 -0.7476
11917TIP3   OH235691   0.190   0.113   4.930 -0.1125 -0.5956  0.2235
11917TIP3    H135692   0.206   0.184   4.993  0.0915  0.1133 -0.6125
11917TIP3    H235693   0.177   0.035   4.985  1.0388 -0.1858  1.1105
11918TIP3   OH235694   3.865   5.326   2.305  0.4376  0.7415  0.4538
11918TIP3    H135695   3.960   5.317   2.303  0.3157 -2.2176  2.2483
11918TIP3    H235696   3.832   5.256   2.249 -0.6125 -1.5639  3.6658
11919TIP3   OH235697   6.645   0.138   2.712 -0.1309 -0.6388  0.0894
11919TIP3    H135698   6.595   0.113   2.635 -1.4460  0.9901  0.3756
11919TIP3    H235699   6.586   0.193   2.763  1.5798  0.4683  0.9762
11920TIP3   OH235700   5.212   3.541   5.608  0.0902  0.1590  0.1872
11920TIP3    H135701   5.235   3.633   5.599  1.0078 -0.1348 -0.6092
11920TIP3    H235702   5.240   3.518   5.697  0.4218  0.4904  0.1694
11921TIP3   OH235703   7.064   4.529   1.606  0.0784 -0.1457 -0.3229
11921TIP3    H135704   7.019   4.611   1.588 -1.0920 -0.2824  1.6908
11921TIP3    H235705   7.033   4.503   1.692  0.3879 -2.7314 -0.9026
11922TIP3   OH235706   8.024   4.235   3.839  0.1674  0.1492  0.2060
11922TIP3    H135707   7.971   4.307   3.806 -0.7508  0.2441  1.7865
11922TIP3    H235708   7.992   4.220   3.928 -0.0925 -2.6078 -0.2583
11923TIP3   OH235709   0.609   2.556   5.895  0.1935 -0.3910 -0.0951
11923TIP3    H135710   0.680   2.536   5.834 -1.8698 -1.1241 -2.4146
11923TIP3    H235711   0.591   2.649   5.882 -0.3900 -0.5961 -0.8041
11924TIP3   OH235712   2.102   2.710   6.818 -0.4014  0.1247 -0.4369
11924TIP3    H135713   2.180   2.734   6.768  1.4491 -1.9213  1.2784
11924TIP3    H235714   2.042   2.674   6.753  0.8516 -0.0291 -1.5504
11925TIP3   OH235715   1.539   7.293   0.320 -0.1287 -0.2070  0.1379
11925TIP3    H135716   1.607   7.360   0.329  0.3655 -0.5948 -0.5723
11925TIP3    H235717   1.458   7.337   0.346  0.1068  0.8285 -0.8137
11926TIP3   OH235718   2.668   5.455   5.744 -0.4619  0.0280  0.2290
11926TIP3    H135719   2.718   5.493   5.672 -1.8126  1.1701 -0.1400
11926TIP3    H235720   2.621   5.529   5.783  0.4415 -0.4996  2.4906
11927TIP3   OH235721  -0.012   4.862   4.441 -0.4362 -0.4332 -0.4700
11927TIP3    H135722  -0.036   4.939   4.493 -0.7303  0.4670 -1.8721
11927TIP3    H235723   0.072   4.884   4.402 -0.9777 -0.3740 -1.6724
11928TIP3   OH235724   2.556   2.482   4.583 -0.2003  0.2130 -0.1542
11928TIP3    H135725   2.647   2.452   4.593 -0.0795  1.1351  2.0488
11928TIP3    H235726   2.514   2.461   4.666 -1.4242  1.7126 -0.3392
11929TIP3   OH235727   3.570   6.237   3.560 -0.0333  0.2377 -0.2440
11929TIP3    H135728   3.602   6.327   3.566  1.3847 -0.1003 -2.0095
11929TIP3    H235729   3.524   6.233   3.476 -2.2229 -0.1132  0.8774
11930TIP3   OH235730   2.281   5.651   5.994 -0.0013  0.1520 -0.4648
11930TIP3    H135731   2.361   5.619   6.035 -0.7300  1.9482  2.6877
11930TIP3    H235732   2.211   5.600   6.036 -0.6411 -0.4068 -2.1370
11931TIP3   OH235733   3.820   0.113   4.065  0.5190 -0.0382 -0.1890
11931TIP3    H135734   3.732   0.150   4.068  0.1014 -1.0126 -0.3445
11931TIP3    H235735   3.822   0.061   3.986  2.0182  1.8502 -1.4946
11932TIP3   OH235736   0.014   4.664   1.636  0.0061 -0.1462 -1.0195
11932TIP3    H135737   0.049   4.575   1.633  1.0957 -0.1152  3.5084
11932TIP3    H235738   0.090   4.720   1.626  0.1971  0.0810  1.2879
11933TIP3   OH235739   5.062   2.703   6.391 -0.0194 -0.4231 -0.1043
11933TIP3    H135740   5.090   2.792   6.370 -0.5925 -0.3733 -0.6713
11933TIP3    H235741   5.022   2.711   6.478  0.4239 -0.2373  0.0889
11934TIP3   OH235742   8.221   1.573   5.554 -0.3686  0.2627  0.4602
11934TIP3    H135743   8.219   1.662   5.519  0.9159 -0.4698 -1.6594
11934TIP3    H235744   8.129   1.551   5.571 -1.4260  0.2219 -3.9728
11935TIP3   OH235745   6.721   4.405   1.625 -0.2360  0.2850 -0.0343
11935TIP3    H135746   6.673   4.343   1.570 -1.3999  1.0351  0.1158
11935TIP3    H235747   6.738   4.356   1.706  0.6181 -0.4923 -0.6653
11936TIP3   OH235748   4.934   6.194   2.330 -0.5885  0.0505  0.5557
11936TIP3    H135749   4.953   6.121   2.389  1.3329 -0.6880 -0.8436
11936TIP3    H235750   4.998   6.261   2.353 -0.9982  0.4746  0.4743
11937TIP3   OH235751   3.623   0.362   5.555 -0.0330  0.3059 -0.0384
11937TIP3    H135752   3.610   0.270   5.532 -0.0045  0.2279  0.2539
11937TIP3    H235753   3.543   0.387   5.601 -0.3532  0.6376 -0.7691
11938TIP3   OH235754   4.454   6.629   4.121 -0.3377  1.1278 -0.0371
11938TIP3    H135755   4.374   6.605   4.168 -0.8546  2.3007 -0.2658
11938TIP3    H235756   4.438   6.719   4.091  0.9936  1.3157 -0.2557
11939TIP3   OH235757   2.211   6.950   5.757  0.2116 -0.9655  0.1845
11939TIP3    H135758   2.136   6.894   5.738 -0.4027 -0.1093  0.0323
11939TIP3    H235759   2.175   7.021   5.810  0.4733  0.5717 -1.5726
11940TIP3   OH235760   3.333   5.359   1.713  0.1254  0.1597 -0.0736
11940TIP3    H135761   3.376   5.378   1.630 -0.5064 -0.6917 -0.6110
11940TIP3    H235762   3.265   5.295   1.691  0.9622 -1.2855  1.3336
11941TIP3   OH235763   7.373   1.711   6.006 -0.4544  0.3243 -0.0713
11941TIP3    H135764   7.371   1.804   5.985  1.9080  0.3962 -0.2288
11941TIP3    H235765   7.463   1.694   6.033 -1.3526 -1.4653  2.2120
11942TIP3   OH235766   5.698   7.308   3.398  0.1799 -0.0131 -0.5328
11942TIP3    H135767   5.703   7.271   3.486 -1.2509 -1.4914 -1.0292
11942TIP3    H235768   5.725   7.399   3.409 -1.1570  0.1823  1.6750
11943TIP3   OH235769   5.110   1.016   1.191 -0.5049 -0.0757  0.2932
11943TIP3    H135770   5.133   1.098   1.234 -0.8038 -0.2035  0.7003
11943TIP3    H235771   5.043   0.977   1.247 -0.0424 -0.8164  0.3435
11944TIP3   OH235772   0.242   1.205   0.928  0.1810 -0.2063 -0.0634
11944TIP3    H135773   0.262   1.267   0.998 -1.9116 -0.5143  0.8933
11944TIP3    H235774   0.319   1.149   0.923  0.4183 -0.1647  2.0069
11945TIP3   OH235775   2.513   1.772   2.155 -0.1822 -0.2072  0.3238
11945TIP3    H135776   2.496   1.862   2.127 -1.1307 -0.2120  0.8433
11945TIP3    H235777   2.599   1.776   2.196 -1.1684  0.9926  2.4579
11946TIP3   OH235778   5.941   6.232   4.963  0.2555 -0.3908 -0.0841
11946TIP3    H135779   5.904   6.145   4.980 -0.1056 -0.9937 -3.3138
11946TIP3    H235780   6.032   6.215   4.940  0.3611  0.1576 -0.0713
11947TIP3   OH235781   4.590   7.702   3.506 -0.2215 -0.7106  0.0098
11947TIP3    H135782   4.651   7.679   3.436 -0.1760 -1.0475  0.1588
11947TIP3    H235783   4.525   7.758   3.464 -0.1110 -0.7885 -0.2682
11948TIP3   OH235784   2.533   6.978   3.242  0.0836 -0.5567 -0.4859
11948TIP3    H135785   2.550   6.990   3.335 -0.0422 -0.6641 -0.4484
11948TIP3    H235786   2.616   6.999   3.199 -0.5397  2.0999 -0.5702
11949TIP3   OH235787   1.988   5.181   3.114 -0.3555 -0.0063  0.2137
11949TIP3    H135788   2.078   5.212   3.107 -0.0949 -0.6110  0.7573
11949TIP3    H235789   1.942   5.225   3.043  0.0001  1.5909  0.9128
11950TIP3   OH235790   6.105   7.446   2.295  0.0569  0.4121 -0.2327
11950TIP3    H135791   6.116   7.522   2.238  2.2536 -0.9033 -1.7159
11950TIP3    H235792   6.016   7.415   2.277 -0.0993  1.3822 -1.2419
11951TIP3   OH235793   7.061   3.936   6.191 -0.1197  0.3410  0.2658
11951TIP3    H135794   7.045   3.933   6.285  0.0932  0.1069  0.2963
11951TIP3    H235795   7.156   3.938   6.183 -0.1411  0.6007  0.0607
11952TIP3   OH235796   4.708   6.554   6.725 -0.6008 -0.5238  1.4487
11952TIP3    H135797   4.771   6.507   6.671 -0.8322 -0.8999  1.5051
11952TIP3    H235798   4.731   6.646   6.714  0.0406 -0.6622  1.5637
11953TIP3   OH235799   1.229   1.073   5.047  0.8883  0.2497 -0.2118
11953TIP3    H135800   1.189   1.158   5.030  1.9411  0.7943 -0.0849
11953TIP3    H235801   1.161   1.023   5.093  0.0907  0.8405 -0.7198
11954TIP3   OH235802   2.476   4.188   4.306  0.5113 -0.1175  0.1801
11954TIP3    H135803   2.529   4.239   4.245  0.1418 -1.0084 -0.9323
11954TIP3    H235804   2.525   4.107   4.318  0.4369 -0.0708  0.8467
11955TIP3   OH235805   0.074   2.961   0.209  0.0341 -0.4150  0.5529
11955TIP3    H135806   0.105   2.903   0.279  0.5490  0.2279  0.8605
11955TIP3    H235807   0.011   3.019   0.252  0.3154 -0.0506  0.4801
11956TIP3   OH235808   1.660   2.562   2.004 -0.1258 -0.2981 -0.8517
11956TIP3    H135809   1.599   2.629   2.034 -0.6913 -0.7313 -1.0286
11956TIP3    H235810   1.611   2.511   1.940  0.2786 -0.9293 -0.6670
11957TIP3   OH235811   3.419   3.246   6.773  0.3616 -0.0779  0.1022
11957TIP3    H135812   3.349   3.200   6.727  1.2373 -1.5270  0.1500
11957TIP3    H235813   3.497   3.194   6.756  1.2919  1.0788  0.6810
11958TIP3   OH235814   2.337   2.251   2.008  0.1138  0.5451  0.2529
11958TIP3    H135815   2.400   2.314   2.044  1.3487 -1.1093  1.1147
11958TIP3    H235816   2.332   2.273   1.915  1.6489  0.9853  0.2472
11959TIP3   OH235817   3.108   6.439   4.977 -0.2314  0.5761  0.0012
11959TIP3    H135818   3.073   6.465   4.892 -1.2160 -1.6736 -0.3430
11959TIP3    H235819   3.039   6.460   5.039 -0.1623  0.7422  0.0220
11960TIP3   OH235820   0.375   7.212   0.870 -0.4122  0.0457 -0.2868
11960TIP3    H135821   0.343   7.240   0.784  1.0325 -1.0386 -1.2228
11960TIP3    H235822   0.365   7.117   0.870 -0.8063  0.0730  0.9306
11961TIP3   OH235823   0.669   0.455   2.425  0.4206  0.0422 -0.1919
11961TIP3    H135824   0.727   0.431   2.498  3.2228  1.5525 -1.7533
11961TIP3    H235825   0.708   0.535   2.389 -1.6291  0.0875 -2.5488
11962TIP3   OH235826   6.818   7.213   3.826  0.0844 -0.5193  0.0293
11962TIP3    H135827   6.900   7.164   3.824  0.4575  0.0957 -0.2198
11962TIP3    H235828   6.805   7.236   3.918  0.1412 -0.6964  0.0815
11963TIP3   OH235829   3.642   1.285   4.286  0.1388  0.2545 -0.0779
11963TIP3    H135830   3.608   1.343   4.354  0.9232 -1.4351  1.8413
11963TIP3    H235831   3.699   1.342   4.233 -0.8000  1.6992  0.4014
11964TIP3   OH235832   0.769   3.370   1.463 -0.1362 -0.6300 -0.3069
11964TIP3    H135833   0.864   3.385   1.473  0.0868 -1.2608 -1.3630
11964TIP3    H235834   0.731   3.411   1.541  0.8832  0.9042 -0.5593
11965TIP3   OH235835   0.245   5.084   3.086  0.0862 -0.0183  0.5161
11965TIP3    H135836   0.174   5.041   3.037 -0.4794  1.5003 -0.0617
11965TIP3    H235837   0.204   5.160   3.126  1.2133  0.4193  0.8854
11966TIP3   OH235838   1.687   7.406   2.112  0.9068 -0.5968  0.0708
11966TIP3    H135839   1.611   7.442   2.159  1.5208  0.3923  0.3522
11966TIP3    H235840   1.672   7.312   2.110 -0.0416 -0.4740  0.6394
11967TIP3   OH235841   8.312   1.275   5.147  0.1063  0.2477 -0.2703
11967TIP3    H135842   8.366   1.328   5.089 -0.8034 -0.6976 -2.0343
11967TIP3    H235843   8.289   1.197   5.096 -2.5565  0.3967  0.5326
11968TIP3   OH235844   6.714   2.428   4.086 -0.4623  0.1321 -0.0482
11968TIP3    H135845   6.690   2.518   4.110 -0.5560 -0.2256  1.2937
11968TIP3    H235846   6.731   2.385   4.170  1.5342 -0.5817 -0.7627
11969TIP3   OH235847   3.763   3.946   3.893  0.1201  0.1228 -0.2885
11969TIP3    H135848   3.763   3.941   3.989  0.7817 -1.2821 -0.3432
11969TIP3    H235849   3.686   3.999   3.872  1.8604  3.5088  1.1261
11970TIP3   OH235850   0.408   4.982   2.801  0.0061 -0.0054  0.4435
11970TIP3    H135851   0.362   5.061   2.829 -0.1714  0.4689 -1.1048
11970TIP3    H235852   0.459   5.009   2.725 -0.3537 -1.4706 -0.3612
11971TIP3   OH235853   0.627   1.221   5.600 -0.1259 -0.3292  0.0556
11971TIP3    H135854   0.577   1.195   5.677  1.3601 -2.4147  0.3981
11971TIP3    H235855   0.577   1.186   5.526 -1.3249  1.3024  0.0226
11972TIP3   OH235856   6.062   0.228   1.807  0.2698 -0.3537  0.8455
11972TIP3    H135857   6.138   0.169   1.813  0.3613 -0.3706 -0.2021
11972TIP3    H235858   5.989   0.177   1.843 -0.2744 -2.3021 -2.5605
11973TIP3   OH235859   1.047   6.279   2.382  0.7129 -0.8895  0.0158
11973TIP3    H135860   1.124   6.309   2.334 -0.0734  0.4797 -0.4340
11973TIP3    H235861   0.987   6.354   2.382 -0.7846 -2.0330  0.0287
11974TIP3   OH235862   3.335   2.819   3.449 -0.4559  0.8488 -0.7088
11974TIP3    H135863   3.365   2.820   3.540 -2.1409 -0.0808 -0.1065
11974TIP3    H235864   3.274   2.746   3.445  0.2775  0.2904 -2.8428
11975TIP3   OH235865   3.073   5.732   4.300  0.2204  0.0553 -0.1877
11975TIP3    H135866   3.136   5.661   4.300 -1.8697 -1.9646  1.2101
11975TIP3    H235867   3.024   5.722   4.219 -0.0924 -0.1231  0.0213
11976TIP3   OH235868   0.588   4.370   1.845 -0.1058  0.2172  0.4934
11976TIP3    H135869   0.645   4.447   1.843 -1.3312  1.2111  1.6289
11976TIP3    H235870   0.521   4.392   1.910 -1.8733 -0.8339 -0.8890
11977TIP3   OH235871   1.428   1.766   2.143  0.5477  0.0280 -0.5845
11977TIP3    H135872   1.387   1.715   2.213 -0.3230 -1.0141 -1.8028
11977TIP3    H235873   1.413   1.714   2.064 -0.2175  2.0616 -1.8621
11978TIP3   OH235874   4.151   4.502   2.674  0.2522  0.2207  0.3075
11978TIP3    H135875   4.244   4.478   2.678  0.0647 -0.5152  0.4276
11978TIP3    H235876   4.115   4.473   2.758 -0.2470 -0.2265 -0.0519
11979TIP3   OH235877   5.591   5.050   3.816  0.1828 -0.3784  0.6927
11979TIP3    H135878   5.554   5.108   3.749 -0.8253 -2.1926 -0.4074
11979TIP3    H235879   5.669   5.095   3.846  0.9730  0.3177 -2.1078
11980TIP3   OH235880   2.745   2.349   0.686 -0.2664 -0.2459 -0.1548
11980TIP3    H135881   2.686   2.366   0.613 -1.0093 -1.1931  0.2162
11980TIP3    H235882   2.717   2.411   0.754  0.4462  0.6589 -0.6600
11981TIP3   OH235883   4.135   7.287   4.113 -0.2583  0.0030  0.3461
11981TIP3    H135884   4.072   7.357   4.131 -0.2481  0.0058  0.3723
11981TIP3    H235885   4.148   7.246   4.198  0.3738  0.5042  0.4999
11982TIP3   OH235886   8.253   2.478   1.292 -0.5407  0.5057  0.1281
11982TIP3    H135887   8.218   2.431   1.368  1.0681 -0.2186  0.4573
11982TIP3    H235888   8.345   2.493   1.313 -0.1610  0.6686 -1.5132
11983TIP3   OH235889   0.611   6.999   3.347  0.0008  0.0071  0.0177
11983TIP3    H135890   0.543   6.940   3.381  0.3144 -1.1681 -1.2989
11983TIP3    H235891   0.582   7.022   3.259  1.5443 -1.0154 -0.8214
11984TIP3   OH235892   3.175   1.709   5.322 -0.5557 -0.0793 -0.4448
11984TIP3    H135893   3.160   1.651   5.247 -2.4602  1.1656 -1.1130
11984TIP3    H235894   3.120   1.672   5.392  0.3896 -0.6260  0.0304
11985TIP3   OH235895   4.394   1.103   1.767 -0.1670 -0.0860  0.5092
11985TIP3    H135896   4.434   1.174   1.817  1.0498  0.2693 -0.8999
11985TIP3    H235897   4.400   1.027   1.825  1.0857  0.3417  0.9921
11986TIP3   OH235898   6.872   4.936   1.213  0.2346 -0.6781 -0.2683
11986TIP3    H135899   6.842   4.847   1.193 -0.4747 -0.8819  1.5453
11986TIP3    H235900   6.796   4.980   1.251  1.3616 -0.2597  1.6230
11987TIP3   OH235901   0.871   6.911   3.379 -0.1932 -0.0318  0.0642
11987TIP3    H135902   0.795   6.964   3.360 -0.3300  0.1494  1.0289
11987TIP3    H235903   0.928   6.968   3.431  1.2802  0.3240 -1.8158
11988TIP3   OH235904   4.298   1.584   0.799 -0.1525 -0.2855 -0.2292
11988TIP3    H135905   4.328   1.633   0.875  0.5552 -1.4668  0.2675
11988TIP3    H235906   4.263   1.503   0.835 -1.7982  0.0216 -0.9965
11989TIP3   OH235907   2.519   6.803   1.389 -0.4114 -0.3363  0.2837
11989TIP3    H135908   2.483   6.781   1.303  0.6418  0.6382 -0.4354
11989TIP3    H235909   2.464   6.756   1.451 -0.5407 -1.9108 -0.9715
11990TIP3   OH235910   1.645   2.741   4.413  0.3436 -0.2327 -0.0463
11990TIP3    H135911   1.577   2.679   4.386 -1.1883  1.3056  0.0914
11990TIP3    H235912   1.703   2.690   4.469 -0.6576 -1.6180 -0.2214
11991TIP3   OH235913   7.567   0.561   5.855 -0.2694 -0.1479 -0.5243
11991TIP3    H135914   7.610   0.561   5.940  2.2583 -1.6685 -1.6815
11991TIP3    H235915   7.528   0.474   5.847 -1.5932  0.4032 -0.4850
11992TIP3   OH235916   4.236   5.623   6.053  0.4095 -0.6680 -0.2293
11992TIP3    H135917   4.163   5.576   6.011  1.3202 -0.3317 -2.3491
11992TIP3    H235918   4.196   5.665   6.129 -1.2341 -1.8468 -0.3684
11993TIP3   OH235919   7.675   5.542   1.154  0.2217 -0.5853 -0.6550
11993TIP3    H135920   7.580   5.531   1.143 -0.6526  2.1209  2.2334
11993TIP3    H235921   7.695   5.622   1.105  0.4870  0.0804  0.5003
11994TIP3   OH235922   6.899   5.187   3.268  0.3144 -0.3276  0.4194
11994TIP3    H135923   6.833   5.118   3.275  1.3782 -1.1846  2.5432
11994TIP3    H235924   6.848   5.268   3.269 -0.8970 -0.9998 -1.3962
11995TIP3   OH235925   3.596   3.738   0.568  0.2877  0.2496 -0.8581
11995TIP3    H135926   3.641   3.690   0.498  0.7258  0.5923 -0.8189
11995TIP3    H235927   3.663   3.797   0.603 -0.6555  2.1017 -2.0147
11996TIP3   OH235928   1.657   6.983   6.421 -0.7595  0.2411 -0.3397
11996TIP3    H135929   1.699   6.916   6.367 -0.4833  1.0572 -1.1718
11996TIP3    H235930   1.620   7.044   6.358  0.3285  1.6914  0.3742
11997TIP3   OH235931   8.232  -0.019   4.182 -0.2955 -0.7292 -0.0363
11997TIP3    H135932   8.149  -0.049   4.146  0.1047 -1.4118 -0.4194
11997TIP3    H235933   8.237   0.073   4.157  0.2050 -1.3057 -2.2396
11998TIP3   OH235934   0.588   0.483   4.658  0.0733 -0.1736 -0.1575
11998TIP3    H135935   0.605   0.576   4.667  1.5809 -0.3699 -0.7866
11998TIP3    H235936   0.574   0.452   4.748 -0.0418  0.5752  0.0858
11999TIP3   OH235937   5.290   0.482   2.859 -0.7277 -0.0318 -0.3069
11999TIP3    H135938   5.291   0.410   2.922 -0.2982  1.4280  1.4117
11999TIP3    H235939   5.383   0.503   2.846 -0.8643  0.4070 -0.5855
12000TIP3   OH235940   3.563   0.587   3.370  0.5722 -0.1490  0.2336
12000TIP3    H135941   3.545   0.632   3.288 -1.2542  0.9492  1.1766
12000TIP3    H235942   3.656   0.563   3.365  0.2346 -1.2148 -2.6361
12001TIP3   OH235943   1.570   2.438   3.958 -0.6352  0.7653  0.4090
12001TIP3    H135944   1.569   2.516   3.903 -0.8206  1.3001  1.1633
12001TIP3    H235945   1.655   2.397   3.941 -0.2550  1.5012  0.5304
12002TIP3   OH235946   5.700   5.407   4.724  0.0027  0.3852  0.0784
12002TIP3    H135947   5.675   5.422   4.815  0.0523  0.4007  0.0899
12002TIP3    H235948   5.643   5.337   4.693  0.3111  0.0544  0.2632
12003TIP3   OH235949   7.850   2.061   6.060  0.1044  0.3725 -0.1922
12003TIP3    H135950   7.790   2.000   6.017  1.4302 -0.3262 -1.1337
12003TIP3    H235951   7.878   2.120   5.990 -0.5200  1.5741  0.5360
12004TIP3   OH235952   2.076   3.714   5.289 -0.2681  0.3045 -0.1672
12004TIP3    H135953   2.108   3.786   5.343  0.2064 -0.5898  0.7910
12004TIP3    H235954   2.130   3.716   5.210  0.1762  0.5924  0.1459
12005TIP3   OH235955   0.616   6.382   3.391 -0.3100  0.0015  0.2650
12005TIP3    H135956   0.526   6.356   3.373 -0.3112  1.3508 -2.0724
12005TIP3    H235957   0.669   6.311   3.355 -0.4102  0.4717 -0.8334
12006TIP3   OH235958   1.811   3.917   5.524 -0.2677  0.2064 -0.2972
12006TIP3    H135959   1.807   3.823   5.507  0.6297  0.1767 -0.4350
12006TIP3    H235960   1.779   3.958   5.443 -1.7136  0.0196  0.1675
12007TIP3   OH235961   5.635   5.583   3.995  0.1287  0.6145 -0.1890
12007TIP3    H135962   5.655   5.645   3.924  0.0212  0.3862 -0.4220
12007TIP3    H235963   5.625   5.499   3.950  0.5018  0.3871  0.1542
12008TIP3   OH235964   1.750   0.091   5.295 -0.4172 -0.3137  0.3683
12008TIP3    H135965   1.728   0.081   5.388 -0.2526 -0.4539  0.3925
12008TIP3    H235966   1.740   0.004   5.257 -1.6022 -0.0304  0.0017
12009TIP3   OH235967   4.435   4.084   6.712 -0.5357 -0.0665  0.6221
12009TIP3    H135968   4.382   4.156   6.747  0.6999  0.7324  0.9076
12009TIP3    H235969   4.516   4.087   6.762  0.6985  0.1690 -1.2852
12010TIP3   OH235970   1.033   0.463   1.991  0.2491  0.2367  0.0523
12010TIP3    H135971   1.055   0.399   1.923  1.1514  0.9772 -0.3778
12010TIP3    H235972   1.070   0.545   1.959 -1.8029  1.2402  0.0684
12011TIP3   OH235973   7.732   3.234   5.582  0.5969  0.7377 -0.4966
12011TIP3    H135974   7.727   3.223   5.677  0.0445 -1.6851 -0.7342
12011TIP3    H235975   7.669   3.303   5.562 -2.4401 -1.5251  0.5495
12012TIP3   OH235976   6.683   2.683   4.154 -0.1422 -0.1365 -0.0336
12012TIP3    H135977   6.747   2.672   4.225 -0.1601 -0.6580 -0.0955
12012TIP3    H235978   6.722   2.750   4.097  0.0109  0.0690  0.3131
12013TIP3   OH235979   6.401   0.855   1.632 -0.3891 -0.2580 -0.2304
12013TIP3    H135980   6.447   0.905   1.564  0.3783  0.2296  0.6359
12013TIP3    H235981   6.442   0.769   1.631 -0.7649 -0.4403 -0.7587
12014TIP3   OH235982   0.551   4.622   5.643  0.1492  0.3494  0.2902
12014TIP3    H135983   0.591   4.617   5.555  0.0538  0.0440  0.2646
12014TIP3    H235984   0.555   4.532   5.676 -0.0844  0.4098  0.4814
12015TIP3   OH235985   5.095   4.217   2.340  0.2039  0.3778  0.1542
12015TIP3    H135986   5.140   4.297   2.312  0.9711 -0.5480 -1.3921
12015TIP3    H235987   5.143   4.188   2.418  2.1290 -0.3943 -1.2539
12016TIP3   OH235988   4.640   7.428   4.199 -0.5785  0.2098  0.2036
12016TIP3    H135989   4.577   7.399   4.264 -0.3306  0.2422  0.4598
12016TIP3    H235990   4.687   7.349   4.174  1.5981  0.6476  2.4976
12017TIP3   OH235991   6.118   2.487   3.064  0.0208 -0.5605 -0.2566
12017TIP3    H135992   6.203   2.515   3.030  0.4805 -1.2435  0.3061
12017TIP3    H235993   6.138   2.443   3.147 -0.8876 -0.6517 -0.0737
12018TIP3   OH235994   3.450   1.131   2.966 -0.5594  0.0245  0.5092
12018TIP3    H135995   3.487   1.218   2.957 -2.4439  0.7058 -1.9216
12018TIP3    H235996   3.513   1.073   2.922 -0.8369  0.6975 -0.8221
12019TIP3   OH235997   1.667   7.231   1.669 -0.3141 -0.1829 -0.2823
12019TIP3    H135998   1.700   7.307   1.620  0.4043  0.7754  1.6183
12019TIP3    H235999   1.684   7.157   1.610  2.6550  0.6123 -0.6236
12020TIP3   OH236000   1.472   6.396   6.758 -0.8463  0.4477  0.2801
12020TIP3    H136001   1.503   6.307   6.740 -2.7262 -0.0168 -0.8381
12020TIP3    H236002   1.509   6.417   6.844  0.0554 -1.1984  0.3346
12021TIP3   OH236003   7.270   6.902   6.055 -0.0992  0.1060  0.1465
12021TIP3    H136004   7.275   6.950   5.973  2.8052  0.4002  0.3668
12021TIP3    H236005   7.289   6.811   6.031 -1.7875 -0.2950  0.2182
12022TIP3   OH236006   1.193   0.995   4.744  0.3678  0.6063 -0.0487
12022TIP3    H136007   1.250   1.036   4.809  0.4170  2.5364 -1.2331
12022TIP3    H236008   1.144   0.929   4.793  0.5586  1.8297  1.8934
12023TIP3   OH236009   7.480   2.439   2.756 -0.2075  0.1603  0.3308
12023TIP3    H136010   7.466   2.415   2.847  0.6125 -1.8065 -0.0123
12023TIP3    H236011   7.400   2.486   2.731 -1.5732 -1.4627  1.3838
12024TIP3   OH236012   6.305   2.402   1.049 -0.1183  0.8637 -0.1530
12024TIP3    H136013   6.335   2.332   1.107 -0.4029 -0.6130 -1.7029
12024TIP3    H236014   6.328   2.372   0.961 -1.7987  1.9064 -1.0042
12025TIP3   OH236015   2.537   5.687   0.859  0.6675  0.2920  0.0929
12025TIP3    H136016   2.485   5.768   0.857 -0.9184 -0.7047 -0.3918
12025TIP3    H236017   2.521   5.651   0.947 -0.7258 -0.7802 -0.5673
12026TIP3   OH236018   3.612   4.476   5.619  1.1447 -0.0714 -0.3359
12026TIP3    H136019   3.643   4.509   5.535 -1.5749  0.2233 -1.3122
12026TIP3    H236020   3.517   4.485   5.615  0.8644 -0.8339  2.4604
12027TIP3   OH236021   3.170   4.850   1.238  0.1583  0.0062  0.1483
12027TIP3    H136022   3.241   4.893   1.285 -0.0976  1.1232 -0.4394
12027TIP3    H236023   3.091   4.878   1.284 -0.0390  0.4838 -0.4747
12028TIP3   OH236024   4.108   2.799   2.560 -1.1420 -0.2217 -0.3607
12028TIP3    H136025   4.102   2.704   2.571  0.2635 -0.2503  0.3784
12028TIP3    H236026   4.067   2.816   2.475  1.2188 -1.8502 -1.9362
12029TIP3   OH236027   4.518   6.939   1.438  0.4282 -0.1277 -0.4460
12029TIP3    H136028   4.571   6.867   1.472  0.3552 -0.0662 -0.2026
12029TIP3    H236029   4.582   7.005   1.411  0.4803 -0.0898 -0.2336
12030TIP3   OH236030   2.956   1.079   6.830 -0.0116 -0.1920 -0.0571
12030TIP3    H136031   2.953   1.144   6.760  0.0689 -0.4180 -0.2736
12030TIP3    H236032   2.935   1.128   6.910  1.5202  0.4121  0.0187
12031TIP3   OH236033   2.826   2.878   5.194 -0.1630 -0.0169  0.2191
12031TIP3    H136034   2.898   2.926   5.153 -0.8905  1.1915  0.3102
12031TIP3    H236035   2.821   2.796   5.144  1.1209 -0.0307  0.0725
12032TIP3   OH236036   2.413   3.572   5.259  1.0234  0.9653 -0.4230
12032TIP3    H136037   2.454   3.487   5.276  2.3029  1.1929 -2.0873
12032TIP3    H236038   2.360   3.589   5.337  1.7500 -0.7574  0.5115
12033TIP3   OH236039   4.735   4.034   3.315  0.3748  0.4262  0.6734
12033TIP3    H136040   4.808   3.984   3.350 -0.5812  0.7025  3.3219
12033TIP3    H236041   4.733   4.114   3.369 -1.8916  0.3716  0.7751
12034TIP3   OH236042   7.318   2.582   4.255  0.4664 -0.4193  0.1603
12034TIP3    H136043   7.308   2.651   4.190  2.0328 -0.0778  0.2587
12034TIP3    H236044   7.402   2.541   4.235 -0.5531 -2.5507 -0.1110
12035TIP3   OH236045   6.185   7.850   2.333  0.3762 -0.0048  0.0538
12035TIP3    H136046   6.150   7.786   2.271  0.0842 -0.7156  0.9459
12035TIP3    H236047   6.117   7.859   2.400  1.6969 -1.1401  1.6262
12036TIP3   OH236048   4.256   2.769   4.368  0.2338 -0.4924 -0.2746
12036TIP3    H136049   4.183   2.738   4.314  0.3655  0.9498 -1.3336
12036TIP3    H236050   4.331   2.771   4.308  0.3799  1.1572 -0.0914
12037TIP3   OH236051   3.412   6.638   0.008 -0.4982  0.7225 -0.3731
12037TIP3    H136052   3.455   6.647  -0.077 -1.3415  2.4083 -0.6452
12037TIP3    H236053   3.484   6.634   0.071  0.1028  0.4917 -1.0578
12038TIP3   OH236054   6.459   4.909   4.893 -0.0730 -0.0797  0.0582
12038TIP3    H136055   6.454   4.900   4.798  0.9551  0.2234 -0.0370
12038TIP3    H236056   6.490   4.999   4.907 -1.3842  0.2945  0.7218
12039TIP3   OH236057   3.353   6.257   0.139 -0.3203 -0.2910 -0.3720
12039TIP3    H136058   3.352   6.161   0.141  1.9996 -0.3654 -0.4994
12039TIP3    H236059   3.264   6.282   0.164 -0.9166 -2.4648 -0.1028
12040TIP3   OH236060   2.721   3.326   6.323  0.3355 -0.2163 -0.2118
12040TIP3    H136061   2.652   3.341   6.387 -0.4802 -2.3935 -0.4901
12040TIP3    H236062   2.678   3.280   6.252  1.6956  0.1588 -1.3233
12041TIP3   OH236063   3.613   3.132   6.171 -0.2020 -0.3018  0.0565
12041TIP3    H136064   3.531   3.093   6.143 -1.5228  2.1163  0.2941
12041TIP3    H236065   3.651   3.169   6.091  0.1465 -0.5373  0.1111
12042TIP3   OH236066   3.072   7.556   5.682  0.1999  0.1062 -0.2490
12042TIP3    H136067   2.977   7.553   5.687  0.2738 -0.1418  1.7698
12042TIP3    H236068   3.096   7.637   5.727  0.9748 -0.1575 -0.1716
12043TIP3   OH236069   2.658   2.745   5.394  0.2665 -0.3425 -0.0806
12043TIP3    H136070   2.715   2.705   5.459  1.2531  1.5838  0.3130
12043TIP3    H236071   2.717   2.784   5.330 -0.6210  0.4717 -0.4416
12044TIP3   OH236072   6.539   1.822   3.005 -0.3528  0.2127 -0.1653
12044TIP3    H136073   6.606   1.763   3.041  0.0571 -0.1260 -1.4296
12044TIP3    H236074   6.584   1.906   2.995 -0.6793  0.5119  0.7818
12045TIP3   OH236075   4.474   4.790   4.133  0.1405  0.5615  0.4122
12045TIP3    H136076   4.533   4.729   4.090 -0.3735 -1.5576  2.5313
12045TIP3    H236077   4.527   4.831   4.201 -0.1770  0.5175  0.6912
12046TIP3   OH236078   0.891   6.248   2.887 -0.7216  0.4094  0.2584
12046TIP3    H136079   0.973   6.249   2.935  0.0352  0.9305 -0.9941
12046TIP3    H236080   0.828   6.290   2.946 -0.0348  0.2342  1.1322
12047TIP3   OH236081   1.639   0.301   1.795 -0.1179  0.3438  0.4893
12047TIP3    H136082   1.704   0.274   1.860  0.1362 -1.7405 -0.5526
12047TIP3    H236083   1.690   0.324   1.718 -0.5120  1.3867  0.5112
12048TIP3   OH236084   3.893   6.695   0.777  0.1869  0.0396  0.5308
12048TIP3    H136085   3.971   6.682   0.832  0.7379 -1.1519 -0.4965
12048TIP3    H236086   3.836   6.621   0.799  0.4549 -0.4986 -0.5511
12049TIP3   OH236087   8.367   3.758   3.004 -0.3448 -0.4689  0.3010
12049TIP3    H136088   8.462   3.772   3.014 -0.2514 -0.0431 -1.0125
12049TIP3    H236089   8.358   3.714   2.920 -1.4333  1.2238 -0.5364
12050TIP3   OH236090   3.683   0.658   3.821 -0.0870  0.1717  0.2663
12050TIP3    H136091   3.710   0.569   3.799 -0.2191 -0.2727  1.8297
12050TIP3    H236092   3.608   0.675   3.765  0.3100 -0.4642 -0.4720
12051TIP3   OH236093   3.441   0.993   6.817 -0.3364 -0.2671 -0.5475
12051TIP3    H136094   3.430   0.904   6.783 -0.1973 -0.4218 -0.1960
12051TIP3    H236095   3.356   1.034   6.804 -0.1119 -0.1210 -1.6367
12052TIP3   OH236096   2.572   4.402   6.815  0.0858  0.3502 -0.2298
12052TIP3    H136097   2.590   4.415   6.908  0.0159  1.8490 -0.4005
12052TIP3    H236098   2.659   4.398   6.774  0.1186 -0.4763 -0.0908
12053TIP3   OH236099   8.428   1.036   1.443 -0.1098 -0.1154  0.4758
12053TIP3    H136100   8.391   0.961   1.489 -0.5538  0.3881  0.9676
12053TIP3    H236101   8.379   1.041   1.361 -0.8694  0.3030  0.9425
12054TIP3   OH236102   0.490   0.985   1.786 -0.3479 -0.2455  0.1037
12054TIP3    H136103   0.510   1.041   1.861  0.1882 -1.4812  0.9157
12054TIP3    H236104   0.554   1.011   1.720 -0.7735  0.7974  0.0786
12055TIP3   OH236105   5.403   7.462   0.499  0.0203  0.0474 -0.7452
12055TIP3    H136106   5.352   7.540   0.476 -0.8762  0.1281  1.3475
12055TIP3    H236107   5.350   7.416   0.564  1.9860 -0.6240  0.4786
12056TIP3   OH236108   4.051   0.249   5.043  0.1673 -0.0281 -0.1320
12056TIP3    H136109   4.099   0.285   4.969  2.2542 -1.0572  0.6374
12056TIP3    H236110   4.087   0.293   5.119  0.0821 -0.9990  0.4949
12057TIP3   OH236111   4.812   7.091   5.200  0.1627  0.2022  0.3539
12057TIP3    H136112   4.771   7.019   5.247  1.4085 -0.8977 -0.1768
12057TIP3    H236113   4.906   7.081   5.218  0.4592  0.9944 -0.6587
12058TIP3   OH236114   0.893   2.160   2.993 -0.1056 -0.2257  0.0826
12058TIP3    H136115   0.932   2.187   2.910  0.2029 -0.1057  0.2655
12058TIP3    H236116   0.831   2.230   3.015 -0.3293 -0.3510 -0.1387
12059TIP3   OH236117   2.394   6.152   4.973  1.1369  0.5511  0.2447
12059TIP3    H136118   2.318   6.108   5.012  1.0611 -0.8497 -1.3503
12059TIP3    H236119   2.357   6.225   4.924  0.7296 -0.2660 -0.7219
12060TIP3   OH236120   4.344   3.575   5.765 -0.5753  0.4643  0.1466
12060TIP3    H136121   4.417   3.616   5.719 -1.1111  0.9847 -0.2496
12060TIP3    H236122   4.270   3.580   5.704 -0.6029 -1.3840 -0.0546
12061TIP3   OH236123   6.770   4.966   0.599  0.2763  0.4750 -0.1924
12061TIP3    H136124   6.687   4.938   0.638  0.6815  1.1485  1.2266
12061TIP3    H236125   6.832   4.897   0.621  0.5454  0.9366  0.5673
12062TIP3   OH236126   0.929   3.867   5.714 -0.1166 -0.2364 -0.2779
12062TIP3    H136127   0.913   3.811   5.789  0.3370  0.1322  0.1084
12062TIP3    H236128   1.019   3.847   5.688 -0.7621 -1.4656 -1.6934
12063TIP3   OH236129   1.902   6.120   1.415  0.8106 -0.3350  0.2153
12063TIP3    H136130   1.841   6.194   1.415  0.2983 -0.7404  1.2786
12063TIP3    H236131   1.977   6.152   1.365  0.3567  0.7049  0.1644
12064TIP3   OH236132   1.226   4.978   4.945 -0.2379 -0.3975  0.3427
12064TIP3    H136133   1.160   4.908   4.939 -0.4181 -0.1101 -1.5167
12064TIP3    H236134   1.228   5.017   4.858 -0.0591  1.8769  1.2858
12065TIP3   OH236135   7.847   7.300   2.996  0.4617 -0.1831 -0.4787
12065TIP3    H136136   7.795   7.231   2.956  0.3014  0.7917 -2.0410
12065TIP3    H236137   7.888   7.346   2.922  1.1352  0.9404  0.5457
12066TIP3   OH236138   1.618   6.785   4.431 -0.5253 -0.3409 -0.0672
12066TIP3    H136139   1.573   6.866   4.453 -0.4677 -0.1735 -0.5599
12066TIP3    H236140   1.620   6.736   4.513 -2.5698 -0.8264 -0.2636
12067TIP3   OH236141   0.413   7.798   2.344  0.1537  0.1185  0.3158
12067TIP3    H136142   0.418   7.752   2.428  0.8416 -0.5904 -0.0968
12067TIP3    H236143   0.326   7.778   2.311  0.9221 -2.2353 -0.5566
12068TIP3   OH236144   7.757   2.519   5.559  0.3909  0.2092 -0.4137
12068TIP3    H136145   7.753   2.547   5.650  2.6628  1.5127 -0.6558
12068TIP3    H236146   7.716   2.432   5.559 -0.4005  0.5310  1.6690
12069TIP3   OH236147   4.502   0.421   4.395  0.0447  0.4435 -0.5499
12069TIP3    H136148   4.496   0.441   4.301 -2.1611  0.1434 -0.5397
12069TIP3    H236149   4.510   0.506   4.437  1.8038  0.5406 -1.0182
12070TIP3   OH236150   1.745   2.401   4.194 -0.3889  0.0129 -0.4645
12070TIP3    H136151   1.725   2.308   4.190 -2.5091  0.4245 -0.3822
12070TIP3    H236152   1.766   2.425   4.103 -0.4045 -0.4281 -0.5844
12071TIP3   OH236153   0.749   2.743   2.747  0.2264 -0.0299 -0.2113
12071TIP3    H136154   0.803   2.812   2.709 -0.1358 -0.4431 -1.5369
12071TIP3    H236155   0.809   2.669   2.760  0.7693  0.7141  1.8617
12072TIP3   OH236156   2.716   1.092   3.001  0.3049 -0.4995  0.2254
12072TIP3    H136157   2.752   1.008   3.030 -2.3536 -1.2473  1.6556
12072TIP3    H236158   2.692   1.077   2.910 -0.0827 -1.3004  0.4471
12073TIP3   OH236159   7.061   3.209   6.266  0.1179 -0.3631  0.4458
12073TIP3    H136160   7.029   3.299   6.264 -0.4973 -0.5842 -0.6267
12073TIP3    H236161   7.001   3.163   6.324 -0.6341 -0.4464 -0.3724
12074TIP3   OH236162   1.853   3.878   5.146  0.4234  0.1733 -0.1359
12074TIP3    H136163   1.910   3.955   5.150 -0.5714  0.8742  1.2298
12074TIP3    H236164   1.913   3.804   5.158  1.2437  0.7916 -0.2726
12075TIP3   OH236165   2.222   1.357   3.352  0.5400  0.2174 -0.6717
12075TIP3    H136166   2.297   1.324   3.403  0.6213  2.3499  0.7112
12075TIP3    H236167   2.260   1.381   3.267  1.3473  0.8148 -0.1573
12076TIP3   OH236168   4.175   6.361   2.676 -0.0359 -0.2044 -0.6656
12076TIP3    H136169   4.093   6.331   2.640  0.0033 -0.8202 -0.2487
12076TIP3    H236170   4.232   6.285   2.675  0.5650  0.2390 -1.0414
12077TIP3   OH236171   2.557   7.899   5.034 -0.5457 -0.3915  0.5660
12077TIP3    H136172   2.552   7.900   5.130 -1.4186  1.2506  0.5395
12077TIP3    H236173   2.621   7.831   5.014  1.0479  0.4708  2.3894
12078TIP3   OH236174   5.171   3.630   1.070  0.0192  0.6313  0.2234
12078TIP3    H136175   5.111   3.650   1.142  0.3500  0.3216  0.5954
12078TIP3    H236176   5.135   3.551   1.029 -0.1038  0.7389  0.1225
12079TIP3   OH236177   2.839   5.786   1.981  0.0155 -0.1941 -0.3386
12079TIP3    H136178   2.898   5.840   1.929  1.5840  0.0151  1.5403
12079TIP3    H236179   2.791   5.848   2.035  1.7490 -0.5776  1.7531
12080TIP3   OH236180   2.442   1.189   5.311  0.3688 -0.6354 -0.2055
12080TIP3    H136181   2.387   1.266   5.329 -0.7449 -1.2286 -0.9711
12080TIP3    H236182   2.381   1.124   5.277  1.6222 -1.1837 -1.4742
12081TIP3   OH236183   3.491   4.807   4.158  0.5745 -0.0334  0.1421
12081TIP3    H136184   3.446   4.754   4.224  1.8170  0.1592  1.2013
12081TIP3    H236185   3.546   4.866   4.210  1.9869 -0.2380 -1.0655
12082TIP3   OH236186   3.786   1.770   5.426  0.5159 -0.2823  0.4696
12082TIP3    H136187   3.870   1.812   5.405  1.6237 -1.7531  1.7475
12082TIP3    H236188   3.766   1.717   5.349  0.2421  0.7877 -0.2274
12083TIP3   OH236189   7.013   2.102   2.809 -0.5494  0.4873 -0.2642
12083TIP3    H136190   6.974   2.044   2.744  0.8453  0.3461 -1.0280
12083TIP3    H236191   7.045   2.043   2.877  1.1272  0.2721 -1.1790
12084TIP3   OH236192   2.619   3.380   6.775  0.3603  0.4730  0.3625
12084TIP3    H136193   2.586   3.385   6.864 -1.8155  1.7700 -0.4453
12084TIP3    H236194   2.550   3.420   6.721  1.0027 -1.4190 -2.0520
12085TIP3   OH236195   1.571   3.051   1.184 -0.4108 -0.4561  0.1163
12085TIP3    H136196   1.596   3.130   1.135 -1.2999 -0.3140 -0.1146
12085TIP3    H236197   1.631   2.984   1.152 -0.9921 -0.3738 -1.2086
12086TIP3   OH236198   5.341   1.677   0.079 -0.2361  0.4232 -0.6390
12086TIP3    H136199   5.352   1.582   0.073  0.0242  0.5420 -3.4691
12086TIP3    H236200   5.374   1.699   0.166 -0.7218 -2.1097  0.2685
12087TIP3   OH236201   3.995   7.588   0.542  0.3001 -0.2067 -0.0373
12087TIP3    H136202   4.032   7.549   0.463 -2.5261 -1.2888 -0.9389
12087TIP3    H236203   3.995   7.517   0.606 -0.7498 -0.4343 -0.2669
12088TIP3   OH236204   4.345   7.519   6.221  0.5507  0.1094 -0.1805
12088TIP3    H136205   4.255   7.550   6.212  0.4139 -0.2125  0.0614
12088TIP3    H236206   4.349   7.485   6.311  0.3828 -1.6042 -0.7885
12089TIP3   OH236207   4.393   4.640   6.266 -0.1170 -0.1752 -0.6925
12089TIP3    H136208   4.481   4.642   6.228 -0.7520  0.6136 -2.1945
12089TIP3    H236209   4.407   4.658   6.359  1.4752 -2.0325 -0.5080
12090TIP3   OH236210   0.225   6.263   2.587 -0.2919 -0.0330  0.5469
12090TIP3    H136211   0.316   6.293   2.589  0.0148 -0.4990 -2.4058
12090TIP3    H236212   0.224   6.188   2.647  2.6896 -3.2371 -2.8481
12091TIP3   OH236213   3.567   2.431   1.326 -0.2432  0.6276 -0.3359
12091TIP3    H136214   3.605   2.411   1.241  0.1615  2.1804 -0.5452
12091TIP3    H236215   3.554   2.526   1.325  0.4719  0.7911  1.6054
12092TIP3   OH236216   1.632   3.787   6.108 -0.0471  0.4304 -0.3375
12092TIP3    H136217   1.599   3.705   6.072  0.1333  0.3100 -0.2372
12092TIP3    H236218   1.667   3.762   6.194 -0.3182  0.6798 -0.1540
12093TIP3   OH236219   0.259   3.492   3.114 -0.1888  0.6317 -0.1722
12093TIP3    H136220   0.176   3.469   3.157 -0.0271  2.9393  1.5157
12093TIP3    H236221   0.314   3.525   3.184  1.8512  0.1130 -1.4443
12094TIP3   OH236222   2.607   7.564   0.094  0.5471 -0.1778  0.9000
12094TIP3    H136223   2.596   7.613   0.012  2.2988  0.0602  0.7560
12094TIP3    H236224   2.532   7.505   0.097  0.2376  0.0732 -0.6794
12095TIP3   OH236225   1.246   2.503   3.101  0.0205 -0.2054  0.3882
12095TIP3    H136226   1.179   2.552   3.149 -0.4587 -0.0154 -0.4407
12095TIP3    H236227   1.267   2.429   3.157 -3.2881 -2.1575 -0.6628
12096TIP3   OH236228   0.431   0.625   2.817  0.5511  0.1445  0.0647
12096TIP3    H136229   0.444   0.531   2.830  0.9218  0.4830  2.9713
12096TIP3    H236230   0.516   0.665   2.837  0.7477  1.0944 -2.3265
12097TIP3   OH236231   3.812   6.952   0.699  0.2476 -0.2833  0.2966
12097TIP3    H136232   3.757   6.923   0.626  2.7438 -0.1534 -1.7409
12097TIP3    H236233   3.850   6.872   0.734 -1.1098 -0.3691  1.6848
12098TIP3   OH236234   6.681   2.734   6.213  0.2423 -0.4705  0.1615
12098TIP3    H136235   6.737   2.658   6.230  0.6739 -0.4458 -1.0615
12098TIP3    H236236   6.739   2.798   6.171 -0.7486 -0.5993 -1.5119
12099TIP3   OH236237   1.171   0.509   1.437 -0.2301 -0.2628  0.0284
12099TIP3    H136238   1.249   0.566   1.439 -0.6515  0.3426 -0.4079
12099TIP3    H236239   1.128   0.526   1.520  0.8221 -1.6518  0.9000
12100TIP3   OH236240   3.060   3.384   4.102  0.5157  0.0853  0.0776
12100TIP3    H136241   3.099   3.434   4.029 -0.8194  0.3204 -0.4969
12100TIP3    H236242   2.966   3.396   4.092  0.2432 -1.1174  0.9855
12101TIP3   OH236243   4.811   2.371   3.281  0.4131  0.3024  0.3416
12101TIP3    H136244   4.761   2.304   3.328  1.0917 -0.7179 -0.3318
12101TIP3    H236245   4.869   2.321   3.223 -0.8053  1.4532 -2.0478
12102TIP3   OH236246   1.872   6.118   5.708 -0.0873  0.0736 -0.2255
12102TIP3    H136247   1.786   6.132   5.668 -0.3539 -0.9910 -0.0746
12102TIP3    H236248   1.925   6.079   5.639 -1.0437 -3.3832  0.7438
12103TIP3   OH236249   7.537   4.406   1.162 -0.3652  0.6401  0.0212
12103TIP3    H136250   7.546   4.500   1.147 -0.6527  0.7677  0.6075
12103TIP3    H236251   7.560   4.394   1.255  0.1291  0.0673 -0.1630
12104TIP3   OH236252   0.724   4.006   6.315 -0.0892  0.0940 -0.8111
12104TIP3    H136253   0.712   3.952   6.237  0.9068  1.0522 -1.6671
12104TIP3    H236254   0.816   3.994   6.339 -0.1645  0.4842 -0.2999
12105TIP3   OH236255   6.567   1.327   2.672 -0.3591  0.2166  0.1947
12105TIP3    H136256   6.605   1.257   2.618  0.4099  1.2881 -0.7180
12105TIP3    H236257   6.475   1.302   2.682 -0.3779 -0.3308 -1.1021
12106TIP3   OH236258   0.978   7.645   6.357  0.2098 -0.0335  0.0254
12106TIP3    H136259   0.924   7.641   6.437  0.5769  0.3737  0.2945
12106TIP3    H236260   0.945   7.721   6.309 -0.2875 -0.5209 -0.4161
12107TIP3   OH236261   8.266   2.029   4.468  0.0522  0.0381 -0.2709
12107TIP3    H136262   8.236   2.034   4.559 -1.7150  1.9145 -0.8657
12107TIP3    H236263   8.242   1.941   4.439  0.4256 -0.4913  1.0022
12108TIP3   OH236264   1.421   2.736   6.133  0.3880  0.3693  0.0789
12108TIP3    H136265   1.332   2.739   6.099 -0.7307 -1.0770  2.5789
12108TIP3    H236266   1.472   2.790   6.072 -2.0463  0.7726 -1.7572
12109TIP3   OH236267   5.791   7.926   4.289  0.2214  0.5050  0.5339
12109TIP3    H136268   5.828   7.855   4.341  0.2642 -0.4323 -0.7313
12109TIP3    H236269   5.741   7.882   4.220 -0.0440  1.7075 -0.0666
12110TIP3   OH236270   3.974   5.662   5.234 -0.9481 -0.3093 -0.2734
12110TIP3    H136271   3.978   5.608   5.312 -1.5226 -0.8530 -0.6051
12110TIP3    H236272   3.902   5.723   5.250 -0.0945  0.5785  0.2307
12111TIP3   OH236273   2.511   4.851   6.221  0.2108  0.4854  0.0212
12111TIP3    H136274   2.489   4.862   6.314 -1.6696  3.1545 -0.5983
12111TIP3    H236275   2.427   4.849   6.177  1.0374  2.2582 -1.8247
12112TIP3   OH236276   5.492   5.304   1.804  0.1473 -0.3441  0.3545
12112TIP3    H136277   5.409   5.330   1.845 -0.5388 -0.1361 -1.0785
12112TIP3    H236278   5.527   5.386   1.768  0.0789 -0.6986 -0.5536
12113TIP3   OH236279   5.540   1.662   5.067 -0.4754 -0.6630  0.1895
12113TIP3    H136280   5.522   1.658   5.160  0.8128  0.0621  0.5039
12113TIP3    H236281   5.573   1.575   5.045  0.2584 -0.5172  0.6676
12114TIP3   OH236282   5.595   0.486   0.951  0.1495  0.2001 -0.3194
12114TIP3    H136283   5.614   0.504   1.043 -0.3642  1.0555 -0.3698
12114TIP3    H236284   5.645   0.406   0.932 -0.5304 -0.5861  0.9774
12115TIP3   OH236285   6.589   0.316   4.183  0.6989 -0.1778 -0.3077
12115TIP3    H136286   6.600   0.246   4.247 -1.3467 -0.4287 -0.1758
12115TIP3    H236287   6.622   0.279   4.101  1.9285 -0.3839  0.2475
12116TIP3   OH236288   7.370   1.866   0.888 -0.3748 -0.8009  0.0993
12116TIP3    H136289   7.308   1.936   0.908 -0.4669 -0.8295 -0.0744
12116TIP3    H236290   7.450   1.912   0.862  0.3451 -0.7597  2.2410
12117TIP3   OH236291   6.284   1.674   5.260  0.4185  0.4276  0.1593
12117TIP3    H136292   6.266   1.719   5.178  2.3103  1.1894  0.1057
12117TIP3    H236293   6.218   1.707   5.321 -0.2950  0.7107 -0.7465
12118TIP3   OH236294   2.147   6.952   5.002 -0.0452  0.4472  0.2491
12118TIP3    H136295   2.208   6.881   5.023  0.2767  0.1278 -1.5813
12118TIP3    H236296   2.113   6.929   4.915 -2.5106  0.8033  1.0364
12119TIP3   OH236297   5.742   0.512   2.439  0.1367  0.5036  0.1709
12119TIP3    H136298   5.656   0.482   2.468  0.4493  0.3674  0.9545
12119TIP3    H236299   5.775   0.566   2.511  0.6432  0.6895 -0.1945
12120TIP3   OH236300   0.968   4.313   6.326  0.1955 -0.6358  0.0666
12120TIP3    H136301   0.949   4.388   6.382 -0.6202  0.6423 -1.8245
12120TIP3    H236302   0.918   4.329   6.246  1.2732 -2.4031 -1.0390
12121TIP3   OH236303   0.991   0.668   4.622  0.6087 -0.5098 -0.1295
12121TIP3    H136304   1.062   0.693   4.563  1.4844 -1.6330  0.4225
12121TIP3    H236305   1.029   0.676   4.709 -0.5698  0.7962  0.3017
12122TIP3   OH236306   8.325   0.777   0.683  0.4807  0.0309  0.0571
12122TIP3    H136307   8.393   0.831   0.642  0.1093  1.7086  1.5323
12122TIP3    H236308   8.263   0.840   0.720 -0.5789 -1.4343  0.9073
12123TIP3   OH236309   0.520   5.585   0.511 -0.1507 -0.2575  0.0426
12123TIP3    H136310   0.486   5.496   0.527  0.1728 -0.3304  0.3438
12123TIP3    H236311   0.469   5.641   0.570  0.4560 -0.4090  0.7187
12124TIP3   OH236312   6.680   6.613   3.814 -0.7975 -0.7258 -0.1510
12124TIP3    H136313   6.605   6.636   3.868 -0.6339 -2.3640  0.8434
12124TIP3    H236314   6.642   6.583   3.731 -1.1141  0.5118 -0.4629
12125TIP3   OH236315   0.548   5.114   4.057 -0.2227 -0.6068 -0.6532
12125TIP3    H136316   0.617   5.127   4.122 -1.1877  1.3226  0.0614
12125TIP3    H236317   0.590   5.132   3.973 -0.0002  1.3566 -0.1648
12126TIP3   OH236318   1.927   5.339   1.307 -0.2839 -0.3398  0.3030
12126TIP3    H136319   1.844   5.356   1.353  0.3529  2.3208  0.6288
12126TIP3    H236320   1.918   5.385   1.224  0.6700 -0.4242  0.1440
12127TIP3   OH236321   3.081   5.476   5.751  0.4847 -0.6584  0.4864
12127TIP3    H136322   3.137   5.398   5.743 -0.2841 -1.0080 -3.1553
12127TIP3    H236323   3.142   5.549   5.756  1.2078 -1.3149  1.9923
12128TIP3   OH236324   4.112   2.058   4.841  0.2439  0.0747 -0.0095
12128TIP3    H136325   4.159   2.059   4.758  0.1907  0.0893 -0.0398
12128TIP3    H236326   4.180   2.054   4.908  0.3777  1.9403  0.0266
12129TIP3   OH236327   7.080   7.874   3.459  0.2814  0.5131  0.0186
12129TIP3    H136328   7.161   7.921   3.478 -0.2968  0.9984  1.4201
12129TIP3    H236329   7.102   7.816   3.386  1.9799  0.3738  0.6009
12130TIP3   OH236330   0.627   0.329   4.444  0.0324  0.2944  0.0151
12130TIP3    H136331   0.580   0.246   4.451  0.1795  0.2522  0.5540
12130TIP3    H236332   0.608   0.375   4.526 -1.6856  1.6680 -1.0811
12131TIP3   OH236333   0.530   2.285   5.121 -0.2420  0.8944 -0.3080
12131TIP3    H136334   0.475   2.207   5.111 -2.0481  2.0895 -0.3139
12131TIP3    H236335   0.610   2.254   5.163 -0.8157 -0.9877 -0.5423
12132TIP3   OH236336   3.185   3.333   0.002  0.3190  0.0616 -0.4051
12132TIP3    H136337   3.254   3.395  -0.021  2.0910 -1.0804  1.4924
12132TIP3    H236338   3.176   3.341   0.097 -2.1872  0.1044 -0.5591
12133TIP3   OH236339   5.242   1.608   6.570 -0.0409 -0.2259 -0.3298
12133TIP3    H136340   5.252   1.702   6.556 -0.2712 -0.2896 -0.9674
12133TIP3    H236341   5.266   1.594   6.662 -2.5980  0.8372  0.5820
12134TIP3   OH236342   1.112   4.004   4.918  0.0157 -0.2624  0.1915
12134TIP3    H136343   1.168   3.968   4.986 -1.9491  0.5118  2.3698
12134TIP3    H236344   1.034   4.035   4.965 -1.3432  0.5635 -2.3940
12135TIP3   OH236345   4.101   1.794   3.441  0.1555 -0.4963 -0.3881
12135TIP3    H136346   4.045   1.723   3.411  2.3792 -1.4865 -2.5435
12135TIP3    H236347   4.062   1.873   3.403 -1.1300 -0.8177  0.2233
12136TIP3   OH236348   4.150   1.015   3.298 -0.0016  0.3040  0.0931
12136TIP3    H136349   4.183   1.047   3.215 -0.0796 -1.0244 -0.4753
12136TIP3    H236350   4.059   1.044   3.302  0.1616  0.8322 -0.0319
12137TIP3   OH236351   2.537   2.905   5.836 -0.1177  0.0950  0.0661
12137TIP3    H136352   2.617   2.955   5.818  1.2347 -2.2667 -0.9879
12137TIP3    H236353   2.568   2.817   5.858 -2.4248 -1.3210 -1.7807
12138TIP3   OH236354   6.963   4.815   3.547  0.1324  0.3435 -0.2306
12138TIP3    H136355   6.938   4.901   3.580  2.3281  0.7886  0.4584
12138TIP3    H236356   7.025   4.782   3.612  0.3565 -1.1782 -1.1764
12139TIP3   OH236357   4.959   0.041   0.449 -0.6464 -0.0548 -0.8663
12139TIP3    H136358   4.907  -0.022   0.398  0.6198 -0.3890 -1.7870
12139TIP3    H236359   4.900   0.115   0.463 -0.3052  1.3394 -5.3118
12140TIP3   OH236360   1.336   5.198   1.358  0.1439  1.0276  0.3755
12140TIP3    H136361   1.304   5.205   1.268 -0.5153  0.1507  0.5324
12140TIP3    H236362   1.292   5.269   1.404  0.3594  1.3809  0.0518
12141TIP3   OH236363   7.075   6.275   1.546 -0.2125 -0.6435  0.2893
12141TIP3    H136364   6.989   6.233   1.552 -0.2864 -0.2890  2.6957
12141TIP3    H236365   7.056   6.368   1.537 -0.1126 -0.5033  1.4099
12142TIP3   OH236366   3.177   1.086   3.185 -0.1863  0.5015  0.0726
12142TIP3    H136367   3.232   1.027   3.236 -1.5346 -0.5439  0.3712
12142TIP3    H236368   3.103   1.105   3.242 -0.8453  0.7367 -0.8452
12143TIP3   OH236369   5.254   2.092   0.478 -0.8130 -0.5075  0.6165
12143TIP3    H136370   5.211   2.017   0.438 -1.0902 -1.3870  2.4395
12143TIP3    H236371   5.327   2.055   0.526 -1.2441  0.2946  1.9577
12144TIP3   OH236372   1.558   0.480   2.830 -0.2806  0.5104 -0.4181
12144TIP3    H136373   1.573   0.495   2.737  0.1355 -1.3813 -0.7155
12144TIP3    H236374   1.486   0.417   2.834  0.4787 -0.3584  0.4476
12145TIP3   OH236375   0.063   5.211   6.115 -0.3127  0.2870  0.5065
12145TIP3    H136376   0.111   5.139   6.074  0.3352  1.5165 -0.9797
12145TIP3    H236377  -0.011   5.168   6.159 -2.6354 -1.0239 -4.0574
12146TIP3   OH236378   1.978   2.335   1.019 -0.0792  0.0090 -0.1362
12146TIP3    H136379   1.906   2.274   1.035  1.6510 -1.8090  1.1878
12146TIP3    H236380   1.988   2.382   1.102  0.4621 -0.0213 -0.1788
12147TIP3   OH236381   4.327   4.199   2.877 -0.1862  0.2271 -0.3291
12147TIP3    H136382   4.322   4.103   2.878  2.7176 -0.0465  2.2102
12147TIP3    H236383   4.241   4.227   2.910 -0.8725 -1.4754 -0.5244
12148TIP3   OH236384   3.185   7.143   4.218 -0.0367 -0.0598  0.0707
12148TIP3    H136385   3.249   7.212   4.234  0.0224 -0.2142  0.5334
12148TIP3    H236386   3.177   7.098   4.303  0.5083 -1.1034 -0.4116
12149TIP3   OH236387   7.963   1.910   5.844  0.3058  0.7058  0.4235
12149TIP3    H136388   7.932   1.819   5.844  1.9615  0.1198  0.5797
12149TIP3    H236389   7.987   1.927   5.935  1.2525  0.8516  0.1556
12150TIP3   OH236390   8.121   1.475   4.773 -0.0301 -0.6034  0.1327
12150TIP3    H136391   8.069   1.466   4.694  1.2295 -4.3620 -0.4855
12150TIP3    H236392   8.057   1.476   4.844 -1.0785  0.2577 -0.7949
12151TIP3   OH236393   2.792   6.974   2.340  0.0257  0.3249 -0.7081
12151TIP3    H136394   2.760   7.058   2.372 -0.1446  0.9602 -2.4303
12151TIP3    H236395   2.886   6.985   2.331  0.1243  0.0222 -0.0857
12152TIP3   OH236396   8.400   2.671   0.926 -0.7376 -0.0371  0.0263
12152TIP3    H136397   8.349   2.696   0.849 -1.0596 -0.3794  0.1208
12152TIP3    H236398   8.418   2.578   0.913  0.6683  0.2845 -0.4554
12153TIP3   OH236399   5.003   0.448   3.530 -0.1548 -0.4366 -0.0570
12153TIP3    H136400   5.000   0.537   3.564 -1.8851 -0.3764 -0.2532
12153TIP3    H236401   4.915   0.414   3.545  0.0568 -1.6169 -1.2879
12154TIP3   OH236402   2.509   0.690   2.315 -0.4942 -0.0999 -0.0855
12154TIP3    H136403   2.501   0.690   2.219 -1.0876 -0.4889 -0.0383
12154TIP3    H236404   2.536   0.601   2.337  1.1954  0.4097 -0.0046
12155TIP3   OH236405   6.869   6.059   3.547  0.3279 -0.1050  0.5537
12155TIP3    H136406   6.963   6.049   3.564  0.2062 -0.4155  1.0607
12155TIP3    H236407   6.858   6.152   3.528  1.1109 -0.4244 -1.8648
12156TIP3   OH236408   2.929   6.524   5.193 -0.4526  1.2458  0.1406
12156TIP3    H136409   2.967   6.612   5.188  0.7018  0.9401  2.2090
12156TIP3    H236410   2.903   6.515   5.285  0.6528 -1.0129  0.2972
12157TIP3   OH236411   3.161   2.345   6.282 -0.4165  0.8011 -0.0421
12157TIP3    H136412   3.080   2.396   6.293 -1.5531 -0.3660 -2.2872
12157TIP3    H236413   3.164   2.288   6.358 -4.1873 -2.2294 -1.8025
12158TIP3   OH236414   6.948   4.349   6.215 -0.1334 -0.8317 -0.1040
12158TIP3    H136415   6.870   4.329   6.162  0.9121  0.7738 -2.4363
12158TIP3    H236416   7.021   4.339   6.154  1.1899  0.9006  1.1091
12159TIP3   OH236417   6.582   7.331   5.764 -0.0026 -0.2528  1.0202
12159TIP3    H136418   6.597   7.380   5.844  0.1806  0.3569  0.6149
12159TIP3    H236419   6.509   7.273   5.785 -2.5438  2.5571  0.4941
12160TIP3   OH236420   5.905   5.219   2.017  0.1953 -0.5278  0.0071
12160TIP3    H136421   5.866   5.303   1.994  0.2724 -0.7237 -0.8588
12160TIP3    H236422   5.834   5.169   2.057 -0.0887 -0.3843 -0.3164
12161TIP3   OH236423   0.194   3.592   4.851 -0.1639  0.1255  0.8102
12161TIP3    H136424   0.104   3.587   4.883 -1.5800  0.4211 -2.6674
12161TIP3    H236425   0.213   3.504   4.820 -1.8218  1.2107 -4.1601
12162TIP3   OH236426   0.827   2.826   4.866 -0.4121  0.3824 -0.3591
12162TIP3    H136427   0.855   2.917   4.877 -0.8008  0.7054 -1.8101
12162TIP3    H236428   0.905   2.774   4.886 -0.3036  1.0000  0.9077
12163TIP3   OH236429   3.611   2.654   3.478  0.6102  0.0974  0.0575
12163TIP3    H136430   3.704   2.663   3.498  0.5865 -0.2655  0.3438
12163TIP3    H236431   3.577   2.743   3.481  0.6389  0.0890  1.4853
12164TIP3   OH236432   3.010   3.630   5.406  0.0349  0.4070 -0.3170
12164TIP3    H136433   3.089   3.674   5.437 -0.4861  0.2890  1.2624
12164TIP3    H236434   3.021   3.538   5.432 -0.0992  0.1419 -1.1558
12165TIP3   OH236435   3.755   7.350   1.561  0.3219  0.3068  0.1952
12165TIP3    H136436   3.740   7.268   1.610 -1.8163 -0.9575 -2.3364
12165TIP3    H236437   3.833   7.331   1.508  0.6050  0.4077  0.5717
12166TIP3   OH236438   2.449   6.111   0.045  0.0806  0.0561  0.4858
12166TIP3    H136439   2.442   6.107   0.140  1.2424 -1.6007  0.5287
12166TIP3    H236440   2.541   6.131   0.028 -0.0767  0.1536 -0.3015
12167TIP3   OH236441   2.919   0.615   2.596  0.3898 -0.3968 -0.0905
12167TIP3    H136442   2.892   0.700   2.560 -0.6405 -1.1246 -1.1260
12167TIP3    H236443   2.939   0.633   2.688  0.0297  0.9303 -0.2461
12168TIP3   OH236444   6.160   1.059   1.401  0.1007  0.4441  0.2321
12168TIP3    H136445   6.204   1.142   1.418  0.8942 -0.0868  0.7998
12168TIP3    H236446   6.229   1.001   1.369  0.2566 -0.9632  2.8891
12169TIP3   OH236447   5.731   7.502   5.250  0.2924  0.6572 -0.3159
12169TIP3    H136448   5.647   7.468   5.280  0.1752  0.4740 -0.8354
12169TIP3    H236449   5.764   7.554   5.323  0.2595 -0.2055  0.3251
12170TIP3   OH236450   7.675   1.406   3.579  0.3692 -0.1675  0.3696
12170TIP3    H136451   7.677   1.415   3.484  0.1767 -1.1273  0.2608
12170TIP3    H236452   7.756   1.360   3.601  0.2156 -0.3181  0.6251
12171TIP3   OH236453   6.875   1.403   0.372  0.3278 -0.1488  0.4455
12171TIP3    H136454   6.926   1.329   0.338  0.5959  0.4433 -0.4725
12171TIP3    H236455   6.885   1.472   0.306 -0.3376  0.5373  1.0386
12172TIP3   OH236456   6.041   1.282   2.432 -0.1364  0.0507 -0.9046
12172TIP3    H136457   5.991   1.354   2.393  0.7407  0.3050 -1.5864
12172TIP3    H236458   6.100   1.325   2.494 -2.0439 -0.3996  1.4119
12173TIP3   OH236459   6.888   7.147   6.809 -0.1264 -0.1999  0.7498
12173TIP3    H136460   6.880   7.052   6.816  0.5191 -0.3572 -0.4302
12173TIP3    H236461   6.820   7.172   6.746 -1.5218  0.3725  2.4057
12174TIP3   OH236462   6.451   7.012   2.187  0.2045  0.5586 -0.5513
12174TIP3    H136463   6.435   6.932   2.137  2.0835  0.7008 -1.4533
12174TIP3    H236464   6.384   7.011   2.256 -0.4837 -1.2277 -1.1940
12175TIP3   OH236465   5.147   4.227   5.670 -0.5931  0.2900  0.4274
12175TIP3    H136466   5.120   4.318   5.659 -0.8855  0.1978  0.3512
12175TIP3    H236467   5.184   4.223   5.758  0.7389  0.7904 -0.0918
12176TIP3   OH236468   0.265   7.137   4.867  0.0411 -0.2021 -0.5094
12176TIP3    H136469   0.194   7.098   4.817 -0.3504 -1.3020  0.8300
12176TIP3    H236470   0.222   7.202   4.923  0.3032  0.1721 -0.7384
12177TIP3   OH236471   3.293   6.066   4.125  0.3199  0.1340 -0.1310
12177TIP3    H136472   3.204   6.034   4.110  0.3396  0.2468 -0.4939
12177TIP3    H236473   3.348   6.006   4.075  0.3353  0.9079 -1.0567
12178TIP3   OH236474   6.521   5.163   0.794  0.4378 -0.2992  0.2355
12178TIP3    H136475   6.599   5.131   0.839  0.6122 -0.6778 -0.3122
12178TIP3    H236476   6.457   5.177   0.863  0.8204 -0.4956  0.6361
12179TIP3   OH236477   7.817   1.390   2.636 -0.4717  0.3871 -0.2782
12179TIP3    H136478   7.871   1.332   2.583 -1.3257  1.6067 -2.6413
12179TIP3    H236479   7.865   1.400   2.718  0.8203 -1.7510 -0.6893
12180TIP3   OH236480   5.100   1.476   3.401  0.4079 -1.0704 -0.2226
12180TIP3    H136481   5.081   1.384   3.383  0.2650 -0.6520 -2.3716
12180TIP3    H236482   5.122   1.514   3.317 -0.1661  1.0295  0.5031
12181TIP3   OH236483   1.738   3.421   6.293  0.3200  0.3021  0.1811
12181TIP3    H136484   1.803   3.453   6.356  3.6543 -4.6737 -0.1982
12181TIP3    H236485   1.698   3.345   6.337  0.3011 -1.2477 -2.3474
12182TIP3   OH236486   7.724   7.336   1.730  0.0767 -0.4592  0.3869
12182TIP3    H136487   7.716   7.376   1.643  0.7387 -0.1554  0.4593
12182TIP3    H236488   7.646   7.364   1.777 -0.4471 -0.8858 -0.2122
12183TIP3   OH236489   8.286   1.040   4.121  0.3591  0.8607 -0.4894
12183TIP3    H136490   8.221   1.028   4.190  0.0398  0.3345 -0.8729
12183TIP3    H236491   8.323   1.127   4.137  1.8652 -0.0829  1.6611
12184TIP3   OH236492   0.419   4.074   1.099 -0.9194 -0.6952 -0.2884
12184TIP3    H136493   0.492   4.087   1.038 -1.5050 -2.2049 -1.3655
12184TIP3    H236494   0.450   4.111   1.182  0.3226  0.4012 -1.2109
12185TIP3   OH236495   2.087   7.222   5.410 -0.2491  0.1750 -1.0657
12185TIP3    H136496   2.151   7.280   5.370  1.5205 -1.1926 -0.3271
12185TIP3    H236497   2.075   7.257   5.499  0.0199  0.0263 -0.9696
12186TIP3   OH236498   0.288   3.013   2.276 -0.6231  0.0641 -0.5699
12186TIP3    H136499   0.250   2.926   2.285 -0.6728 -0.3468 -3.5788
12186TIP3    H236500   0.215   3.073   2.290 -0.6125 -0.3286  1.3899
12187TIP3   OH236501   0.948   1.448   0.813 -0.1945 -0.3829 -0.1421
12187TIP3    H136502   0.897   1.501   0.873 -1.4373  1.2761 -2.5023
12187TIP3    H236503   1.027   1.499   0.795 -0.1880 -0.5120 -0.5006
12188TIP3   OH236504   5.944   6.300   2.808  0.6122 -0.3923  0.9548
12188TIP3    H136505   5.997   6.357   2.752  2.8100 -3.2277 -0.0995
12188TIP3    H236506   5.854   6.332   2.796  1.0529 -0.1519 -3.4597
12189TIP3   OH236507   4.291   0.106   6.521 -0.4576 -0.0662 -0.0976
12189TIP3    H136508   4.236   0.048   6.469  1.3887 -1.0153 -1.0953
12189TIP3    H236509   4.315   0.053   6.597  0.6992 -0.4260 -0.6870
12190TIP3   OH236510   1.884   0.644   0.085 -0.3629 -0.3444  0.3018
12190TIP3    H136511   1.902   0.603   0.170 -0.4179 -1.1165 -0.0434
12190TIP3    H236512   1.822   0.714   0.104  0.4147  0.1649  1.0383
12191TIP3   OH236513   7.648   4.165   4.795  0.0477  0.3369 -0.7389
12191TIP3    H136514   7.712   4.180   4.865  1.2074  0.6318 -1.8143
12191TIP3    H236515   7.654   4.243   4.741 -4.4478  2.5522  1.4042
12192TIP3   OH236516   7.934   7.690   2.014  0.0102  0.1582  0.0601
12192TIP3    H136517   7.962   7.600   2.000 -1.7342 -0.4517  0.3648
12192TIP3    H236518   8.016   7.740   2.018  0.9635 -1.1432 -1.7663
12193TIP3   OH236519   2.772   2.038   2.218  0.1332  0.0838  0.2394
12193TIP3    H136520   2.838   2.096   2.180 -0.1072 -0.7390 -1.4980
12193TIP3    H236521   2.693   2.055   2.167  0.0620 -1.7510 -0.3220
12194TIP3   OH236522   5.247   4.546   6.285  0.2489 -0.1000 -0.4673
12194TIP3    H136523   5.267   4.596   6.206  0.8798  0.4053  0.0098
12194TIP3    H236524   5.270   4.603   6.358  0.2015 -0.7705  0.0935
12195TIP3   OH236525   5.908   5.385   1.021 -0.0029 -0.2731 -0.6446
12195TIP3    H136526   5.922   5.474   1.052  0.4265 -0.7617  0.6680
12195TIP3    H236527   5.995   5.352   0.999 -0.2572 -0.0840 -2.0193
12196TIP3   OH236528   8.118   3.045   5.520  0.2843 -0.1327  0.0287
12196TIP3    H136529   8.168   2.977   5.475  0.0890 -1.3578  1.5841
12196TIP3    H236530   8.042   3.061   5.463 -0.2749 -2.0692  0.1800
12197TIP3   OH236531   5.793   2.319   4.641 -0.5346 -0.3013  0.1836
12197TIP3    H136532   5.845   2.328   4.561  0.1380 -0.4233  0.6006
12197TIP3    H236533   5.835   2.247   4.689 -0.9269 -0.2229  0.6539
12198TIP3   OH236534   5.103   1.081   3.658 -0.1032  0.0430 -0.2498
12198TIP3    H136535   5.055   1.157   3.691 -1.2311 -0.3436 -0.9268
12198TIP3    H236536   5.155   1.051   3.732 -2.3771 -0.6642  1.1673
12199TIP3   OH236537   0.466   0.927   3.001  0.0434  0.1119  0.3621
12199TIP3    H136538   0.514   0.861   3.053  0.0213 -0.9289 -0.8947
12199TIP3    H236539   0.376   0.897   3.003  0.2148 -0.5854 -1.1921
12200TIP3   OH236540   6.742   2.448   0.519  0.1120  0.0154  0.9120
12200TIP3    H136541   6.650   2.422   0.518 -0.5452  2.1254  1.1727
12200TIP3    H236542   6.788   2.371   0.552 -1.3818 -1.5172 -0.3943
12201TIP3   OH236543   5.242   0.160   5.369 -0.1450  0.0764  0.8589
12201TIP3    H136544   5.333   0.190   5.367  0.1370 -0.7690  0.8023
12201TIP3    H236545   5.234   0.113   5.452  0.1455 -1.8745 -0.1636
12202TIP3   OH236546   6.230   4.093   3.682  0.2455 -0.2320  0.6650
12202TIP3    H136547   6.218   4.145   3.762  4.0320 -0.2241  1.4141
12202TIP3    H236548   6.272   4.154   3.621 -0.3430 -0.9362 -0.4643
12203TIP3   OH236549   6.763   5.534   5.327  0.1252 -0.1771  0.1406
12203TIP3    H136550   6.856   5.541   5.305 -0.0780  0.7748 -0.4532
12203TIP3    H236551   6.757   5.572   5.414  0.0790  1.0672 -0.3936
12204TIP3   OH236552   3.961   6.504   1.927  0.0238  0.1418  0.6179
12204TIP3    H136553   3.906   6.488   2.004  0.1553 -1.1092  0.4786
12204TIP3    H236554   3.913   6.464   1.855 -0.1750  1.4498 -0.0082
12205TIP3   OH236555   5.076   4.387   3.507 -0.3743 -0.5357 -0.3626
12205TIP3    H136556   5.026   4.463   3.535  0.7159 -0.3569  1.2413
12205TIP3    H236557   5.077   4.329   3.583  1.0649 -0.9172 -0.6281
12206TIP3   OH236558   1.833   4.751   4.550 -0.3412  0.0741  0.0862
12206TIP3    H136559   1.814   4.657   4.558  0.3261 -0.0907 -0.2018
12206TIP3    H236560   1.929   4.755   4.545  0.0188  1.0587  4.1758
12207TIP3   OH236561   0.382   4.576   1.076 -0.5885  0.0123 -0.0029
12207TIP3    H136562   0.436   4.530   1.140 -0.4435  0.9432  0.5447
12207TIP3    H236563   0.315   4.620   1.128 -0.1688  1.1904 -0.4276
12208TIP3   OH236564   7.317   4.698   3.816  0.1702  0.5607 -0.1558
12208TIP3    H136565   7.350   4.687   3.906  0.1862 -1.5265 -0.3537
12208TIP3    H236566   7.373   4.640   3.764 -1.2777  0.0028 -1.1385
12209TIP3   OH236567   1.592   1.862   0.190 -0.1183 -0.0142  0.1738
12209TIP3    H136568   1.534   1.787   0.178 -1.6154  1.0272  0.6270
12209TIP3    H236569   1.643   1.841   0.269 -0.8650 -0.3388  0.5758
12210TIP3   OH236570   1.194   3.274   3.951  0.0835 -0.2687  0.4717
12210TIP3    H136571   1.171   3.259   3.859 -1.8296  0.8617  0.6986
12210TIP3    H236572   1.131   3.221   4.000  0.5285 -0.1924  1.1312
12211TIP3   OH236573   2.954   7.877   5.519 -0.4841  0.0001  0.3214
12211TIP3    H136574   2.971   7.815   5.449  0.5160 -0.6742  1.1426
12211TIP3    H236575   3.026   7.866   5.581 -0.8741  1.1888  1.0410
12212TIP3   OH236576   1.970   2.730   4.265 -0.1391  0.6387 -0.2650
12212TIP3    H136577   2.039   2.677   4.223  0.5307  0.9519  0.4270
12212TIP3    H236578   1.899   2.667   4.281  0.9286 -0.2449  1.2126
12213TIP3   OH236579   0.965   7.653   2.332 -0.0735  0.1681 -0.4521
12213TIP3    H136580   1.009   7.568   2.337 -0.0878  0.2316  0.9536
12213TIP3    H236581   0.874   7.634   2.356  0.3674  0.8884  1.9815
12214TIP3   OH236582   5.467   1.301   4.425 -0.2608  0.5734  0.6034
12214TIP3    H136583   5.503   1.365   4.365 -0.6538  0.7306  0.5327
12214TIP3    H236584   5.535   1.233   4.432 -0.9961 -0.4637 -1.5794
12215TIP3   OH236585   2.115   3.081   4.777 -0.4065  0.0185 -0.3767
12215TIP3    H136586   2.181   3.147   4.798  1.0985 -1.2447 -0.9970
12215TIP3    H236587   2.066   3.118   4.703 -0.3398  0.9141  0.0142
12216TIP3   OH236588   6.298   5.463   3.023  0.1199  0.0688 -0.4498
12216TIP3    H136589   6.387   5.467   3.056 -0.7837  2.7711  2.1718
12216TIP3    H236590   6.261   5.384   3.061  0.8035  0.0982  0.2887
12217TIP3   OH236591   1.404   1.930   5.204 -0.1958  0.0896 -0.4610
12217TIP3    H136592   1.441   1.867   5.142  0.0955  0.2841 -0.4870
12217TIP3    H236593   1.410   2.014   5.158 -1.1665  0.0493 -0.6845
12218TIP3   OH236594   0.431   0.372   2.281  0.0780  0.0901 -0.2412
12218TIP3    H136595   0.387   0.440   2.332  0.8553 -0.1311  0.7800
12218TIP3    H236596   0.521   0.372   2.315  0.0872 -1.4472 -0.1894
12219TIP3   OH236597   2.124   0.411   2.319 -0.5002 -0.1746 -0.1870
12219TIP3    H136598   2.052   0.424   2.380  0.9232 -0.4488  1.6615
12219TIP3    H236599   2.125   0.317   2.301  0.1265 -0.3815  0.8166
12220TIP3   OH236600   1.576   0.711   1.518  0.3896 -0.0631 -0.1798
12220TIP3    H136601   1.653   0.660   1.544  1.3100  0.6075 -1.4658
12220TIP3    H236602   1.607   0.802   1.519  0.0452  0.1115 -2.0537
12221TIP3   OH236603   3.366   2.420   4.626  0.1657 -0.5239 -0.5501
12221TIP3    H136604   3.290   2.365   4.604 -0.7080  0.1650  0.5741
12221TIP3    H236605   3.414   2.368   4.691 -0.2268 -0.2972 -0.0743
12222TIP3   OH236606   4.103   5.881   5.392  0.0984  0.2299  0.6618
12222TIP3    H136607   4.194   5.882   5.423  1.1506 -2.2791 -1.8383
12222TIP3    H236608   4.058   5.821   5.450  0.7600 -0.5601  0.3785
12223TIP3   OH236609   3.421   5.196   6.655  0.7121  0.5491 -0.1559
12223TIP3    H136610   3.383   5.168   6.572  1.7601 -0.3101 -0.3696
12223TIP3    H236611   3.347   5.201   6.715 -0.1082  1.5401 -1.2279
12224TIP3   OH236612   6.189   5.245   3.198  0.3528 -0.0307 -0.3961
12224TIP3    H136613   6.097   5.252   3.224 -0.0754  1.5379 -2.1551
12224TIP3    H236614   6.231   5.199   3.271 -1.7293 -0.4057  0.6340
12225TIP3   OH236615   5.595   7.598   3.785 -0.3275  0.3183 -0.3938
12225TIP3    H136616   5.621   7.676   3.834 -0.5130  1.0499 -1.4204
12225TIP3    H236617   5.643   7.527   3.827  1.0103  1.2031 -0.3522
12226TIP3   OH236618   3.702   1.597   5.228 -0.1139 -0.6194  0.1384
12226TIP3    H136619   3.610   1.572   5.219 -0.4938  0.7014  0.1511
12226TIP3    H236620   3.718   1.659   5.156  0.3940  0.1571  0.8999
12227TIP3   OH236621   6.003   4.600   0.374  0.0282  0.2746 -0.8464
12227TIP3    H136622   6.088   4.642   0.389  0.1862 -0.0454 -0.8471
12227TIP3    H236623   5.943   4.648   0.431  0.6487 -1.0172  1.0118
12228TIP3   OH236624   2.932   0.224   0.213  0.9046 -0.8693  0.1674
12228TIP3    H136625   2.846   0.238   0.173  1.4317  0.2100 -0.6507
12228TIP3    H236626   2.981   0.172   0.149  1.6915  0.7158 -0.5862
12229TIP3   OH236627   7.937   1.472   5.676  0.1189 -0.2317  0.1510
12229TIP3    H136628   7.926   1.398   5.736  0.3520 -1.7318 -1.5621
12229TIP3    H236629   7.875   1.454   5.605 -1.8130  2.6722  0.9469
12230TIP3   OH236630   3.054   5.697   6.527  0.0108 -0.5870  0.0047
12230TIP3    H136631   3.020   5.640   6.457 -0.1138 -0.8099  0.2427
12230TIP3    H236632   3.147   5.673   6.534  0.6892  1.2091 -1.8102
12231TIP3   OH236633   1.315   2.220   1.512 -0.1382 -0.0862 -0.5407
12231TIP3    H136634   1.236   2.178   1.544  0.3960 -0.5853  0.1674
12231TIP3    H236635   1.284   2.288   1.453 -1.1300  0.3848  0.4856
12232TIP3   OH236636   5.038   6.282   2.107  0.2541  0.7406 -0.2232
12232TIP3    H136637   4.978   6.249   2.174 -0.4286 -0.4539 -1.3461
12232TIP3    H236638   5.124   6.254   2.136  0.2609  2.1191  1.2089
12233TIP3   OH236639   4.889   2.535   5.112  0.1167  0.0145  0.3071
12233TIP3    H136640   4.867   2.593   5.185  1.5008  0.2411  0.5729
12233TIP3    H236641   4.893   2.593   5.036  0.4356  0.0821  0.3757
12234TIP3   OH236642   4.068   5.000   1.516 -0.1776 -0.3781 -0.1505
12234TIP3    H136643   3.995   5.002   1.578  0.8401 -1.5682  1.1447
12234TIP3    H236644   4.093   5.092   1.506 -2.2272  0.1213 -1.1330
12235TIP3   OH236645   5.811   4.244   0.774 -0.0421 -0.1571  0.7462
12235TIP3    H136646   5.837   4.322   0.725  0.3785 -0.5324  0.3565
12235TIP3    H236647   5.890   4.221   0.825 -0.3135 -0.0593  1.2134
12236TIP3   OH236648   7.691   1.866   5.985  0.1929 -0.0108  0.0034
12236TIP3    H136649   7.660   1.829   5.902 -1.5791 -0.1859  0.6951
12236TIP3    H236650   7.663   1.803   6.051 -0.0830  1.0203  0.9041
12237TIP3   OH236651   1.191   5.403   6.072 -0.4038 -0.4860  0.3745
12237TIP3    H136652   1.097   5.384   6.069 -0.2557 -1.0956 -1.1096
12237TIP3    H236653   1.198   5.495   6.050 -0.7330  0.0103  2.1294
12238TIP3   OH236654   5.611   2.843   4.538 -0.3274 -0.1007  0.0026
12238TIP3    H136655   5.547   2.784   4.577 -0.5490 -0.7146 -1.2202
12238TIP3    H236656   5.621   2.914   4.602 -2.7601  0.3968 -0.0581
12239TIP3   OH236657   7.920   3.034   3.187  0.0465 -0.1723 -0.3216
12239TIP3    H136658   7.932   3.104   3.251  0.8212  1.1991 -1.9035
12239TIP3    H236659   8.004   2.990   3.183  0.1292  0.0117 -0.6799
12240TIP3   OH236660   1.364   0.168   5.305  0.0405  0.3199 -0.2447
12240TIP3    H136661   1.386   0.236   5.369  0.7463 -0.2266  0.1065
12240TIP3    H236662   1.285   0.127   5.340 -0.0949  0.6183 -0.1960
12241TIP3   OH236663   1.994   7.867   3.402 -0.3911 -0.1844 -0.3354
12241TIP3    H136664   1.904   7.837   3.412 -0.1291 -0.6698  0.7188
12241TIP3    H236665   2.009   7.867   3.308 -1.6399  0.3759 -0.5569
12242TIP3   OH236666   0.617   5.376   2.478  0.2306  0.4955 -0.3219
12242TIP3    H136667   0.633   5.470   2.465  1.5496  0.2281 -0.7739
12242TIP3    H236668   0.521   5.368   2.479  0.0881  1.9222  0.3418
12243TIP3   OH236669   2.371   0.876   4.679  0.1479  0.1154 -0.3170
12243TIP3    H136670   2.454   0.875   4.631 -0.1087 -0.8433 -0.7567
12243TIP3    H236671   2.334   0.962   4.660 -0.1897 -0.4151 -2.2686
12244TIP3   OH236672   2.496   7.941   3.058 -0.4230 -0.0442 -0.1152
12244TIP3    H136673   2.494   7.846   3.072  0.0972 -0.3026 -1.6147
12244TIP3    H236674   2.429   7.956   2.990 -0.1578  0.5906 -0.2392
12245TIP3   OH236675   7.385   7.214   6.149  0.3788 -0.5088  0.3097
12245TIP3    H136676   7.292   7.201   6.134  0.7254 -0.4448 -2.3690
12245TIP3    H236677   7.402   7.170   6.233 -1.6449 -2.4671 -0.2022
12246TIP3   OH236678   6.278   5.445   2.047  0.2180  0.4051  0.2064
12246TIP3    H136679   6.216   5.467   1.977 -0.9135  1.0230  1.3505
12246TIP3    H236680   6.300   5.529   2.087  1.9744  0.2097 -0.2924
12247TIP3   OH236681   0.854   2.132   3.553 -0.1834 -0.1992  0.0787
12247TIP3    H136682   0.839   2.052   3.503  0.9363  0.6250 -1.7195
12247TIP3    H236683   0.943   2.159   3.527 -0.9217  2.1635 -0.2179
12248TIP3   OH236684   0.822   7.355   4.074 -0.0359  0.6300 -0.2645
12248TIP3    H136685   0.860   7.267   4.074 -1.1982  0.0634  1.4510
12248TIP3    H236686   0.829   7.385   3.984  1.2321 -0.8516 -0.6934
12249TIP3   OH236687   3.830   1.236   5.903  0.1122 -0.4265  0.2412
12249TIP3    H136688   3.881   1.198   5.975  0.0487 -1.0031 -0.0168
12249TIP3    H236689   3.894   1.249   5.833 -0.1787 -1.6385 -0.2700
12250TIP3   OH236690   3.748   0.881   3.400  0.4889  0.1130  0.2132
12250TIP3    H136691   3.718   0.820   3.333  0.6423  0.4193 -0.1443
12250TIP3    H236692   3.724   0.841   3.483 -2.3847  1.0753 -0.0531
12251TIP3   OH236693   4.856   2.958   5.595  0.2350 -0.4963 -0.7820
12251TIP3    H136694   4.933   2.909   5.622 -0.1192 -0.5322  0.2117
12251TIP3    H236695   4.867   2.971   5.501  0.5710 -2.0715 -0.9887
12252TIP3   OH236696   7.617   1.632   6.113 -0.0245 -0.0723  0.4886
12252TIP3    H136697   7.567   1.567   6.162 -1.1997 -0.7855 -1.5679
12252TIP3    H236698   7.669   1.582   6.050  0.5076  0.8711  0.1462
12253TIP3   OH236699   4.333   5.521   2.965 -0.5552 -0.5759 -0.2826
12253TIP3    H136700   4.310   5.528   2.872 -0.3707  0.8466 -0.2355
12253TIP3    H236701   4.423   5.488   2.965 -0.3763 -0.0936 -0.6167
12254TIP3   OH236702   6.010   4.694   3.946 -0.1805  0.4858  0.6174
12254TIP3    H136703   6.084   4.650   3.986 -0.6738  1.2014  2.4350
12254TIP3    H236704   6.029   4.787   3.958 -1.8602  0.6825  2.1759
12255TIP3   OH236705   2.541   4.673   5.780  0.6363  0.3362  0.4479
12255TIP3    H136706   2.457   4.671   5.732  0.8119  1.1578  0.0907
12255TIP3    H236707   2.545   4.587   5.823  0.1604 -0.1810 -0.4824
12256TIP3   OH236708   1.517   5.399   4.610  0.4570 -0.3306 -0.2020
12256TIP3    H136709   1.561   5.462   4.552  0.3125 -1.9524 -2.2182
12256TIP3    H236710   1.587   5.366   4.667  1.0539 -0.1319 -0.8010
12257TIP3   OH236711   2.573   7.788   6.594  0.0528 -0.4134 -0.0970
12257TIP3    H136712   2.572   7.693   6.589 -0.3934 -0.3519 -2.4090
12257TIP3    H236713   2.658   7.809   6.633  0.0184 -1.7365  0.7633
12258TIP3   OH236714   7.601   4.738   6.644  0.2323  0.3536 -0.2589
12258TIP3    H136715   7.520   4.787   6.662 -0.3043 -0.7703  0.4740
12258TIP3    H236716   7.644   4.730   6.729 -0.2403 -1.3707 -0.1365
12259TIP3   OH236717   7.905   5.164   6.238 -0.7085 -0.0122 -0.3887
12259TIP3    H136718   7.938   5.254   6.243  0.1838 -0.3941  1.7048
12259TIP3    H236719   7.813   5.172   6.263 -0.3283  0.2116  1.0372
12260TIP3   OH236720   5.014   1.092   4.092  0.3680 -0.0646  0.0123
12260TIP3    H136721   4.973   1.169   4.132  1.3657  0.6653 -0.3490
12260TIP3    H236722   5.107   1.102   4.108  0.7135 -0.2083 -1.6885
12261TIP3   OH236723   0.598   1.031   5.821 -0.9278  0.1252 -0.7412
12261TIP3    H136724   0.532   0.964   5.838 -0.6444  0.1897  0.7213
12261TIP3    H236725   0.680   0.992   5.852 -0.9110  1.4898  1.0964
12262TIP3   OH236726   0.114   6.065   5.140  0.1707 -0.8967  0.2332
12262TIP3    H136727   0.057   6.050   5.064 -0.4936 -3.1944  1.1010
12262TIP3    H236728   0.062   6.123   5.197  0.9190  1.3500 -1.2360
12263TIP3   OH236729   7.604   2.733   5.829  0.2207  0.5591  0.0055
12263TIP3    H136730   7.515   2.717   5.795  1.1554 -0.1886 -2.3290
12263TIP3    H236731   7.619   2.826   5.814 -0.3795  0.8204  0.9838
12264TIP3   OH236732   3.055   0.162   6.425 -0.0530 -0.2053 -0.0316
12264TIP3    H136733   2.981   0.103   6.409 -0.7087  0.5781  0.0441
12264TIP3    H236734   3.132   0.106   6.418 -0.6144 -0.9188 -0.7319
12265TIP3   OH236735   0.607   7.327   0.144 -0.1481 -0.1643 -0.6218
12265TIP3    H136736   0.543   7.258   0.161 -0.6417  0.5931  0.7637
12265TIP3    H236737   0.676   7.311   0.208  1.7203 -1.6931 -2.8616
12266TIP3   OH236738   1.262   6.417   1.516  0.3287  0.1903 -0.1925
12266TIP3    H136739   1.249   6.380   1.428  2.6927 -1.3250 -0.0107
12266TIP3    H236740   1.322   6.491   1.503 -1.6692  1.8974 -0.1371
12267TIP3   OH236741   6.249   4.002   5.834  0.2145 -0.2289 -0.0071
12267TIP3    H136742   6.308   4.077   5.830  0.4007 -0.4389 -2.0165
12267TIP3    H236743   6.199   4.005   5.753  1.4891 -3.2727 -1.0597
12268TIP3   OH236744   3.528   4.116   6.121 -0.0900 -0.0777  0.1923
12268TIP3    H136745   3.498   4.050   6.060 -0.2214  0.6242 -0.5172
12268TIP3    H236746   3.617   4.137   6.093  0.6665 -1.2607  1.5389
12269TIP3   OH236747   7.633   5.263   4.515  0.4827  0.4005 -0.2865
12269TIP3    H136748   7.545   5.239   4.485  1.4960 -1.8395 -1.7271
12269TIP3    H236749   7.646   5.210   4.594  1.3443 -1.1337 -1.3962
12270TIP3   OH236750   3.263   0.840   1.154 -0.6005 -0.3186  0.2894
12270TIP3    H136751   3.334   0.827   1.090 -0.8338  1.0788 -0.2865
12270TIP3    H236752   3.302   0.812   1.238  0.1479 -0.9196 -0.2362
12271TIP3   OH236753   1.339   2.295   3.250  1.0876 -0.7810 -0.1576
12271TIP3    H136754   1.373   2.336   3.330 -0.0183 -1.9295  0.9495
12271TIP3    H236755   1.417   2.257   3.208  2.1670  2.4055 -1.2813
12272TIP3   OH236756   1.075   5.951   4.889  0.1382 -0.2378  0.2037
12272TIP3    H136757   1.130   6.026   4.868  2.0247 -1.1708  1.5424
12272TIP3    H236758   1.073   5.899   4.809 -0.9197  1.0363 -0.6323
12273TIP3   OH236759   7.062   5.623   0.433 -0.5161  0.3236 -0.3863
12273TIP3    H136760   7.053   5.713   0.465  1.1119  0.6407 -0.7658
12273TIP3    H236761   7.054   5.569   0.511 -4.6028  0.5046 -0.4659
12274TIP3   OH236762   5.895   7.163   6.427 -0.1705  0.8186  0.0646
12274TIP3    H136763   5.864   7.189   6.340 -1.0985 -1.1553 -0.2643
12274TIP3    H236764   5.972   7.217   6.442  1.9318 -0.8725 -3.3504
12275TIP3   OH236765   4.633   3.245   4.654  0.1214  0.1055  0.0737
12275TIP3    H136766   4.552   3.260   4.703  0.5886  0.4782  0.7503
12275TIP3    H236767   4.702   3.243   4.721  0.4605 -2.1595 -0.2562
12276TIP3   OH236768   5.632   4.260   1.996  0.0343  0.4353 -0.6051
12276TIP3    H136769   5.676   4.341   1.972 -0.1267  0.7617  0.1594
12276TIP3    H236770   5.701   4.194   1.998  0.5759  1.0014  0.8837
12277TIP3   OH236771   4.111   6.255   5.760 -0.5964 -0.5887 -0.9105
12277TIP3    H136772   4.060   6.270   5.840 -1.1900 -0.0484 -1.3746
12277TIP3    H236773   4.091   6.165   5.735  1.2037 -1.5017  0.6556
12278TIP3   OH236774   4.725   6.701   1.463  0.3451  0.1126 -0.2135
12278TIP3    H136775   4.721   6.720   1.556  0.8755  0.0040 -0.1631
12278TIP3    H236776   4.806   6.742   1.433  1.5946 -2.0619 -0.0814
12279TIP3   OH236777   3.925   4.679   4.075 -0.0342  0.2138  0.1489
12279TIP3    H136778   3.882   4.642   3.998 -2.0781 -0.9735  1.7565
12279TIP3    H236779   3.863   4.743   4.109  1.4123  1.6838  0.1134
12280TIP3   OH236780   7.384   7.797   4.845 -0.0047  0.2589 -0.3364
12280TIP3    H136781   7.441   7.749   4.905 -0.4065  0.2004 -0.0046
12280TIP3    H236782   7.418   7.775   4.758  0.9149  0.7679 -0.1240
12281TIP3   OH236783   5.769   4.789   5.581 -0.0950  0.4345  0.2706
12281TIP3    H136784   5.861   4.805   5.600  0.2648 -0.9462 -0.2338
12281TIP3    H236785   5.727   4.783   5.666  0.4948 -0.0988  0.5319
12282TIP3   OH236786   1.503   0.964   4.705  0.1845 -0.4515  0.3603
12282TIP3    H136787   1.520   0.954   4.799  0.6935 -0.1200  0.3056
12282TIP3    H236788   1.430   1.026   4.701 -0.8459 -1.5971  0.5808
12283TIP3   OH236789   4.084   1.188   1.080  0.3445 -0.5012  0.2756
12283TIP3    H136790   3.998   1.229   1.091  0.5949  0.4261 -1.0340
12283TIP3    H236791   4.136   1.220   1.154  0.2326  0.8012 -0.1815
12284TIP3   OH236792   2.982   5.817   1.413 -0.5354  0.5602  1.0172
12284TIP3    H136793   3.000   5.743   1.471  0.7934  0.8110  0.9558
12284TIP3    H236794   2.960   5.776   1.330  0.6221  0.1989  0.8593
12285TIP3   OH236795   5.633   7.746   2.485  0.0876  0.1476 -0.0690
12285TIP3    H136796   5.674   7.664   2.511  1.5770  1.3556  1.7504
12285TIP3    H236797   5.699   7.790   2.431  0.4798  1.2880  1.2779
12286TIP3   OH236798   6.892   6.461   4.116 -0.4056 -0.1667 -0.8112
12286TIP3    H136799   6.797   6.455   4.112 -0.6158  1.3634  0.7629
12286TIP3    H236800   6.922   6.370   4.106 -2.0636 -0.7827 -0.5208
12287TIP3   OH236801   2.077   6.201   1.878  0.1249 -0.9349  0.2157
12287TIP3    H136802   2.095   6.254   1.955  0.1687 -1.6271  0.6881
12287TIP3    H236803   2.162   6.192   1.834 -0.3697  2.0844 -1.6765
12288TIP3   OH236804   6.686   5.470   6.013  0.1715  0.5662 -0.0406
12288TIP3    H136805   6.760   5.454   5.954 -0.0987 -1.5082  0.1141
12288TIP3    H236806   6.613   5.492   5.955 -0.5737 -3.2296 -0.7803
12289TIP3   OH236807   2.438   3.578   2.832 -0.5310  0.0900 -0.1192
12289TIP3    H136808   2.508   3.534   2.784 -0.8902  0.3306 -0.8857
12289TIP3    H236809   2.417   3.519   2.904 -1.7837 -1.6046 -1.7570
12290TIP3   OH236810   2.330   7.779   3.314 -0.5365  0.2427 -0.1424
12290TIP3    H136811   2.343   7.687   3.288  2.3169  0.4971  0.0904
12290TIP3    H236812   2.256   7.808   3.261  0.1138 -1.4832 -2.1733
12291TIP3   OH236813   3.323   1.638   2.588 -0.5415  0.3695 -0.0317
12291TIP3    H136814   3.408   1.676   2.609 -0.0137 -0.1549 -1.1663
12291TIP3    H236815   3.296   1.680   2.507 -1.5945  0.8609  0.5508
12292TIP3   OH236816   5.003   1.204   0.924  0.3542  0.2375 -0.4492
12292TIP3    H136817   5.051   1.173   1.001  0.0525  1.7245  0.3768
12292TIP3    H236818   5.071   1.239   0.865  0.3775  2.0240  0.5662
12293TIP3   OH236819   1.908   0.396   6.466 -0.3802 -0.1030  0.0498
12293TIP3    H136820   1.963   0.323   6.496  1.3145  0.9347 -0.3680
12293TIP3    H236821   1.888   0.445   6.546  0.9741  0.5673  0.0189
12294TIP3   OH236822   2.188   3.895   6.239  0.4767 -0.5079 -0.1211
12294TIP3    H136823   2.256   3.959   6.260 -1.2934  1.2855  0.4658
12294TIP3    H236824   2.222   3.812   6.272  2.4971  0.2503 -0.1515
12295TIP3   OH236825   7.232   6.244   2.237 -0.0485  0.3443  0.0984
12295TIP3    H136826   7.304   6.238   2.175 -1.5369  1.3644 -1.8452
12295TIP3    H236827   7.159   6.278   2.185 -2.2155 -1.5282  1.7330
12296TIP3   OH236828   2.445   0.149   4.319 -0.4191  0.1310 -0.0394
12296TIP3    H136829   2.355   0.177   4.338 -0.5793 -0.2552 -0.2096
12296TIP3    H236830   2.468   0.094   4.394 -0.0934  0.7373  0.3122
12297TIP3   OH236831   4.723   4.556   6.219 -0.2057  0.1426 -0.3721
12297TIP3    H136832   4.653   4.490   6.226 -0.2246  0.2889  1.1434
12297TIP3    H236833   4.795   4.510   6.175  0.6844 -1.7579  2.7407
12298TIP3   OH236834   2.232   6.872   6.464 -0.1094 -0.4636 -0.1785
12298TIP3    H136835   2.137   6.883   6.457  0.0226  0.1539 -1.1411
12298TIP3    H236836   2.255   6.910   6.549 -0.4127  1.6277 -0.9828
12299TIP3   OH236837   8.111   5.977   6.195 -0.5390  0.1232  0.0475
12299TIP3    H136838   8.071   5.962   6.281 -3.0756  0.4616 -0.9599
12299TIP3    H236839   8.184   6.036   6.212 -0.5452 -0.3692  2.0452
12300TIP3   OH236840   1.402   1.470   4.093  0.5064  0.4236  0.0414
12300TIP3    H136841   1.404   1.529   4.018  1.5684  0.9975  0.5032
12300TIP3    H236842   1.487   1.426   4.092 -0.6071 -1.8742 -0.8543
12301TIP3   OH236843   2.305   5.116   1.146  0.5106 -0.3128 -0.2327
12301TIP3    H136844   2.379   5.172   1.123 -0.1872  0.2857 -1.0637
12301TIP3    H236845   2.298   5.055   1.072  0.6398 -0.8543  0.1972
12302TIP3   OH236846   8.049   1.345   5.255 -0.3582  0.0068 -0.2048
12302TIP3    H136847   8.039   1.440   5.267  1.5000  0.1796  0.3330
12302TIP3    H236848   8.143   1.332   5.246 -0.6762 -1.6581 -1.6692
12303TIP3   OH236849   5.853   5.982   5.139  0.2539  0.2135  0.6289
12303TIP3    H136850   5.919   5.914   5.137 -1.5089 -1.5813  0.3020
12303TIP3    H236851   5.882   6.042   5.207  1.7558 -0.9604  1.0690
12304TIP3   OH236852   6.000   6.409   4.271 -0.0754 -0.4476 -0.6647
12304TIP3    H136853   5.958   6.335   4.316 -1.0821  1.5514  1.9669
12304TIP3    H236854   6.092   6.404   4.299 -0.3538 -0.1666  0.3534
12305TIP3   OH236855   5.163   2.484   0.293  0.0461 -0.2559 -0.8130
12305TIP3    H136856   5.084   2.434   0.273 -1.7842  1.6584  1.1200
12305TIP3    H236857   5.156   2.504   0.386  1.8118  1.6931 -1.0245
12306TIP3   OH236858   1.156   1.955   5.909 -0.2579  0.2347  0.3063
12306TIP3    H136859   1.129   1.992   5.993  0.9103 -0.6231  1.0955
12306TIP3    H236860   1.133   1.862   5.915  1.6863 -0.2897  0.5646
12307TIP3   OH236861   8.260   5.924   3.600  0.2232 -0.0117 -0.1924
12307TIP3    H136862   8.191   5.872   3.642 -0.8935  0.9292 -0.7964
12307TIP3    H236863   8.221   6.010   3.588  1.6215  0.6325 -0.3051
12308TIP3   OH236864   4.420   7.554   5.568 -0.2582  0.6462 -0.4605
12308TIP3    H136865   4.384   7.641   5.586 -1.6282 -0.0081  0.1226
12308TIP3    H236866   4.466   7.529   5.648 -2.7464 -0.5088  0.7305
12309TIP3   OH236867   5.821   5.063   5.765 -0.3605 -0.0694 -0.3632
12309TIP3    H136868   5.907   5.103   5.751 -0.3366 -0.1901 -0.5649
12309TIP3    H236869   5.834   5.003   5.839 -0.7191  1.2862  0.8447
12310TIP3   OH236870   2.843   0.842   2.469 -0.1178  0.5129  0.1197
12310TIP3    H136871   2.896   0.917   2.495 -0.2086  0.3527  0.7950
12310TIP3    H236872   2.848   0.841   2.373  1.8592 -0.0580  0.1830
12311TIP3   OH236873   3.773   2.460   3.994 -0.5883 -0.2758 -0.0017
12311TIP3    H136874   3.844   2.523   3.982 -0.1016 -0.8457 -0.1807
12311TIP3    H236875   3.803   2.404   4.066 -0.4113 -1.1093 -0.7047
12312TIP3   OH236876   4.748   7.164   3.780  0.1350 -0.2459 -0.1156
12312TIP3    H136877   4.663   7.125   3.799 -0.3408  0.3703 -0.9160
12312TIP3    H236878   4.741   7.194   3.689  1.4706 -0.8632 -0.4585
12313TIP3   OH236879   4.186   4.434   6.229  0.4837 -0.6004 -0.0294
12313TIP3    H136880   4.238   4.514   6.232  0.8563 -0.8146 -0.6853
12313TIP3    H236881   4.193   4.398   6.317  2.5668 -1.3383 -0.4492
12314TIP3   OH236882   0.029   1.814   1.802 -0.5199  0.6301  0.2413
12314TIP3    H136883   0.053   1.723   1.785  1.8429  1.3618 -0.7983
12314TIP3    H236884   0.048   1.828   1.895 -1.5199 -0.0816  0.5643
12315TIP3   OH236885   7.117   5.372   1.061 -0.5474 -0.2740 -0.0927
12315TIP3    H136886   7.146   5.289   1.025  0.4858 -0.4832  1.1272
12315TIP3    H236887   7.194   5.429   1.054 -0.7862  0.1145  0.3913
12316TIP3   OH236888   3.316   7.080   2.355  0.0677 -0.2125 -0.0396
12316TIP3    H136889   3.344   6.990   2.339 -0.1211 -0.0852 -1.1398
12316TIP3    H236890   3.321   7.123   2.270 -0.3362  0.6898  0.3729
12317TIP3   OH236891   5.690   0.169   2.655 -0.3380  0.3986 -0.9225
12317TIP3    H136892   5.719   0.259   2.671  1.2361 -0.0941 -0.8483
12317TIP3    H236893   5.658   0.139   2.740 -0.0807  0.6220 -0.7438
12318TIP3   OH236894   6.835   6.668   5.037  0.6297  0.0481 -0.8665
12318TIP3    H136895   6.793   6.601   5.090  1.2712 -2.2794 -3.0980
12318TIP3    H236896   6.922   6.678   5.075  0.1728  0.4616  0.1214
12319TIP3   OH236897   1.664   5.406   5.862 -0.4862  0.2744 -0.2704
12319TIP3    H136898   1.675   5.392   5.768 -2.0244 -0.5657 -0.3615
12319TIP3    H236899   1.589   5.466   5.869 -1.5797 -1.1100  0.4279
12320TIP3   OH236900   5.578   4.276   0.893  0.2013  0.4762  0.3400
12320TIP3    H136901   5.663   4.258   0.854  0.2347 -1.1278  1.0375
12320TIP3    H236902   5.597   4.287   0.987 -0.3371  0.1362  0.4941
12321TIP3   OH236903   1.030   7.861   4.291 -0.4794  0.9144 -0.1257
12321TIP3    H136904   1.025   7.913   4.210  0.9210  2.4118  0.6977
12321TIP3    H236905   1.081   7.914   4.351 -1.5605 -0.1338  1.8230
12322TIP3   OH236906   0.252   1.957   1.148  0.2826 -0.2232 -0.3937
12322TIP3    H136907   0.198   1.882   1.173  0.9670 -0.6728 -0.2354
12322TIP3    H236908   0.221   1.982   1.061 -1.0598  0.3539  0.2356
12323TIP3   OH236909   5.385   7.546   6.505  0.5024 -0.3540 -0.1319
12323TIP3    H136910   5.327   7.609   6.548  1.5767  3.0942 -3.2062
12323TIP3    H236911   5.460   7.538   6.563 -0.5350 -0.3813  1.2387
12324TIP3   OH236912   5.710   6.230   6.495 -0.1371 -0.2027 -0.4654
12324TIP3    H136913   5.646   6.221   6.566 -0.7450  0.5924 -0.8996
12324TIP3    H236914   5.720   6.141   6.461  1.3577 -0.9021  1.6087
12325TIP3   OH236915   7.771   0.772   5.508  0.4657 -0.0173 -0.9087
12325TIP3    H136916   7.796   0.745   5.597  1.4305  0.1569 -1.1250
12325TIP3    H236917   7.845   0.747   5.453  2.1291  4.1552 -0.9452
12326TIP3   OH236918   4.543   4.332   2.087  0.5253 -0.2541 -0.1419
12326TIP3    H136919   4.577   4.390   2.019  1.4544  1.6497  1.8394
12326TIP3    H236920   4.619   4.314   2.143 -0.4664 -0.7793  1.0852
12327TIP3   OH236921   6.552   1.619   1.152  0.1257 -0.6140  0.0454
12327TIP3    H136922   6.517   1.561   1.220 -0.2125 -0.8492 -0.3245
12327TIP3    H236923   6.612   1.564   1.101 -1.5952 -1.1917 -1.4613
12328TIP3   OH236924   4.643   2.069   6.264 -0.2808 -0.6742  0.2289
12328TIP3    H136925   4.597   2.084   6.180 -0.8140  1.8576  0.8764
12328TIP3    H236926   4.575   2.034   6.322 -1.2672  2.0995  0.8904
12329TIP3   OH236927   2.741   3.187   6.646  0.2075 -0.3013 -0.1094
12329TIP3    H136928   2.781   3.134   6.714 -0.1964 -0.7040 -0.1891
12329TIP3    H236929   2.697   3.258   6.693  2.5515  1.2734 -0.0601
12330TIP3   OH236930   7.892   7.557   4.624 -1.0120  0.2113  0.7686
12330TIP3    H136931   7.885   7.463   4.638 -2.2114  0.0383 -0.7908
12330TIP3    H236932   7.983   7.578   4.646  0.3904 -1.9634 -2.2569
12331TIP3   OH236933   8.159   4.405   0.091 -0.5032 -0.0395 -0.1538
12331TIP3    H136934   8.153   4.415   0.186 -1.8076 -1.6918 -0.0119
12331TIP3    H236935   8.214   4.477   0.063  0.2685  0.2399  1.9029
12332TIP3   OH236936   2.657   3.820   2.538 -0.4815 -0.0710 -0.2413
12332TIP3    H136937   2.674   3.728   2.517  2.3068  0.3767 -0.2966
12332TIP3    H236938   2.568   3.820   2.576 -0.5060 -2.7822 -0.1086
12333TIP3   OH236939   1.377   6.531   2.392  0.2488  0.0461 -0.6355
12333TIP3    H136940   1.293   6.578   2.393  0.5510  0.5924 -0.8006
12333TIP3    H236941   1.408   6.537   2.482  1.1678  1.7836 -1.0180
12334TIP3   OH236942   7.564   7.120   2.454  0.0269  0.3750 -0.1316
12334TIP3    H136943   7.627   7.074   2.398  0.2955  1.6987 -0.9705
12334TIP3    H236944   7.602   7.207   2.466 -1.2851  0.9559 -0.0297
12335TIP3   OH236945   7.896   0.830   0.917  0.2704  0.2091  0.0726
12335TIP3    H136946   7.810   0.863   0.943  0.7645  1.0728  0.6442
12335TIP3    H236947   7.930   0.788   0.996  0.7128  0.5994  0.0940
12336TIP3   OH236948   3.765   4.959   5.390  0.0807 -0.6208 -0.2411
12336TIP3    H136949   3.775   4.881   5.443  0.4559 -0.8024 -0.5745
12336TIP3    H236950   3.693   4.938   5.330 -4.1633  1.4052  3.4847
12337TIP3   OH236951   2.339   7.515   3.216 -0.1022 -0.2487 -0.3186
12337TIP3    H136952   2.267   7.472   3.169 -1.3178  0.7322  0.5967
12337TIP3    H236953   2.330   7.485   3.306  0.9877 -0.5336 -0.2921
12338TIP3   OH236954   7.197   5.860   5.004  0.1788 -0.4764 -0.5824
12338TIP3    H136955   7.275   5.913   4.987  0.7042 -1.2509 -0.5794
12338TIP3    H236956   7.226   5.792   5.064 -0.8069  0.0027  0.4691
12339TIP3   OH236957   2.515   1.540   4.856  0.2245  0.2162 -0.4228
12339TIP3    H136958   2.585   1.545   4.921 -0.3513 -2.1457  0.4680
12339TIP3    H236959   2.436   1.523   4.908 -0.6916  0.8698 -1.5637
12340TIP3   OH236960   6.352   1.031   4.955  0.9488  0.5779  0.3739
12340TIP3    H136961   6.383   1.110   4.998 -1.1739  1.1398  0.9960
12340TIP3    H236962   6.292   0.991   5.018 -0.4345  0.1663 -1.1156
12341TIP3   OH236963   5.556   7.810   6.496 -0.0724 -0.0292 -0.4337
12341TIP3    H136964   5.642   7.793   6.535  0.7018  1.8610 -1.1628
12341TIP3    H236965   5.575   7.868   6.421 -2.0478  1.2299 -0.0449
12342TIP3   OH236966   2.664   6.350   0.267  0.0759  0.0362 -0.3273
12342TIP3    H136967   2.627   6.265   0.289  1.2573 -0.7816 -1.3349
12342TIP3    H236968   2.590   6.410   0.269 -0.8015 -1.0307  0.2880
12343TIP3   OH236969   6.086   6.442   5.968 -0.3773  0.5411 -0.0923
12343TIP3    H136970   5.994   6.421   5.984 -0.4540  1.1220  0.2800
12343TIP3    H236971   6.091   6.537   5.980  0.4636  0.3941  0.8958
12344TIP3   OH236972   3.203   7.368   6.100 -0.0147 -0.1814  0.0510
12344TIP3    H136973   3.192   7.277   6.072 -1.6150 -0.5488  1.6736
12344TIP3    H236974   3.145   7.377   6.176  0.6869  1.9898  0.4046
12345TIP3   OH236975   6.604   5.385   0.940 -0.1730  0.2288 -0.1198
12345TIP3    H136976   6.689   5.428   0.952  0.5853 -1.2687  0.0100
12345TIP3    H236977   6.591   5.384   0.845 -0.1454  0.6174 -0.1305
12346TIP3   OH236978   4.617   0.714   1.550  0.2298 -0.4066  0.0092
12346TIP3    H136979   4.673   0.678   1.481 -0.4251 -0.1622 -0.6743
12346TIP3    H236980   4.647   0.804   1.561  0.2376 -0.3995 -0.0687
12347TIP3   OH236981   8.183   3.013   3.766  0.5502 -0.3182 -0.0726
12347TIP3    H136982   8.270   3.008   3.805  1.4199  1.3865 -1.5947
12347TIP3    H236983   8.184   2.948   3.696  1.0535  0.4241 -0.7883
12348TIP3   OH236984   0.778   3.977   1.720  0.0248 -0.0873  0.1544
12348TIP3    H136985   0.818   3.908   1.667  1.4427 -0.1852  1.2920
12348TIP3    H236986   0.852   4.019   1.765 -1.1854 -0.8349  3.0341
12349TIP3   OH236987   5.215   4.133   4.675 -0.3042 -0.5682 -0.6324
12349TIP3    H136988   5.260   4.109   4.594  0.9997 -0.2344 -0.0308
12349TIP3    H236989   5.272   4.101   4.744 -2.4010 -2.6971  0.2095
12350TIP3   OH236990   7.968   5.150   2.115 -0.0025 -0.2125  0.7968
12350TIP3    H136991   7.888   5.101   2.136 -1.0267  0.2146 -1.7737
12350TIP3    H236992   8.029   5.085   2.081 -0.4387 -0.0998 -0.2265
12351TIP3   OH236993   3.182   4.814   5.959 -0.4373  0.4159 -0.2796
12351TIP3    H136994   3.269   4.832   5.924  0.5638 -2.0204  0.7113
12351TIP3    H236995   3.197   4.787   6.049 -2.4326  1.6102  0.4639
12352TIP3   OH236996   6.559   2.691   1.312 -0.1932  0.6500 -0.2405
12352TIP3    H136997   6.579   2.782   1.291 -1.6109  0.9988 -0.1472
12352TIP3    H236998   6.528   2.653   1.230 -1.8348  0.9125  0.2118
12353TIP3   OH236999   3.377   6.827   4.364 -0.2289  0.0140 -0.1763
12353TIP3    H137000   3.289   6.836   4.401 -0.1016  1.9903 -0.2187
12353TIP3    H237001   3.408   6.918   4.354  2.1846 -0.6357  0.7304
12354TIP3   OH237002   0.106   7.552   2.749  0.2514  0.6454 -0.4961
12354TIP3    H137003   0.093   7.586   2.837 -0.8780 -0.1865 -0.3308
12354TIP3    H237004   0.121   7.458   2.761  2.6415  0.8876 -1.0002
12355TIP3   OH237005   6.428   4.741   6.450 -0.3022  0.1055 -0.4307
12355TIP3    H137006   6.403   4.667   6.394 -0.4944  2.3179 -3.4587
12355TIP3    H237007   6.347   4.791   6.461  0.3665  1.2428 -0.5987
12356TIP3   OH237008   1.538   0.442   4.201  0.3437  0.2435  0.1280
12356TIP3    H137009   1.597   0.369   4.221  0.8459  0.5971 -0.0469
12356TIP3    H237010   1.452   0.412   4.232  0.4862 -0.5329 -0.1957
12357TIP3   OH237011   7.942   6.357   6.038  0.0801 -0.6606  0.0779
12357TIP3    H137012   7.937   6.265   6.015  0.6655 -0.7734  0.3899
12357TIP3    H237013   8.035   6.378   6.036 -0.0872  0.1057 -0.6817
12358TIP3   OH237014   2.577   6.846   1.111  0.9570 -0.2741 -0.3659
12358TIP3    H137015   2.594   6.939   1.126  0.2957 -0.4253  1.4919
12358TIP3    H237016   2.550   6.842   1.019 -1.5269  1.7844  0.1477
12359TIP3   OH237017   6.733   4.992   3.545 -0.0052  0.0080 -0.3159
12359TIP3    H137018   6.714   5.086   3.542 -1.1363 -0.1195  1.3470
12359TIP3    H237019   6.777   4.974   3.462 -0.6006  1.8240 -1.0861
12360TIP3   OH237020   8.035   1.131   6.097  0.4259  0.0639  0.3526
12360TIP3    H137021   8.085   1.056   6.129 -0.3445 -1.2147 -1.2849
12360TIP3    H237022   7.965   1.143   6.161 -0.1934 -1.4659  0.0128
12361TIP3   OH237023   0.964   4.496   2.928 -0.4324  0.4611 -0.2683
12361TIP3    H137024   0.991   4.525   3.015 -0.3997  1.4659 -0.5979
12361TIP3    H237025   0.872   4.521   2.922 -0.3266  0.7700 -0.6714
12362TIP3   OH237026   8.267   3.374   3.405 -0.0238  0.2697 -0.8751
12362TIP3    H137027   8.245   3.287   3.437  2.1878 -0.3174 -0.8312
12362TIP3    H237028   8.209   3.433   3.453  0.6360 -0.9008  1.4959
12363TIP3   OH237029   5.365   2.933   0.056  0.2743 -0.1168 -0.1928
12363TIP3    H137030   5.286   2.986   0.043 -0.3770 -0.7887  0.8508
12363TIP3    H237031   5.381   2.891  -0.028 -2.1060 -2.1241  0.2643
12364TIP3   OH237032   8.434   3.517   3.259 -0.0682  0.3587 -0.1276
12364TIP3    H137033   8.349   3.492   3.296 -0.1563 -0.8892 -1.1129
12364TIP3    H237034   8.414   3.589   3.200 -0.3749  0.3560 -0.0293
12365TIP3   OH237035   5.933   7.559   0.376 -0.3105  0.2178 -0.5112
12365TIP3    H137036   5.851   7.589   0.416 -1.5401 -2.4415 -0.7899
12365TIP3    H237037   5.934   7.465   0.394  3.3622  0.3406  0.5754
12366TIP3   OH237038   0.901   1.236   2.864 -0.3032  0.1498  0.3174
12366TIP3    H137039   0.832   1.205   2.922 -0.2936 -0.8421 -0.1785
12366TIP3    H237040   0.922   1.160   2.809  1.0369  0.4925  0.3215
12367TIP3   OH237041   0.060   3.897   1.219 -0.3954  0.0885  0.1096
12367TIP3    H137042  -0.010   3.910   1.155 -0.7301  0.0416  0.4618
12367TIP3    H237043   0.137   3.878   1.166 -0.3368  1.4498 -0.3511
12368TIP3   OH237044   3.393   1.924   1.361 -0.3143  0.0830 -0.0266
12368TIP3    H137045   3.396   1.927   1.456 -0.6981 -1.3404  0.0499
12368TIP3    H237046   3.474   1.967   1.332 -0.9881  2.0471  0.8809
12369TIP3   OH237047   5.147   5.538   2.047  0.6430  0.3476  0.2032
12369TIP3    H137048   5.180   5.466   1.992 -1.9593  0.6188 -1.9147
12369TIP3    H237049   5.175   5.617   2.002  2.3917  0.7214  1.8392
12370TIP3   OH237050   1.856   7.156   2.645  0.0443 -0.3257  0.0282
12370TIP3    H137051   1.882   7.063   2.647  0.4632 -0.2131 -0.0407
12370TIP3    H237052   1.873   7.183   2.555  1.7813  0.3275  0.5111
12371TIP3   OH237053   2.576   0.109   1.848  0.2800 -0.1747 -0.2071
12371TIP3    H137054   2.639   0.115   1.920 -0.7635 -0.1099  0.7237
12371TIP3    H237055   2.574   0.197   1.811 -0.0273  0.0997  0.4353
12372TIP3   OH237056   4.688   5.513   1.178 -0.2500  0.3572 -0.5182
12372TIP3    H137057   4.632   5.574   1.131  0.3084  0.1361 -1.4818
12372TIP3    H237058   4.722   5.454   1.111  1.1341  0.4866  0.0311
12373TIP3   OH237059   4.235   3.848   0.662 -0.1482 -0.1184 -0.2850
12373TIP3    H137060   4.322   3.811   0.678  0.0020  0.4328  0.2012
12373TIP3    H237061   4.190   3.838   0.746  0.2104  1.6307  0.1569
12374TIP3   OH237062   4.262   5.234   2.578 -0.5350  0.3300 -0.1020
12374TIP3    H137063   4.321   5.198   2.645 -0.6367  0.5816  0.1250
12374TIP3    H237064   4.183   5.180   2.585  0.2831 -1.1358 -1.5746
12375TIP3   OH237065   3.691   5.090   6.658  0.5179 -0.0317  0.4592
12375TIP3    H137066   3.689   5.024   6.589  1.3585  0.3872  0.0242
12375TIP3    H237067   3.647   5.166   6.620  3.2025  1.0963 -0.5992
12376TIP3   OH237068   2.954   4.708   3.256  0.3883 -0.6182  0.0180
12376TIP3    H137069   3.026   4.755   3.298 -1.6792  1.8280  1.1341
12376TIP3    H237070   2.930   4.763   3.181 -0.4830 -1.2155 -0.1570
12377TIP3   OH237071   2.918   4.080   4.116 -0.2433  0.0556 -0.3026
12377TIP3    H137072   2.834   4.125   4.110  0.5103  1.4303 -1.0925
12377TIP3    H237073   2.930   4.040   4.030 -0.2192 -0.3952 -0.0925
12378TIP3   OH237074   2.692   0.669   4.691  0.0960 -0.2399 -0.1443
12378TIP3    H137075   2.691   0.753   4.645  0.8326 -0.1621 -0.0244
12378TIP3    H237076   2.771   0.626   4.660  0.4784 -0.2875  0.8741
12379TIP3   OH237077   6.193   4.720   4.717  0.5700 -0.1318  0.1553
12379TIP3    H137078   6.118   4.700   4.773 -0.8209  1.1933 -1.1559
12379TIP3    H237079   6.232   4.635   4.698 -1.1977 -0.9656  0.0670
12380TIP3   OH237080   0.688   7.114   5.952  0.4419  0.4132  0.0250
12380TIP3    H137081   0.743   7.183   5.918  0.7323  1.3041  2.1500
12380TIP3    H237082   0.732   7.084   6.032 -1.0216 -0.3625  0.5998
12381TIP3   OH237083   8.358   1.468   4.455 -0.3616  0.5420  0.2524
12381TIP3    H137084   8.269   1.437   4.438  0.5313 -2.6394  0.6880
12381TIP3    H237085   8.391   1.493   4.369 -1.1274  0.1133 -0.1822
12382TIP3   OH237086   8.146   3.639   0.960  0.1498 -0.1252 -0.8970
12382TIP3    H137087   8.065   3.688   0.976  0.7665  1.0710 -1.3103
12382TIP3    H237088   8.123   3.576   0.892 -0.1790  0.9555 -1.8203
12383TIP3   OH237089   1.037   7.401   1.103  0.5783 -0.2347  0.4451
12383TIP3    H137090   1.070   7.490   1.109  3.1024 -0.9448 -1.1747
12383TIP3    H237091   0.951   7.410   1.062  1.5090  1.4072 -1.3270
12384TIP3   OH237092   1.813   6.837   6.680 -0.1351 -0.0555 -0.1879
12384TIP3    H137093   1.735   6.891   6.688 -0.8322 -0.7856 -1.5357
12384TIP3    H237094   1.779   6.747   6.677  0.6331 -0.3266 -1.8210
12385TIP3   OH237095   0.743   5.804   1.914 -0.6372  0.2704  0.1526
12385TIP3    H137096   0.768   5.896   1.917 -0.7710  0.2904  3.3891
12385TIP3    H237097   0.647   5.806   1.907 -0.5869  0.3035 -0.7679
12386TIP3   OH237098   7.281   2.485   6.243 -0.6301  0.8741 -0.1606
12386TIP3    H137099   7.298   2.404   6.290 -1.1805  0.8565  0.0192
12386TIP3    H237100   7.358   2.498   6.188 -0.3264  0.4851  0.1686
12387TIP3   OH237101   7.076   6.078   4.910  0.1504  0.1142 -0.8748
12387TIP3    H137102   7.001   6.054   4.856 -1.0729 -1.4002  1.3689
12387TIP3    H237103   7.108   5.996   4.947  1.8300  0.9281 -0.3728
12388TIP3   OH237104   7.228   6.924   2.413 -0.1849 -0.7861  0.1971
12388TIP3    H137105   7.239   6.832   2.435  1.2952 -0.8709 -0.7896
12388TIP3    H237106   7.138   6.930   2.380 -0.5325 -1.7220  0.9300
12389TIP3   OH237107   5.680   5.737   3.391 -0.0692 -0.0021 -0.2501
12389TIP3    H137108   5.644   5.729   3.303 -0.1813  0.6714 -0.2690
12389TIP3    H237109   5.633   5.671   3.442 -0.0120 -0.3903 -0.6814
12390TIP3   OH237110   7.907   1.138   0.233 -0.6243  0.9418  0.0832
12390TIP3    H137111   7.874   1.165   0.319  0.2252  2.6093 -0.0717
12390TIP3    H237112   7.878   1.047   0.224  0.2692  0.3031  2.6458
12391TIP3   OH237113   1.917   3.189   1.691 -1.2149  0.1358 -0.0561
12391TIP3    H137114   1.979   3.236   1.747 -0.7739  0.3658 -0.7326
12391TIP3    H237115   1.832   3.225   1.717 -0.9580  0.7184  0.0129
12392TIP3   OH237116   3.960   1.730   4.316 -0.3808  0.7256  0.1842
12392TIP3    H137117   4.014   1.695   4.387  0.1659  1.3341  0.0696
12392TIP3    H237118   3.871   1.701   4.338 -0.0697  0.0470  0.5759
12393TIP3   OH237119   5.791   6.980   0.074 -0.1132  0.1713  0.3073
12393TIP3    H137120   5.847   6.928   0.130  0.1478 -0.4485 -0.5192
12393TIP3    H237121   5.739   7.033   0.134 -0.7465 -1.4039  1.1831
12394TIP3   OH237122   3.473   5.137   0.523 -0.2531  0.3280 -0.0657
12394TIP3    H137123   3.494   5.045   0.509  0.5460  0.5092 -0.0904
12394TIP3    H237124   3.494   5.180   0.440 -0.9482  0.4801 -0.1673
12395TIP3   OH237125   5.306   2.231   1.794 -0.0230  0.1466 -0.1805
12395TIP3    H137126   5.338   2.220   1.705 -0.6167  0.1781 -0.4023
12395TIP3    H237127   5.365   2.177   1.847 -1.0500 -1.7628 -0.8797
12396TIP3   OH237128   6.018   0.395   6.684  0.6774  0.7911 -0.9312
12396TIP3    H137129   5.985   0.427   6.769  3.7564 -1.1302  1.1852
12396TIP3    H237130   6.092   0.453   6.664  1.5747 -0.3150 -0.9182
12397TIP3   OH237131   3.817   4.941   0.144  0.6354  0.6029  0.1520
12397TIP3    H137132   3.848   4.851   0.134  1.4946  0.6950  1.6291
12397TIP3    H237133   3.747   4.936   0.209 -0.0245  0.8918 -0.5097
12398TIP3   OH237134   5.268   7.539   1.434 -0.1182  0.3802  0.2013
12398TIP3    H137135   5.328   7.578   1.497  0.9522  0.2500 -0.7059
12398TIP3    H237136   5.296   7.447   1.428 -0.3057  0.3515 -0.3407
12399TIP3   OH237137   1.134   2.997   4.367  0.4621  0.1037 -0.7038
12399TIP3    H137138   1.209   2.937   4.362  1.5717  1.3964 -0.3363
12399TIP3    H237139   1.070   2.961   4.306 -0.3261 -3.3008  1.8099
12400TIP3   OH237140   4.311   7.917   5.028 -0.1405 -0.0137  0.3413
12400TIP3    H137141   4.374   7.926   4.956  0.6128  0.7015  1.0704
12400TIP3    H237142   4.295   7.822   5.034 -0.0252 -0.1037 -0.5920
12401TIP3   OH237143   6.965   2.143   5.258  0.1238  0.6881  0.3160
12401TIP3    H137144   7.027   2.157   5.330  1.1968 -0.7633 -0.2744
12401TIP3    H237145   6.984   2.054   5.228 -2.3480  0.1406  0.1892
12402TIP3   OH237146   5.095   7.761   3.855 -0.1595  0.7402  0.0090
12402TIP3    H137147   5.174   7.793   3.811  1.2793 -3.0557 -0.5364
12402TIP3    H237148   5.038   7.731   3.784 -0.4684  0.0699  0.5293
12403TIP3   OH237149   1.574   1.749   4.641  0.4250  0.2618  0.2176
12403TIP3    H137150   1.615   1.769   4.557  0.9400  0.3507  0.4869
12403TIP3    H237151   1.481   1.738   4.620  0.8553 -2.0824 -0.7441
12404TIP3   OH237152   4.221   1.451   4.104 -0.1778 -0.4938  0.5388
12404TIP3    H137153   4.214   1.547   4.101 -1.3471 -0.5615 -2.5147
12404TIP3    H237154   4.213   1.430   4.197 -0.2305  2.3316  1.2915
12405TIP3   OH237155   4.995   1.881   3.320 -0.6013 -0.5821  0.1262
12405TIP3    H137156   4.992   1.792   3.287 -0.3786 -1.1607  1.6051
12405TIP3    H237157   5.067   1.882   3.383 -1.9044  0.0639  1.6878
12406TIP3   OH237158   6.066   6.335   5.186  0.2233  0.2107 -0.5507
12406TIP3    H137159   6.003   6.363   5.252  1.1376 -0.5540  0.6809
12406TIP3    H237160   6.020   6.348   5.103 -0.9786  1.1283  0.2155
12407TIP3   OH237161   1.867   4.164   4.325 -0.6118  0.2585 -0.1177
12407TIP3    H137162   1.922   4.195   4.253 -0.2421  0.5815  0.2986
12407TIP3    H237163   1.887   4.071   4.332 -0.0745  0.3831  0.0626
12408TIP3   OH237164   5.747   1.404   2.738 -0.1341  0.1895  0.1272
12408TIP3    H137165   5.724   1.392   2.830 -0.8903  4.4737  0.6972
12408TIP3    H237166   5.835   1.441   2.739 -1.2692  3.1977 -0.4843
12409TIP3   OH237167   5.958   2.369   5.233 -0.5854  0.2564 -0.1275
12409TIP3    H137168   5.940   2.450   5.282  0.0433  1.5736 -1.9480
12409TIP3    H237169   5.874   2.344   5.195 -0.2490  1.9784 -2.2239
12410TIP3   OH237170   0.072   7.566   3.384 -0.4603  0.1072 -0.3402
12410TIP3    H137171   0.014   7.505   3.338  0.9876 -0.5894 -1.2913
12410TIP3    H237172   0.090   7.524   3.468 -0.2029 -0.3248 -0.6157
12411TIP3   OH237173   7.459   6.448   3.613 -0.7614  0.1602  0.2228
12411TIP3    H137174   7.528   6.514   3.625 -0.2240  0.0555 -1.9123
12411TIP3    H237175   7.401   6.461   3.688  0.3871  1.7387  0.9134
12412TIP3   OH237176   0.342   7.156   0.059  0.1906 -0.3090 -0.5521
12412TIP3    H137177   0.418   7.108   0.028 -0.6205 -1.1700 -1.2623
12412TIP3    H237178   0.302   7.191  -0.021 -1.3518 -1.6878 -0.4410
12413TIP3   OH237179   3.088   2.112   1.239  1.2063  0.0938  0.0409
12413TIP3    H137180   3.054   2.176   1.177 -1.6006  0.1977  1.5509
12413TIP3    H237181   3.151   2.161   1.292  0.4379  1.1242  0.0160
12414TIP3   OH237182   1.645   3.036   5.702 -0.1057  0.7583 -0.9060
12414TIP3    H137183   1.645   2.964   5.765 -1.4496  1.0879 -0.4951
12414TIP3    H237184   1.737   3.064   5.699 -0.1936  1.8452  2.2530
12415TIP3   OH237185   3.824   0.516   3.392 -0.1766 -0.0199 -0.0816
12415TIP3    H137186   3.866   0.595   3.358  1.2520 -0.1407  1.2999
12415TIP3    H237187   3.887   0.481   3.455 -0.5097 -2.5790 -1.0747
12416TIP3   OH237188   0.172   7.650   1.175  0.4177 -0.5247 -0.2788
12416TIP3    H137189   0.114   7.687   1.242  0.9679  0.8827 -0.5328
12416TIP3    H237190   0.115   7.595   1.122 -0.2174 -0.9283  0.7961
12417TIP3   OH237191   7.070   6.617   6.669 -0.6656 -0.0218  0.1426
12417TIP3    H137192   7.074   6.632   6.575 -1.0174  0.0797  0.1423
12417TIP3    H237193   7.005   6.548   6.679 -0.5865 -0.0730  0.3080
12418TIP3   OH237194   6.249   2.757   0.731  0.0846  0.1868  0.0922
12418TIP3    H137195   6.206   2.672   0.748 -1.5498  0.7094 -1.1666
12418TIP3    H237196   6.271   2.755   0.638  1.3082  0.6273  0.3528
12419TIP3   OH237197   0.601   4.063   3.544  0.0755  0.0077  0.1582
12419TIP3    H137198   0.525   4.067   3.602 -1.2361  1.0098 -1.5226
12419TIP3    H237199   0.633   3.974   3.553 -1.1551 -0.3753  1.0993
12420TIP3   OH237200   4.389   0.341   1.649  0.0823 -0.0511 -0.5126
12420TIP3    H137201   4.351   0.258   1.679 -0.8542  0.4586 -0.2670
12420TIP3    H237202   4.386   0.336   1.554 -2.1286  0.6367 -0.5341
12421TIP3   OH237203   0.913   7.924   0.729 -0.2665 -0.0682 -0.0977
12421TIP3    H137204   0.953   7.859   0.786  2.2306  1.4134 -0.0363
12421TIP3    H237205   0.899   7.877   0.646  0.5281 -0.9590  0.2522
12422TIP3   OH237206   6.701   7.527   5.118 -0.3178  0.5963 -0.7995
12422TIP3    H137207   6.769   7.533   5.185 -1.2023 -0.4073  0.2459
12422TIP3    H237208   6.712   7.440   5.080 -2.4228 -0.6055  1.0709
12423TIP3   OH237209   3.961   7.885   5.726  0.2948  0.0965 -0.1603
12423TIP3    H137210   3.893   7.951   5.716 -0.5498 -0.4815  1.4196
12423TIP3    H237211   4.030   7.912   5.665 -0.1689  2.2357  0.1818
12424TIP3   OH237212   5.875   5.843   1.314  0.1546 -0.7045  0.0414
12424TIP3    H137213   5.961   5.874   1.342  0.2305 -0.5741 -0.3303
12424TIP3    H237214   5.841   5.794   1.389  0.4377 -0.5266  0.2852
12425TIP3   OH237215   1.307   7.507   1.484  0.2923  0.5021 -0.3928
12425TIP3    H137216   1.379   7.454   1.448  0.6372 -0.0427  1.0219
12425TIP3    H237217   1.263   7.448   1.546 -1.9260  0.5472 -1.8190
12426TIP3   OH237218   7.819   3.071   1.583  0.3929 -0.0391  0.0524
12426TIP3    H137219   7.754   3.021   1.534  1.0311 -1.9554  1.0464
12426TIP3    H237220   7.896   3.014   1.587  1.4984  1.4095  0.4893
12427TIP3   OH237221   2.699   3.733   3.219  0.4170  0.5748 -0.3419
12427TIP3    H137222   2.765   3.777   3.166  2.9251 -0.2969  1.8091
12427TIP3    H237223   2.701   3.642   3.190  0.4888  0.4608  0.0102
12428TIP3   OH237224   0.721   3.715   5.106 -0.5169 -0.1296  0.3192
12428TIP3    H137225   0.677   3.671   5.033  1.4013 -0.1226 -0.9065
12428TIP3    H237226   0.677   3.681   5.184 -1.9203 -0.9429 -0.7638
12429TIP3   OH237227   5.686   3.327   0.494 -0.2281  0.0968  0.1047
12429TIP3    H137228   5.668   3.416   0.524 -0.9182  0.1615 -0.4757
12429TIP3    H237229   5.775   3.331   0.459  0.5238  0.0672  1.8992
12430TIP3   OH237230   6.926   4.066   4.228 -0.4051  0.3597  0.6809
12430TIP3    H137231   6.839   4.027   4.234 -0.2938 -0.0057  0.0270
12430TIP3    H237232   6.953   4.051   4.137 -0.9950  3.3127 -0.0837
12431TIP3   OH237233   2.434   2.834   1.567  0.2866 -0.0964  0.2075
12431TIP3    H137234   2.361   2.777   1.542  0.7827  0.1345 -1.8858
12431TIP3    H237235   2.509   2.775   1.575  0.4469  0.0375 -0.3112
12432TIP3   OH237236   3.745   6.402   3.302  0.2076 -0.1634 -0.3795
12432TIP3    H137237   3.660   6.436   3.277 -0.4799 -0.2944  1.5672
12432TIP3    H237238   3.742   6.309   3.277  0.4508  0.1867 -1.8079
12433TIP3   OH237239   1.309   7.332   5.511 -0.0768 -0.5200 -0.3674
12433TIP3    H137240   1.236   7.270   5.518 -0.1445 -0.3171  1.0358
12433TIP3    H237241   1.317   7.370   5.599  1.3325 -0.0952 -0.6520
12434TIP3   OH237242   5.190   2.619   4.459  0.2251 -0.7135  0.4817
12434TIP3    H137243   5.100   2.648   4.472  0.6119  1.2457 -0.7362
12434TIP3    H237244   5.242   2.680   4.512  0.9019 -1.1629  0.3361
12435TIP3   OH237245   1.459   7.313   2.704 -0.6860 -0.0800  0.3402
12435TIP3    H137246   1.478   7.220   2.693 -1.2321 -0.1884  0.2555
12435TIP3    H237247   1.475   7.331   2.796 -0.8342 -0.3232  0.4145
12436TIP3   OH237248   4.503   6.125   6.829 -0.0072 -0.3704  0.2644
12436TIP3    H137249   4.515   6.155   6.919 -3.4217  1.2344  0.3416
12436TIP3    H237250   4.520   6.203   6.775 -1.1700 -0.3864 -0.1633
12437TIP3   OH237251   5.382   1.646   0.808 -0.2746  0.3857 -0.1472
12437TIP3    H137252   5.453   1.617   0.865 -0.1671  0.5409 -0.2023
12437TIP3    H237253   5.302   1.630   0.858 -0.3466 -1.4839 -0.7486
12438TIP3   OH237254   7.769   3.955   1.252 -0.4150  0.3487 -0.1889
12438TIP3    H137255   7.724   3.966   1.335  1.0764 -0.8994  0.8422
12438TIP3    H237256   7.699   3.936   1.189 -1.6892  2.5260  0.4801
12439TIP3   OH237257   5.056   5.775   4.804  0.6053  0.2027 -0.3916
12439TIP3    H137258   4.974   5.761   4.851  0.9735  0.0350  0.2100
12439TIP3    H237259   5.089   5.687   4.786  0.6429  0.2690 -0.6526
12440TIP3   OH237260   5.098   0.069   5.883 -0.0544  0.1459  0.0757
12440TIP3    H137261   5.028   0.127   5.913  2.2049  2.3249  1.4893
12440TIP3    H237262   5.154   0.058   5.959  2.3965  0.4259 -1.5801
12441TIP3   OH237263   3.243   3.188   4.548  0.6931 -0.1321  0.0091
12441TIP3    H137264   3.161   3.207   4.593  0.5659 -1.7743  0.5477
12441TIP3    H237265   3.241   3.243   4.470 -1.2934 -0.6982 -0.3935
12442TIP3   OH237266   0.475   5.300   4.705  0.5933  0.3638 -0.1633
12442TIP3    H137267   0.551   5.312   4.762 -0.3292  0.1883  1.1567
12442TIP3    H237268   0.441   5.214   4.728  1.0668 -0.3796 -2.0866
12443TIP3   OH237269   7.317   4.554   2.948 -0.0576  0.2029  0.4510
12443TIP3    H137270   7.381   4.625   2.940  1.7697 -1.0574  2.6323
12443TIP3    H237271   7.362   4.478   2.913 -1.6728 -0.1014 -1.0573
12444TIP3   OH237272   7.356   6.391   4.782 -0.3112 -0.1998  0.0770
12444TIP3    H137273   7.368   6.322   4.718 -1.1684 -0.0317 -0.2815
12444TIP3    H237274   7.340   6.470   4.730 -2.1263 -0.2698  0.4740
12445TIP3   OH237275   4.131   2.295   2.809  0.0862  0.1014 -1.0056
12445TIP3    H137276   4.218   2.337   2.808 -0.1635  0.7194  0.6091
12445TIP3    H237277   4.104   2.298   2.901 -1.1714 -1.1041 -1.3086
12446TIP3   OH237278   2.118   5.265   2.183 -0.1716  0.2334 -0.0401
12446TIP3    H137279   2.064   5.206   2.130  0.4055  1.0125 -1.5565
12446TIP3    H237280   2.094   5.245   2.273 -1.0514 -1.2809 -0.5755
12447TIP3   OH237281   1.634   5.516   6.307  0.5357  0.1688 -0.1957
12447TIP3    H137282   1.615   5.456   6.379  0.3473 -4.1411 -3.4388
12447TIP3    H237283   1.727   5.539   6.318  0.4583 -0.2503  1.4679
12448TIP3   OH237284   7.657   3.603   5.281  0.0058  0.2810  0.7493
12448TIP3    H137285   7.612   3.556   5.211  0.3221  0.2610  0.5596
12448TIP3    H237286   7.726   3.544   5.311 -1.4961 -0.6411  2.5999
12449TIP3   OH237287   1.774   2.580   2.761 -0.6938  0.0854 -0.4258
12449TIP3    H137288   1.817   2.621   2.835  0.1215 -0.5906 -0.4990
12449TIP3    H237289   1.714   2.517   2.799 -0.8160  0.2622 -0.3292
12450TIP3   OH237290   1.233   3.358   2.319  0.1729  0.5661  0.4275
12450TIP3    H137291   1.196   3.286   2.369  2.5971 -0.7071  0.5426
12450TIP3    H237292   1.246   3.323   2.231 -0.7451  1.6287 -0.1529
12451TIP3   OH237293   6.987   7.553   5.236  0.0425 -0.3772 -0.1432
12451TIP3    H137294   6.978   7.640   5.274  0.7446 -1.2349  2.1596
12451TIP3    H237295   6.998   7.569   5.142 -0.9544  1.9211  0.0653
12452TIP3   OH237296   6.195   7.085   2.623  0.6169  0.1754 -0.0101
12452TIP3    H137297   6.262   7.018   2.635  0.2074 -0.4369 -1.0575
12452TIP3    H237298   6.112   7.039   2.635  0.3429  0.6426 -0.0700
12453TIP3   OH237299   5.526   5.260   4.570  0.1539 -0.1220  0.0470
12453TIP3    H137300   5.479   5.185   4.535 -0.5919  0.5801 -0.4637
12453TIP3    H237301   5.598   5.274   4.509 -0.3405  0.2465 -0.4576
12454TIP3   OH237302   8.319   6.497   4.347  0.4113  0.0457  0.1173
12454TIP3    H137303   8.347   6.470   4.435 -0.5936  0.6961  0.6458
12454TIP3    H237304   8.344   6.424   4.291  4.3089  1.0104  0.2994
12455TIP3   OH237305   5.210   6.786   1.299 -0.1092  0.2646 -0.1161
12455TIP3    H137306   5.241   6.876   1.288 -2.9196  1.4249  0.5256
12455TIP3    H237307   5.139   6.777   1.236 -0.9644 -0.9204  0.9610
12456TIP3   OH237308   0.791   0.713   5.451  0.3369 -0.2167  0.3481
12456TIP3    H137309   0.781   0.686   5.359  0.1636  0.3843  0.1858
12456TIP3    H237310   0.788   0.809   5.448  1.0334 -0.1737  0.9027
12457TIP3   OH237311   3.955   3.910   0.155  0.4067  0.2569  0.2720
12457TIP3    H137312   4.039   3.919   0.110 -0.4877 -0.1641 -1.5921
12457TIP3    H237313   3.937   3.998   0.189  2.0990  0.0903  1.7053
12458TIP3   OH237314   7.331   4.090   4.608 -0.4404  0.4206 -0.0778
12458TIP3    H137315   7.352   4.167   4.660 -0.8121  0.5444 -0.1091
12458TIP3    H237316   7.237   4.077   4.620 -0.6963  0.9303 -1.3471
12459TIP3   OH237317   7.470   4.046   2.466 -0.7061 -0.1459 -0.7856
12459TIP3    H137318   7.487   3.952   2.455 -0.6498  0.0298 -2.5790
12459TIP3    H237319   7.549   4.088   2.431  0.0294  0.5896  1.6038
12460TIP3   OH237320   4.192   0.969   5.350  0.2353 -0.4291 -0.3928
12460TIP3    H137321   4.125   1.023   5.308  1.3106  0.1290 -1.4817
12460TIP3    H237322   4.144   0.897   5.390 -1.0725  0.3790 -0.4420
12461TIP3   OH237323   7.961   1.425   4.541 -0.3931  0.0397  0.4817
12461TIP3    H137324   7.888   1.364   4.553 -1.8787  1.2705 -1.6032
12461TIP3    H237325   8.010   1.389   4.467 -0.5973  0.7468 -0.0011
12462TIP3   OH237326   3.591   7.050   0.864  0.1111  0.2301 -0.6609
12462TIP3    H137327   3.662   6.988   0.850 -0.4447 -0.4254 -0.6119
12462TIP3    H237328   3.631   7.121   0.914  0.6669 -0.2583 -0.3995
12463TIP3   OH237329   6.255   7.876   1.950  0.0514 -0.2960  0.1818
12463TIP3    H137330   6.165   7.909   1.956  0.1968  0.2638 -0.5935
12463TIP3    H237331   6.310   7.951   1.971  0.3446 -0.6420  0.6708
12464TIP3   OH237332   6.245   6.555   6.668  0.2183 -0.3038  0.2041
12464TIP3    H137333   6.291   6.613   6.608  0.1807 -1.6582 -1.2140
12464TIP3    H237334   6.314   6.504   6.710  0.1816 -0.0996  0.5164
12465TIP3   OH237335   6.157   7.388   5.840  0.3234  0.2285  0.2650
12465TIP3    H137336   6.222   7.446   5.880 -0.5492  0.7652  0.9495
12465TIP3    H237337   6.077   7.441   5.836 -0.0639 -0.3878 -0.6312
12466TIP3   OH237338   6.383   3.901   2.449 -0.5683 -0.3031  0.5288
12466TIP3    H137339   6.413   3.984   2.486 -0.1064  1.0286 -2.5365
12466TIP3    H237340   6.289   3.912   2.437 -0.7019 -0.6929  1.1964
12467TIP3   OH237341   6.200   3.875   0.929  0.4471 -0.3725  0.3543
12467TIP3    H137342   6.229   3.917   1.010 -0.1113 -1.8091  1.3357
12467TIP3    H237343   6.105   3.876   0.934  0.3039  1.4148 -1.3283
12468TIP3   OH237344   1.976   0.856   5.507 -0.0894  0.3767 -0.2478
12468TIP3    H137345   1.995   0.812   5.590  1.8781  0.7363 -0.4728
12468TIP3    H237346   2.036   0.816   5.444 -1.1547  0.5166 -1.3840
12469TIP3   OH237347   4.051   0.930   2.651  0.3027 -0.2752 -0.2201
12469TIP3    H137348   3.962   0.918   2.683  0.9212  0.6198  2.0063
12469TIP3    H237349   4.107   0.901   2.723  1.7878  1.5025 -0.5607
12470TIP3   OH237350   7.931   0.966   0.678  0.5665 -0.0294  0.3661
12470TIP3    H137351   7.922   0.908   0.754  1.0513 -3.3461 -1.9048
12470TIP3    H237352   7.853   0.948   0.625  1.0091  1.0241 -0.6846
12471TIP3   OH237353   7.756   2.602   0.093  0.4257 -0.4790 -0.2805
12471TIP3    H137354   7.843   2.631   0.122  0.2279  2.1944 -1.9941
12471TIP3    H237355   7.774   2.547   0.017  0.6524 -0.2789 -0.3750
12472TIP3   OH237356   8.348   2.857   0.713 -0.3225  0.0792 -0.0136
12472TIP3    H137357   8.274   2.904   0.675  0.4142 -0.7170 -2.6776
12472TIP3    H237358   8.409   2.926   0.740 -0.1000  0.7523 -2.0466
12473TIP3   OH237359   0.305   1.859   4.604  0.2114 -0.2771 -0.3421
12473TIP3    H137360   0.221   1.816   4.591  0.6536 -0.9404 -1.1044
12473TIP3    H237361   0.359   1.794   4.649  0.3203  0.1567  0.1755
12474TIP3   OH237362   2.202   6.725   4.086  0.3055 -0.0705  0.5781
12474TIP3    H137363   2.150   6.772   4.151  0.1612  1.3855 -0.5483
12474TIP3    H237364   2.289   6.718   4.125  0.8914  2.9303  0.0233
12475TIP3   OH237365   5.668   7.021   1.710 -0.4341  0.2500  0.5208
12475TIP3    H137366   5.743   7.046   1.657 -1.1122 -0.4198 -0.8097
12475TIP3    H237367   5.602   6.994   1.646 -1.1987 -0.8102  1.7194
12476TIP3   OH237368   7.984   5.806   1.304  0.0308 -0.0799 -0.1371
12476TIP3    H137369   8.035   5.848   1.373  0.2101  0.2454 -0.4657
12476TIP3    H237370   7.945   5.879   1.255  0.2911 -0.2971 -0.6732
12477TIP3   OH237371   3.570   5.632   5.475 -0.0219 -0.2541 -0.2104
12477TIP3    H137372   3.536   5.555   5.523  0.2138 -0.2126  0.0278
12477TIP3    H237373   3.512   5.641   5.400 -0.3630 -0.3593  0.0372
12478TIP3   OH237374   6.865   7.369   2.314 -0.4229 -0.3057 -0.2821
12478TIP3    H137375   6.836   7.300   2.255 -1.6977 -0.9119  0.9970
12478TIP3    H237376   6.787   7.423   2.328  0.3125  0.8501 -0.5027
12479TIP3   OH237377   1.107   0.237   1.445  0.4831  0.0314 -0.5472
12479TIP3    H137378   1.044   0.209   1.379  0.3178 -1.3998  0.1656
12479TIP3    H237379   1.108   0.332   1.439 -0.1794 -0.0321 -1.9918
12480TIP3   OH237380   4.766   2.660   6.362 -0.3359  0.3928 -0.2213
12480TIP3    H137381   4.851   2.680   6.324  0.3170 -2.4128 -0.4693
12480TIP3    H237382   4.778   2.575   6.405 -2.6256  0.6201  1.0511
12481TIP3   OH237383   1.475   1.349   0.736  0.5331  0.5918 -0.7852
12481TIP3    H137384   1.541   1.418   0.737 -0.0369  1.1417 -0.0354
12481TIP3    H237385   1.448   1.340   0.827  1.3799 -1.4083 -0.6668
12482TIP3   OH237386   1.105   7.073   5.461  0.3289 -0.4324  0.3597
12482TIP3    H137387   1.078   7.153   5.416  0.2128 -0.6600  0.0177
12482TIP3    H237388   1.025   7.038   5.498  0.1058 -1.1851 -0.7802
12483TIP3   OH237389   6.374   7.476   2.601 -0.1281 -0.1741 -0.1196
12483TIP3    H137390   6.420   7.549   2.560  0.1663 -0.2854  0.0099
12483TIP3    H237391   6.345   7.422   2.528  0.8426 -0.6405 -0.1727
12484TIP3   OH237392   3.674   7.319   5.553 -0.2055  0.2492 -0.0058
12484TIP3    H137393   3.606   7.365   5.503  0.1767 -1.4893 -2.2614
12484TIP3    H237394   3.629   7.243   5.590  0.3654 -0.6087 -1.0466
12485TIP3   OH237395   8.205   5.249   3.313 -0.2968  0.1775  0.1544
12485TIP3    H137396   8.221   5.283   3.401 -0.6229 -0.4405  0.4616
12485TIP3    H237397   8.135   5.185   3.325  0.6095 -0.9238 -0.3436
12486TIP3   OH237398   3.605   5.182   5.459 -0.0754  0.6311  0.2300
12486TIP3    H137399   3.672   5.114   5.445 -0.2837  0.1602  1.3951
12486TIP3    H237400   3.522   5.137   5.442 -0.1444  0.9527 -0.2771
12487TIP3   OH237401   2.756   4.650   4.872 -0.5443  0.3157 -0.2879
12487TIP3    H137402   2.743   4.701   4.952  0.1725 -0.4637  0.3334
12487TIP3    H237403   2.782   4.563   4.902 -0.6326 -0.0989 -1.3616
12488TIP3   OH237404   3.889   2.947   5.244  0.1624  0.4733 -0.3833
12488TIP3    H137405   3.901   3.028   5.294 -0.5314  0.6000 -0.4097
12488TIP3    H237406   3.804   2.914   5.274  0.3547 -0.1408 -0.5197
12489TIP3   OH237407   3.255   7.395   4.977  0.2519 -0.2925  0.1983
12489TIP3    H137408   3.241   7.487   5.001 -0.4110 -0.2303 -0.3998
12489TIP3    H237409   3.239   7.347   5.059  1.8842  0.1943  0.8503
12490TIP3   OH237410   7.729   5.705   0.681  0.0516  0.1890  0.3659
12490TIP3    H137411   7.747   5.710   0.587 -0.3534  0.8321  0.3142
12490TIP3    H237412   7.637   5.680   0.686  0.8170 -3.0267  0.6251
12491TIP3   OH237413   0.451   2.727   5.518 -0.3666 -0.0051  0.3400
12491TIP3    H137414   0.452   2.634   5.496  0.5191 -0.0208  0.4406
12491TIP3    H237415   0.543   2.752   5.526 -0.5932  0.8693  0.3677
12492TIP3   OH237416   2.778   4.651   2.430  0.2825 -0.2170 -0.3904
12492TIP3    H137417   2.749   4.563   2.452 -0.1572 -0.0410 -0.2449
12492TIP3    H237418   2.697   4.704   2.431  0.6457  0.3623  0.4081
12493TIP3   OH237419   6.708   0.581   4.194  0.0876 -0.1680  0.7430
12493TIP3    H137420   6.701   0.626   4.278 -0.5069 -1.4707  1.4281
12493TIP3    H237421   6.650   0.505   4.203  0.8042 -0.8882 -0.4696
12494TIP3   OH237422   3.952   3.541   0.877  0.0917 -0.1106 -0.7926
12494TIP3    H137423   3.965   3.514   0.786  0.3534 -0.6990 -0.5871
12494TIP3    H237424   4.040   3.539   0.916  0.3079  2.1150 -1.0365
12495TIP3   OH237425   0.660   5.871   6.479 -0.5316 -0.3682  0.1653
12495TIP3    H137426   0.704   5.950   6.511 -0.4783 -0.8501  1.3397
12495TIP3    H237427   0.575   5.902   6.448  0.1773  0.4079 -1.0977
12496TIP3   OH237428   0.309   3.906   3.009 -0.6775  0.2086  0.0795
12496TIP3    H137429   0.385   3.963   3.017 -0.8048  0.4295 -0.2551
12496TIP3    H237430   0.242   3.960   2.966 -0.4307 -0.5202 -1.2773
12497TIP3   OH237431   7.493   4.785   6.338  0.0928  0.2344 -0.1640
12497TIP3    H137432   7.490   4.847   6.410 -0.9256 -1.2077  1.0901
12497TIP3    H237433   7.587   4.773   6.321  0.3150  1.4768  0.1066
12498TIP3   OH237434   3.739   4.817   0.815 -0.3021  0.2203 -0.1121
12498TIP3    H137435   3.735   4.730   0.855 -0.8278  1.1448  2.0041
12498TIP3    H237436   3.762   4.875   0.888  0.0731  1.8607 -1.4782
12499TIP3   OH237437   1.323   6.880   4.700 -0.4987 -0.3458  0.4774
12499TIP3    H137438   1.312   6.975   4.693 -3.2787 -0.6640 -0.8368
12499TIP3    H237439   1.345   6.852   4.611 -2.2620 -1.1278  0.2399
12500TIP3   OH237440   5.868   2.059   3.403 -0.1293  0.0333  0.1079
12500TIP3    H137441   5.870   2.135   3.462 -0.1737  0.1058  0.0172
12500TIP3    H237442   5.910   1.989   3.453  0.8521  0.3901 -0.1887
12501TIP3   OH237443   3.747   1.852   0.249 -0.1276  0.3557  0.6629
12501TIP3    H137444   3.836   1.881   0.230  0.0120 -0.0510  0.6718
12501TIP3    H237445   3.722   1.800   0.173 -0.3225  0.3933  0.7005
12502TIP3   OH237446   5.263   6.283   1.620 -0.8484 -0.2569 -0.2130
12502TIP3    H137447   5.286   6.352   1.558 -1.3082  2.2015  2.1214
12502TIP3    H237448   5.168   6.289   1.627 -0.8234 -0.6315  0.5322
12503TIP3   OH237449   4.377   7.673   5.932 -0.1191 -0.7332  0.1077
12503TIP3    H137450   4.392   7.581   5.953 -1.7627 -0.7381  1.4356
12503TIP3    H237451   4.399   7.720   6.012 -2.1501 -0.2916  0.4658
12504TIP3   OH237452   6.694   5.752   0.424  0.0540  0.6124 -0.0095
12504TIP3    H137453   6.601   5.773   0.427 -0.1874 -0.3790 -0.2675
12504TIP3    H237454   6.720   5.744   0.516 -0.6891 -1.4419  0.0823
12505TIP3   OH237455   6.289   6.021   6.796  0.1173  0.5273 -0.3006
12505TIP3    H137456   6.281   5.975   6.712  0.4840 -1.4757  0.6876
12505TIP3    H237457   6.205   6.006   6.839  0.6111 -0.1101  0.4542
12506TIP3   OH237458   2.764   2.030   6.548  0.2945 -0.9229 -0.1052
12506TIP3    H137459   2.838   1.978   6.517  0.8787  1.1952 -2.6262
12506TIP3    H237460   2.797   2.120   6.548 -2.3146  0.1279 -1.5409
12507TIP3   OH237461   6.372   4.512   0.363  0.3093  0.0087 -0.1386
12507TIP3    H137462   6.373   4.498   0.457 -1.1585 -0.5355 -0.1713
12507TIP3    H237463   6.355   4.606   0.353  1.6432  0.2917  0.1181
12508TIP3   OH237464   0.887   3.475   2.576  0.2056  0.0474 -0.2541
12508TIP3    H137465   0.858   3.398   2.525  0.1265  0.8688 -1.5013
12508TIP3    H237466   0.809   3.530   2.581 -0.7068 -1.2735  3.4032
12509TIP3   OH237467   6.860   0.830   6.517 -0.1672  0.1967  0.3237
12509TIP3    H137468   6.814   0.870   6.592 -0.2703  0.4026  0.1510
12509TIP3    H237469   6.807   0.854   6.441  0.0663  0.1836  0.1569
12510TIP3   OH237470   4.114   5.264   1.491  0.3001 -0.1103 -0.4897
12510TIP3    H137471   4.185   5.319   1.456  2.4479 -1.6614  1.2005
12510TIP3    H237472   4.053   5.326   1.531  1.7618  1.1666 -0.1605
12511TIP3   OH237473   0.223   5.231   1.413  0.0377  0.1420 -0.3052
12511TIP3    H137474   0.221   5.320   1.377  1.7606  0.2185 -0.3051
12511TIP3    H237475   0.170   5.180   1.352 -1.8967  1.3520  0.2985
12512TIP3   OH237476   4.706   1.641   0.503  0.0690  0.4197  0.1301
12512TIP3    H137477   4.611   1.633   0.491  0.2501 -0.0092 -1.1744
12512TIP3    H237478   4.731   1.559   0.546 -0.0369  0.1460 -0.3219
12513TIP3   OH237479   0.863   4.912   1.257  0.3467 -0.1895 -0.5101
12513TIP3    H137480   0.939   4.865   1.223  0.2819  0.3859 -1.4677
12513TIP3    H237481   0.811   4.936   1.180 -1.2301 -1.2461  0.1754
12514TIP3   OH237482   1.878   6.492   0.892 -0.0520 -0.4870 -0.4263
12514TIP3    H137483   1.902   6.580   0.862  0.8401 -1.4443 -2.7129
12514TIP3    H237484   1.848   6.505   0.982  2.1128  1.8576  0.0633
12515TIP3   OH237485   3.035   0.114   5.800 -0.5640  0.3112  0.1259
12515TIP3    H137486   2.984   0.101   5.880 -2.0452  1.1225 -0.6480
12515TIP3    H237487   3.098   0.182   5.822 -0.9550  0.5222  0.6033
12516TIP3   OH237488   6.805   5.678   2.289 -0.2786 -0.0989  0.0129
12516TIP3    H137489   6.720   5.648   2.322 -0.7514  2.1589  1.0406
12516TIP3    H237490   6.868   5.650   2.355 -0.1851 -1.6756 -0.6946
12517TIP3   OH237491   6.859   2.765   5.957  0.6367 -0.1875 -0.1622
12517TIP3    H137492   6.793   2.761   5.888  1.0209  2.7648 -0.8619
12517TIP3    H237493   6.857   2.679   5.998 -2.0252 -0.9240 -1.6210
12518TIP3   OH237494   7.804   1.231   0.729 -0.2248  0.2375  0.7169
12518TIP3    H137495   7.824   1.307   0.784 -2.8569  0.4272  1.5187
12518TIP3    H237496   7.861   1.162   0.762 -0.8794  0.6821  2.9151
12519TIP3   OH237497   2.769   4.703   6.617  0.7618 -0.1151  0.4102
12519TIP3    H137498   2.822   4.668   6.546 -1.4089 -0.7377 -0.9982
12519TIP3    H237499   2.773   4.798   6.606 -1.3703 -0.2054 -2.0996
12520TIP3   OH237500   1.622   1.232   6.130  0.6004  0.2013  0.4113
12520TIP3    H137501   1.606   1.292   6.202  1.5168 -0.5355  1.2422
12520TIP3    H237502   1.664   1.286   6.063  1.3609  0.5093  1.1238
12521TIP3   OH237503   1.404   6.599   5.055  0.0202 -0.5609 -0.4225
12521TIP3    H137504   1.433   6.508   5.053 -0.0770 -0.5898 -2.6593
12521TIP3    H237505   1.400   6.626   4.963  0.4775  1.8462  0.1748
12522TIP3   OH237506   5.108   1.391   4.597 -0.7198 -0.9005 -0.0292
12522TIP3    H137507   5.133   1.319   4.539  0.3142  0.2690 -1.0980
12522TIP3    H237508   5.181   1.400   4.658 -0.4923 -0.3116 -0.3702
12523TIP3   OH237509   1.454   4.007   6.059 -0.7466 -0.0947  0.2546
12523TIP3    H137510   1.530   3.950   6.046 -0.8343  0.2201 -2.0698
12523TIP3    H237511   1.491   4.091   6.087  0.0640  0.7124 -2.8828
12524TIP3   OH237512   0.150   7.589   5.363  0.5918 -0.0600  0.0822
12524TIP3    H137513   0.209   7.630   5.300  1.6188 -2.7178 -0.8138
12524TIP3    H237514   0.062   7.606   5.327  0.8718  2.0680  0.2757
12525TIP3   OH237515   3.652   6.578   1.107 -0.4948  0.1620  0.1469
12525TIP3    H137516   3.709   6.568   1.030 -1.0429  0.1364 -0.2636
12525TIP3    H237517   3.566   6.549   1.076 -1.0114  1.3824  0.3890
12526TIP3   OH237518   8.344   7.661   4.772 -0.2169 -0.1823 -1.1330
12526TIP3    H137519   8.346   7.742   4.823 -0.9514 -0.9967  0.2595
12526TIP3    H237520   8.348   7.690   4.681 -1.4444  1.4920 -0.7090
12527TIP3   OH237521   3.376   4.998   1.338 -0.4353  0.1154  0.4828
12527TIP3    H137522   3.461   4.978   1.377  0.0542 -1.0622 -1.0969
12527TIP3    H237523   3.370   5.093   1.343  0.4981  0.1527  1.5398
12528TIP3   OH237524   1.771   6.711   2.240 -0.0013  0.5792  0.5995
12528TIP3    H137525   1.778   6.678   2.329  2.4693 -0.0615  0.2546
12528TIP3    H237526   1.754   6.634   2.186  2.6265  0.2096  0.1440
12529TIP3   OH237527   3.983   0.184   0.430  0.1508 -0.2984  0.4769
12529TIP3    H137528   3.924   0.112   0.409 -1.0966  1.3683 -2.2658
12529TIP3    H237529   3.936   0.236   0.496 -1.0751  0.4493 -0.9273
12530TIP3   OH237530   7.369   5.802   6.635  0.4891  0.1682  0.2466
12530TIP3    H137531   7.329   5.772   6.716 -0.2497  0.3800 -0.0339
12530TIP3    H237532   7.436   5.736   6.616  1.8301  0.9799  1.8856
12531TIP3   OH237533   1.596   0.689   6.636  0.1325 -0.6081 -0.2818
12531TIP3    H137534   1.685   0.656   6.648  1.2872  2.1099 -0.6733
12531TIP3    H237535   1.546   0.614   6.603  2.3517 -2.0907 -0.4286
12532TIP3   OH237536   4.505   7.455   4.694 -0.3156 -0.0985  0.0421
12532TIP3    H137537   4.499   7.461   4.598 -0.7128  0.0779  0.0774
12532TIP3    H237538   4.578   7.512   4.717 -0.2070 -0.1563 -0.1594
12533TIP3   OH237539   0.866   2.608   0.191 -0.6324  0.0363 -0.1379
12533TIP3    H137540   0.889   2.677   0.129 -1.9738  0.8518  0.2292
12533TIP3    H237541   0.937   2.544   0.183  0.8247  1.5819 -0.2594
12534TIP3   OH237542   3.372   1.936   2.189 -0.6325 -0.0698 -0.2417
12534TIP3    H137543   3.292   1.930   2.242 -0.1182  0.5437  0.6199
12534TIP3    H237544   3.411   1.848   2.196  0.4600  0.5203  2.0922
12535TIP3   OH237545   1.373   2.607   4.131 -0.6721 -0.1305 -0.3315
12535TIP3    H137546   1.345   2.531   4.080  3.0618 -2.0177  0.0823
12535TIP3    H237547   1.392   2.674   4.065 -1.0299 -0.6187 -0.9487
12536TIP3   OH237548   5.854   7.791   1.243  0.6517 -0.2658 -0.2695
12536TIP3    H137549   5.898   7.875   1.240  0.4010 -0.1234  0.0363
12536TIP3    H237550   5.792   7.798   1.316 -0.1462 -0.3329 -0.9257
12537TIP3   OH237551   6.065   2.094   5.521  0.2501 -0.1843 -0.3185
12537TIP3    H137552   6.137   2.032   5.514 -0.2464 -1.1369  2.1087
12537TIP3    H237553   6.102   2.177   5.491  2.0205 -0.8918 -0.1864
12538TIP3   OH237554   2.247   7.355   6.115  0.3418 -0.1986 -0.6983
12538TIP3    H137555   2.229   7.398   6.198 -0.7650  0.4189 -1.2330
12538TIP3    H237556   2.228   7.262   6.131 -1.1785  0.0971 -0.5970
12539TIP3   OH237557   6.852   0.260   2.544 -0.1632 -0.1507 -0.0006
12539TIP3    H137558   6.786   0.217   2.597  0.1656  1.2943  1.6904
12539TIP3    H237559   6.843   0.353   2.565  0.9607  0.3056 -1.3822
12540TIP3   OH237560   5.670   1.132   1.175  0.1011 -0.0385 -0.0939
12540TIP3    H137561   5.678   1.092   1.262 -0.2800 -0.9357 -0.4574
12540TIP3    H237562   5.739   1.197   1.172 -0.4832  0.6830  1.2430
12541TIP3   OH237563   1.652   2.797   3.207  0.1618  0.3451 -0.4430
12541TIP3    H137564   1.681   2.887   3.225  1.0273  0.1199 -0.6392
12541TIP3    H237565   1.708   2.768   3.135  0.8819 -0.8290  0.5289
12542TIP3   OH237566   2.595   0.357   1.743  0.7191  0.2486  0.3748
12542TIP3    H137567   2.661   0.422   1.767  1.2819 -0.9340  2.2454
12542TIP3    H237568   2.528   0.365   1.810  0.9449 -1.2685  0.8286
12543TIP3   OH237569   1.996   0.215   0.465  0.0452  0.0835  0.3701
12543TIP3    H137570   2.083   0.202   0.428 -0.4227 -0.9783 -0.4368
12543TIP3    H237571   1.936   0.192   0.393 -0.8950  0.7819  0.9109
12544TIP3   OH237572   2.394   1.564   0.509  0.5748  0.3165 -0.0371
12544TIP3    H137573   2.420   1.639   0.457  0.5283  0.9000  0.7504
12544TIP3    H237574   2.308   1.539   0.474 -0.3202  1.8621  0.9218
12545TIP3   OH237575   6.198   6.685   1.540 -0.1857  0.4067  0.8940
12545TIP3    H137576   6.181   6.709   1.449 -0.9233  1.0408  1.1810
12545TIP3    H237577   6.127   6.727   1.589 -0.3447 -0.6975  1.6624
12546TIP3   OH237578   4.441   7.619   0.958  0.1784  0.6413  0.0437
12546TIP3    H137579   4.393   7.537   0.968 -0.0246  0.7532  0.0127
12546TIP3    H237580   4.381   7.675   0.908  0.4579  0.6867 -0.2422
12547TIP3   OH237581   4.995   2.922   4.664 -0.0788  0.5074 -0.4815
12547TIP3    H137582   4.996   2.833   4.628 -1.6846  0.1540  0.2994
12547TIP3    H237583   4.906   2.935   4.695  0.9158  1.1881  2.4177
12548TIP3   OH237584   2.129   3.740   1.372 -0.4868 -0.0207 -0.0681
12548TIP3    H137585   2.159   3.730   1.462  0.0594  0.2512 -0.2174
12548TIP3    H237586   2.208   3.730   1.319 -0.6031  0.9904 -0.4509
12549TIP3   OH237587   3.765   4.777   1.591  0.2514 -0.1626  0.0493
12549TIP3    H137588   3.781   4.683   1.580  0.4765 -0.0820 -0.3903
12549TIP3    H237589   3.852   4.814   1.606  0.2710  0.0675 -0.5751
12550TIP3   OH237590   0.676   5.227   6.481 -0.0131 -0.0709  0.0706
12550TIP3    H137591   0.710   5.285   6.549  2.6851 -0.3836 -0.9159
12550TIP3    H237592   0.618   5.167   6.528 -0.1369  1.2246  1.6658
12551TIP3   OH237593   5.555   5.155   5.777  0.1613 -0.1521  0.4878
12551TIP3    H137594   5.637   5.107   5.782  0.5473  0.5052  0.5744
12551TIP3    H237595   5.561   5.219   5.848 -0.0745  0.4325 -0.0128
12552TIP3   OH237596   5.609   0.206   3.968 -0.1804  0.2703 -0.2097
12552TIP3    H137597   5.612   0.295   3.934  0.7227  0.3568  0.0848
12552TIP3    H237598   5.580   0.153   3.893  1.6689  0.4690 -1.1166
12553TIP3   OH237599   3.471   6.422   0.316 -0.2406 -0.1715  0.3560
12553TIP3    H137600   3.436   6.362   0.251  2.0908  0.9050 -2.0577
12553TIP3    H237601   3.535   6.370   0.365 -3.0751 -1.4314  3.0900
12554TIP3   OH237602   3.233   7.364   1.357 -0.1661  0.5246  0.4829
12554TIP3    H137603   3.139   7.377   1.343 -0.4838 -1.0045  0.9831
12554TIP3    H237604   3.263   7.446   1.395 -1.6024  0.5326  1.7045
12555TIP3   OH237605   4.016   5.677   5.602 -0.5997 -0.1058  0.3218
12555TIP3    H137606   3.922   5.694   5.595 -0.6121  0.0087  0.7522
12555TIP3    H237607   4.032   5.602   5.545 -0.8515  0.2355 -0.2048
12556TIP3   OH237608   0.035   5.277   5.401  0.1566 -0.0006  0.3220
12556TIP3    H137609   0.003   5.351   5.349  0.5957 -0.6267 -0.8726
12556TIP3    H237610   0.006   5.296   5.490  0.1897  1.5702  0.0299
12557TIP3   OH237611   1.129   6.412   5.435  0.1355 -0.1421 -0.5153
12557TIP3    H137612   1.058   6.434   5.375 -1.5985 -1.8744  0.7717
12557TIP3    H237613   1.146   6.493   5.483  0.6072  0.8876 -2.3455
12558TIP3   OH237614   6.405   2.887   6.206  0.3575 -1.2012 -0.2804
12558TIP3    H137615   6.488   2.924   6.235  0.0493  0.3436 -1.2075
12558TIP3    H237616   6.408   2.895   6.110 -1.0175 -0.7058 -0.3007
12559TIP3   OH237617   7.038   3.261   3.498  0.2875 -0.1333 -0.4464
12559TIP3    H137618   6.948   3.238   3.477  0.1316 -1.2110  1.1982
12559TIP3    H237619   7.072   3.185   3.546  1.1252  1.3948  1.5263
12560TIP3   OH237620   1.742   4.709   6.367  0.2626 -0.5904 -0.1308
12560TIP3    H137621   1.780   4.707   6.455 -0.9877 -1.6727  0.4187
12560TIP3    H237622   1.789   4.779   6.322 -0.8742  1.9000  2.2648
12561TIP3   OH237623   4.214   4.707   2.327 -0.2643 -0.5519 -0.1916
12561TIP3    H137624   4.283   4.772   2.319 -0.9091  0.2387  0.4553
12561TIP3    H237625   4.258   4.623   2.316  0.9685 -0.1226  1.1232
12562TIP3   OH237626   0.070   4.377   5.466 -0.0606  0.2205  0.1585
12562TIP3    H137627   0.018   4.320   5.523  0.5155 -0.0586  0.4122
12562TIP3    H237628   0.136   4.320   5.428 -0.3057  0.4542 -0.6291
12563TIP3   OH237629   2.645   5.601   2.991  0.6949 -0.2082  0.8636
12563TIP3    H137630   2.566   5.554   2.965  1.5464 -0.7298 -0.9178
12563TIP3    H237631   2.618   5.654   3.067 -2.4131  2.5341 -1.8595
12564TIP3   OH237632   3.197   5.376   5.167  0.3012  0.7544 -0.6895
12564TIP3    H137633   3.167   5.292   5.130 -0.3487  1.4161 -1.7211
12564TIP3    H237634   3.142   5.390   5.243 -1.3064  1.4080 -1.9242
12565TIP3   OH237635   4.126   1.954   0.860  0.5874 -0.0751  0.1109
12565TIP3    H137636   4.116   1.959   0.765  1.3559  0.7749  0.0563
12565TIP3    H237637   4.220   1.966   0.875  0.2131  2.0986  1.0700
12566TIP3   OH237638   6.271   3.240   1.484  0.0003  0.4008 -0.4440
12566TIP3    H137639   6.289   3.313   1.543  1.8866  1.4751 -2.2302
12566TIP3    H237640   6.197   3.270   1.431 -1.4530 -0.4183  1.0263
12567TIP3   OH237641   3.324   7.040   0.622  0.4564 -0.2828  0.2988
12567TIP3    H137642   3.415   7.065   0.608  0.7216 -0.6097  1.4089
12567TIP3    H237643   3.322   7.001   0.709 -0.9264  0.6068  0.6932
12568TIP3   OH237644   1.102   0.697   6.225  0.2558 -0.4186  0.2609
12568TIP3    H137645   1.044   0.653   6.287  1.0744 -0.7528  0.7927
12568TIP3    H237646   1.160   0.750   6.279 -0.1099  0.6057 -0.3171
12569TIP3   OH237647   5.325   5.462   4.569  0.0448 -0.2573  0.0169
12569TIP3    H137648   5.400   5.403   4.569 -0.5034 -0.9835 -0.7495
12569TIP3    H237649   5.332   5.510   4.486 -0.2475 -0.2151  0.0160
12570TIP3   OH237650   7.202   1.490   6.097  0.1334 -0.1352 -0.3947
12570TIP3    H137651   7.148   1.539   6.160 -1.3842 -1.3478 -0.6840
12570TIP3    H237652   7.252   1.558   6.051  2.0007  0.7484  2.6560
12571TIP3   OH237653   1.217   3.732   2.732  0.1580 -0.3277  0.4770
12571TIP3    H137654   1.174   3.693   2.656  1.2524  0.3122 -0.4909
12571TIP3    H237655   1.190   3.823   2.731  1.5678  0.1212 -0.2242
12572TIP3   OH237656   4.690   0.485   2.948 -0.8525  0.4198 -0.0557
12572TIP3    H137657   4.604   0.459   2.981 -0.9840 -2.0097 -1.9874
12572TIP3    H237658   4.671   0.541   2.872 -0.7419  0.2012 -0.2474
12573TIP3   OH237659   2.635   5.399   1.871 -0.1411  0.0081  0.1301
12573TIP3    H137660   2.639   5.320   1.817 -0.2551 -0.1614  0.3636
12573TIP3    H237661   2.720   5.403   1.915 -0.3783 -0.3579  0.6305
12574TIP3   OH237662   7.194   1.119   5.862 -0.3302 -0.1040  0.4822
12574TIP3    H137663   7.180   1.028   5.889  2.0452 -1.6221 -2.6680
12574TIP3    H237664   7.274   1.145   5.907  0.1702 -0.4012 -0.2069
12575TIP3   OH237665   7.566   0.237   1.962 -0.5244 -0.4951 -0.0456
12575TIP3    H137666   7.509   0.253   1.887  0.5155  1.9745 -0.4104
12575TIP3    H237667   7.521   0.278   2.036  0.8732  1.8995 -0.4253
12576TIP3   OH237668   0.746   6.692   5.778 -0.3368 -0.2354 -0.7450
12576TIP3    H137669   0.779   6.758   5.717 -0.7234 -0.3363 -1.0708
12576TIP3    H237670   0.667   6.732   5.815  1.3254  0.9744  1.7656
12577TIP3   OH237671   1.471   4.082   3.726  0.0498 -0.0044  0.4167
12577TIP3    H137672   1.474   3.988   3.741  0.3250 -0.1137 -0.3213
12577TIP3    H237673   1.396   4.095   3.669  0.6993  0.0888 -0.4299
12578TIP3   OH237674   3.391   3.892   5.919  0.3065  0.3306  0.1991
12578TIP3    H137675   3.431   3.805   5.917 -0.5455 -0.0708 -1.6327
12578TIP3    H237676   3.304   3.878   5.881  0.7409  2.2569 -1.6522
12579TIP3   OH237677   2.469   5.583   2.698 -0.3368  0.0942  0.3954
12579TIP3    H137678   2.437   5.543   2.617  0.6329 -0.3366  0.2058
12579TIP3    H237679   2.411   5.549   2.766  0.6072 -1.9424  0.2813
12580TIP3   OH237680   7.871   3.407   1.671 -0.3599 -0.3430  0.0372
12580TIP3    H137681   7.855   3.316   1.649 -0.1106 -0.2245 -0.6382
12580TIP3    H237682   7.844   3.457   1.594 -0.6281  0.1667  0.4500
12581TIP3   OH237683   7.461   4.626   4.031 -0.0929 -0.2926  0.0538
12581TIP3    H137684   7.445   4.562   4.100  1.3671 -0.8454 -0.0760
12581TIP3    H237685   7.553   4.649   4.040 -0.1946  0.5779 -0.9149
12582TIP3   OH237686   2.489   3.109   1.657 -0.1546  0.3252 -0.0457
12582TIP3    H137687   2.443   3.192   1.640 -2.1117 -0.7122 -0.0695
12582TIP3    H237688   2.448   3.046   1.598  0.8805 -0.8138  0.4057
12583TIP3   OH237689   2.461   6.765   6.562 -0.2141  0.5307 -0.4947
12583TIP3    H137690   2.392   6.743   6.500 -1.1924  1.0626  0.3636
12583TIP3    H237691   2.455   6.698   6.629  0.6579  0.1108 -0.8318
12584TIP3   OH237692   0.767   4.339   5.339 -0.0075 -0.0607  0.1816
12584TIP3    H137693   0.754   4.306   5.428 -0.2885  1.1421  0.5994
12584TIP3    H237694   0.700   4.296   5.287 -0.9906  0.5576  0.9060
12585TIP3   OH237695   3.188   7.257   5.201  0.0351  0.3168 -0.4667
12585TIP3    H137696   3.105   7.303   5.205 -0.2892 -0.3398  0.6528
12585TIP3    H237697   3.215   7.246   5.292  0.3112 -1.2850 -0.6997
12586TIP3   OH237698   7.957   7.722   3.587 -0.0436 -0.1461 -0.5438
12586TIP3    H137699   7.962   7.806   3.540  0.3038 -1.4030 -2.9235
12586TIP3    H237700   8.044   7.683   3.575 -0.2298 -0.8983  0.4497
12587TIP3   OH237701   5.584   7.646   3.211  0.0575  0.2340 -0.2073
12587TIP3    H137702   5.672   7.618   3.183 -0.2770 -0.6743 -0.4033
12587TIP3    H237703   5.545   7.683   3.132 -0.8965 -2.3576 -1.0555
12588TIP3   OH237704   0.341   7.428   3.886  0.4469  0.4366  0.3549
12588TIP3    H137705   0.317   7.499   3.826  0.9490  0.5098  0.2354
12588TIP3    H237706   0.406   7.467   3.944  0.2178  0.2652  0.7277
12589TIP3   OH237707   6.477   2.185   4.335  0.3856  0.0397 -0.1543
12589TIP3    H137708   6.442   2.159   4.250 -0.7094 -2.5061  0.9533
12589TIP3    H237709   6.414   2.248   4.369  0.3344  0.3545 -0.8159
12590TIP3   OH237710   4.760   1.963   4.335 -0.0571  0.0812  0.0742
12590TIP3    H137711   4.671   1.969   4.300 -0.5733 -1.6959  0.9529
12590TIP3    H237712   4.816   1.987   4.262 -1.1602 -1.7509 -1.4496
12591TIP3   OH237713   3.799   3.108   3.825  0.1601  0.2561  0.3437
12591TIP3    H137714   3.826   3.186   3.874  0.1774  0.3033  0.2586
12591TIP3    H237715   3.861   3.040   3.852 -0.7228 -0.1254  1.5341
12592TIP3   OH237716   7.566   2.933   3.747  0.1392 -0.0479  0.1373
12592TIP3    H137717   7.633   2.945   3.814  0.4433 -0.3472 -0.1067
12592TIP3    H237718   7.610   2.883   3.678 -0.5364 -0.9271  0.3146
12593TIP3   OH237719   7.121   1.461   0.624  0.2083  0.1888 -0.4409
12593TIP3    H137720   7.114   1.555   0.641  0.5054  0.0879  0.3251
12593TIP3    H237721   7.124   1.453   0.529 -2.3177  0.7640 -0.6324
12594TIP3   OH237722   4.984  -0.015   3.845 -0.0356  0.0216 -0.6562
12594TIP3    H137723   5.071   0.024   3.837 -0.2042  0.4256 -0.5840
12594TIP3    H237724   4.934   0.049   3.896 -0.7815  0.4921 -1.9214
12595TIP3   OH237725   3.862   6.123   2.882  0.0774 -0.2780  0.3932
12595TIP3    H137726   3.771   6.150   2.878  0.4826  1.0167 -1.2152
12595TIP3    H237727   3.873   6.063   2.808  0.3341 -1.1197  1.0977
12596TIP3   OH237728   8.077   4.981   5.046 -0.2723  0.4427  0.0884
12596TIP3    H137729   8.144   5.039   5.012  0.1663  1.0940  1.9154
12596TIP3    H237730   8.008   5.040   5.078 -0.1831 -0.0368  1.2432
12597TIP3   OH237731   4.265   1.596   5.818  0.3165 -0.0751  0.2373
12597TIP3    H137732   4.241   1.518   5.868  1.3858 -1.3588 -1.2038
12597TIP3    H237733   4.228   1.581   5.731  0.9964  0.7890 -0.2095
12598TIP3   OH237734   4.037   5.990   5.748 -0.2641  0.6430 -0.0356
12598TIP3    H137735   4.025   5.969   5.841  0.3312  1.1012  0.1549
12598TIP3    H237736   4.084   5.915   5.712 -0.0538  0.6842  0.1498
12599TIP3   OH237737   7.232   2.552   2.741 -0.2562 -0.0425 -0.1359
12599TIP3    H137738   7.154   2.566   2.688 -0.7436  0.4000  0.6753
12599TIP3    H237739   7.248   2.637   2.784 -0.1224 -0.4909  0.7326
12600TIP3   OH237740   7.196   7.589   6.005 -0.0217 -0.0779 -0.2005
12600TIP3    H137741   7.168   7.571   6.095  1.1130 -0.1788  0.1439
12600TIP3    H237742   7.180   7.682   5.993  1.8162  0.4360  0.8739
12601TIP3   OH237743   1.913   6.109   5.375  0.0403  0.2666  0.0215
12601TIP3    H137744   1.988   6.130   5.432 -1.1045  2.1739  0.9134
12601TIP3    H237745   1.886   6.193   5.339 -1.9720 -0.3040  0.0922
12602TIP3   OH237746   5.701   4.257   3.094 -0.0459  0.2060  0.2118
12602TIP3    H137747   5.638   4.185   3.094 -0.1000  0.2539  0.2607
12602TIP3    H237748   5.648   4.336   3.103  0.0232  0.2442  0.2922
12603TIP3   OH237749   3.622   4.074   2.483 -0.0472 -0.1506  0.4432
12603TIP3    H137750   3.550   4.113   2.432  0.3892 -0.5541 -0.4989
12603TIP3    H237751   3.657   4.147   2.534  0.9537  0.8256 -1.5186
12604TIP3   OH237752   0.615   3.147   1.396  0.6057 -0.0190 -0.0126
12604TIP3    H137753   0.680   3.217   1.404  1.1909 -0.3453 -1.5943
12604TIP3    H237754   0.534   3.187   1.427  1.0087  1.2617 -0.5254
12605TIP3   OH237755   7.714   6.524   5.478 -0.0927  0.2546 -0.3917
12605TIP3    H137756   7.619   6.535   5.469 -0.3289 -1.1353  0.1494
12605TIP3    H237757   7.751   6.609   5.452 -1.4785  0.8170 -0.5952
12606TIP3   OH237758   7.868   3.760   5.622  0.3917 -0.2342 -0.4967
12606TIP3    H137759   7.926   3.830   5.652  0.6725 -0.7662  0.2286
12606TIP3    H237760   7.925   3.700   5.574  0.0395  0.3361 -1.6723
12607TIP3   OH237761   3.883   1.491   4.890  0.7781  0.5302  0.4115
12607TIP3    H137762   3.903   1.569   4.837  1.1477  0.1011 -0.0856
12607TIP3    H237763   3.792   1.504   4.918 -0.1605 -0.1927 -2.0529
12608TIP3   OH237764   1.155   2.489   2.242 -0.2243  0.3572 -0.5147
12608TIP3    H137765   1.239   2.459   2.278  0.1598  2.1270  0.1853
12608TIP3    H237766   1.159   2.467   2.149  0.5686 -0.5161 -0.2881
12609TIP3   OH237767   6.622   7.209   0.889  0.1820  0.0749  0.0552
12609TIP3    H137768   6.539   7.202   0.936  0.7170 -0.1243  1.0058
12609TIP3    H237769   6.606   7.274   0.821 -0.4236  0.8672  0.9380
12610TIP3   OH237770   1.317   1.489   5.928 -0.4257  0.7684 -0.2538
12610TIP3    H137771   1.325   1.418   5.864 -2.1875  1.9301 -1.8577
12610TIP3    H237772   1.275   1.448   6.004  0.1115 -0.2490 -0.4893
12611TIP3   OH237773   4.277   6.645   5.149 -0.4598 -0.1340 -0.0141
12611TIP3    H137774   4.227   6.637   5.231  1.0421  1.2975  1.1191
12611TIP3    H237775   4.271   6.738   5.127 -1.8502 -0.6955 -2.2545
12612TIP3   OH237776   5.838   5.136   3.033  0.7022 -0.4154 -0.2539
12612TIP3    H137777   5.893   5.058   3.027  1.1166 -0.1076 -0.4876
12612TIP3    H237778   5.861   5.175   3.117 -0.4072 -1.2101  0.4475
12613TIP3   OH237779   3.557   4.880   2.869 -0.0002  0.4815  0.2458
12613TIP3    H137780   3.647   4.849   2.861 -0.3879 -1.3741  2.1112
12613TIP3    H237781   3.534   4.910   2.782  1.8783 -0.5937 -0.6831
12614TIP3   OH237782   5.221   6.320   3.850 -0.0654  0.4708 -0.1130
12614TIP3    H137783   5.278   6.392   3.876 -1.4934  1.6049 -0.0364
12614TIP3    H237784   5.144   6.329   3.906 -0.0816 -1.4243  0.2414
12615TIP3   OH237785   7.290   1.247   5.630 -0.7423  0.1556 -0.5344
12615TIP3    H137786   7.205   1.263   5.589 -1.0622  0.7460  0.3194
12615TIP3    H237787   7.269   1.209   5.715 -0.1054 -0.6977 -0.7459
12616TIP3   OH237788   3.985   4.705   0.443  0.7558  0.0825 -0.0026
12616TIP3    H137789   3.966   4.745   0.527  0.8267  0.3543 -0.1168
12616TIP3    H237790   3.914   4.734   0.386  2.0275  1.9342 -0.7143
12617TIP3   OH237791   6.284   0.768   6.368 -0.0778  0.2832 -0.2777
12617TIP3    H137792   6.288   0.721   6.451  1.2106 -1.2194 -1.1314
12617TIP3    H237793   6.320   0.707   6.304  0.7804  2.0957 -1.6270
12618TIP3   OH237794   0.588   4.995   5.042  0.0740 -0.3382  0.3754
12618TIP3    H137795   0.513   5.052   5.061  1.4586  0.7700  3.1321
12618TIP3    H237796   0.550   4.908   5.033 -1.5373  0.0023  2.7574
12619TIP3   OH237797   6.880   3.027   2.485 -0.4405 -0.1706 -0.1497
12619TIP3    H137798   6.872   2.992   2.396 -0.8249 -0.8589  0.1445
12619TIP3    H237799   6.865   2.951   2.541 -2.1106  0.6290  0.5313
12620TIP3   OH237800   4.034   4.636   1.370 -0.1840 -0.3189  0.6333
12620TIP3    H137801   4.042   4.574   1.298  2.7428 -0.4103  0.8953
12620TIP3    H237802   3.949   4.618   1.409 -0.1693 -2.9967 -0.3722
12621TIP3   OH237803   5.673   2.420   3.230 -0.3175  0.2861 -0.2373
12621TIP3    H137804   5.737   2.406   3.160 -0.6385  0.4421 -0.5675
12621TIP3    H237805   5.722   2.408   3.311 -0.2697 -1.4724 -0.4767
12622TIP3   OH237806   7.676   1.214   1.184 -0.4836  0.2414 -0.1201
12622TIP3    H137807   7.609   1.201   1.117  1.8533 -1.8427 -2.2828
12622TIP3    H237808   7.673   1.133   1.236  1.4560 -0.7683 -1.4415
12623TIP3   OH237809   1.216   5.223   5.351 -0.3539 -0.0439  0.9442
12623TIP3    H137810   1.202   5.218   5.256  1.2982  0.6741  0.6449
12623TIP3    H237811   1.179   5.308   5.376  0.7349  0.5308  0.6455
12624TIP3   OH237812   4.842   0.608   0.359  0.0434 -0.0457  0.1664
12624TIP3    H137813   4.798   0.685   0.395 -0.1131 -0.3211  0.5755
12624TIP3    H237814   4.933   0.618   0.385 -0.1370 -0.4338  0.9862
12625TIP3   OH237815   1.195   6.898   1.561 -0.1983  0.1074 -0.4633
12625TIP3    H137816   1.150   6.815   1.546 -1.1686  0.3470  0.9401
12625TIP3    H237817   1.131   6.965   1.538  0.4235  0.4796 -1.1499
12626TIP3   OH237818   0.678   0.618   0.187 -0.1917 -0.2114  0.1764
12626TIP3    H137819   0.649   0.621   0.278  0.6625  0.5583  0.4376
12626TIP3    H237820   0.685   0.710   0.161  2.1352 -0.3512  0.1794
12627TIP3   OH237821   0.401   4.731   2.899 -0.6205  0.0471 -0.3310
12627TIP3    H137822   0.431   4.818   2.872  0.7875 -0.3295 -0.0495
12627TIP3    H237823   0.481   4.685   2.925 -1.1221 -1.8949 -2.0234
12628TIP3   OH237824   4.413   7.385   0.676 -0.3282 -0.2713  0.2298
12628TIP3    H137825   4.507   7.386   0.658 -0.1160  2.2364  1.1005
12628TIP3    H237826   4.379   7.461   0.629 -2.3237 -2.1750 -1.6205
12629TIP3   OH237827   6.957   0.298   1.485 -0.3162  0.2185  0.7609
12629TIP3    H137828   6.960   0.233   1.416 -2.5368  0.7389  0.0809
12629TIP3    H237829   7.000   0.375   1.448  0.6590 -0.2528  0.8874
12630TIP3   OH237830   1.503   7.264   3.667  0.4131 -0.0355  0.3440
12630TIP3    H137831   1.412   7.235   3.679  1.1216 -2.9539 -0.4746
12630TIP3    H237832   1.533   7.285   3.755 -0.1121 -2.3511  1.1448
12631TIP3   OH237833   8.256   2.302   1.088  0.5342 -0.0420  0.0633
12631TIP3    H137834   8.229   2.374   1.144  0.3094 -1.4855  1.8880
12631TIP3    H237835   8.187   2.296   1.022 -0.5229  0.1118  1.1202
12632TIP3   OH237836   2.433   0.370   3.821  0.1882  0.2391  0.5834
12632TIP3    H137837   2.464   0.296   3.769 -2.0421  0.1547 -0.7667
12632TIP3    H237838   2.357   0.337   3.869 -0.5381  1.4766  0.3466
12633TIP3   OH237839   0.398   1.151   2.137 -0.4594  0.5094  0.4234
12633TIP3    H137840   0.436   1.111   2.215  1.0838  2.2894  0.6668
12633TIP3    H237841   0.403   1.245   2.153 -0.6840  0.9109 -1.5645
12634TIP3   OH237842   5.859   1.676   2.079 -0.1086 -0.1292 -0.0344
12634TIP3    H137843   5.865   1.704   2.171  1.2839  0.1302 -0.1832
12634TIP3    H237844   5.948   1.685   2.046 -0.5484 -0.4754 -1.3498
12635TIP3   OH237845   5.405   0.388   4.609  0.3088  0.2518  0.2645
12635TIP3    H137846   5.448   0.358   4.529 -1.6771 -1.7565 -0.1331
12635TIP3    H237847   5.371   0.475   4.587 -2.7158 -1.3468 -2.2346
12636TIP3   OH237848   0.417   0.595   4.456 -0.4958  0.4383 -0.3780
12636TIP3    H137849   0.381   0.573   4.370 -0.7887 -0.2993 -0.0712
12636TIP3    H237850   0.479   0.525   4.475 -0.8764  0.2758  0.2722
12637TIP3   OH237851   0.062   0.273   6.356  0.1214 -0.3472 -0.0308
12637TIP3    H137852   0.099   0.230   6.433 -1.5469  0.0956  1.0921
12637TIP3    H237853   0.137   0.306   6.308  1.1913  0.9978  2.3921
12638TIP3   OH237854   7.505   6.492   2.666 -0.1913 -0.1154  0.4113
12638TIP3    H137855   7.510   6.503   2.571 -0.0180  0.5615  0.4902
12638TIP3    H237856   7.423   6.445   2.681 -1.3624  1.7288  0.0771
12639TIP3   OH237857   6.614   0.631   3.825 -0.1241 -0.2365 -0.7032
12639TIP3    H137858   6.560   0.679   3.889  1.8049  0.7427  0.2600
12639TIP3    H237859   6.576   0.544   3.822  0.7948 -0.9152  3.2297
12640TIP3   OH237860   2.250   4.245   2.185 -0.2250 -0.2684  0.0237
12640TIP3    H137861   2.262   4.265   2.092 -1.0737  0.9141  0.1459
12640TIP3    H237862   2.242   4.330   2.227  1.8247 -0.7171  1.4513
12641TIP3   OH237863   2.428   3.248   0.454  0.0262 -0.3880 -0.3340
12641TIP3    H137864   2.506   3.235   0.399  0.8630  0.1622  0.6827
12641TIP3    H237865   2.368   3.297   0.400  1.0359  0.5770 -0.6090
12642TIP3   OH237866   5.813   3.214   6.687 -0.0540  0.1786 -0.2427
12642TIP3    H137867   5.860   3.214   6.604 -0.4183  0.0532 -0.4533
12642TIP3    H237868   5.769   3.129   6.691 -2.1264  1.1175 -1.1471
12643TIP3   OH237869   7.521   6.240   6.041  0.6662 -0.1743  0.4407
12643TIP3    H137870   7.560   6.285   6.116 -0.4343 -1.2016  1.6833
12643TIP3    H237871   7.595   6.198   5.997  1.0945 -1.5975  2.3902
12644TIP3   OH237872   8.097   2.105   1.979 -0.3218 -0.0208 -0.4468
12644TIP3    H137873   8.070   2.171   2.043 -0.4998  0.4091 -0.9629
12644TIP3    H237874   8.036   2.033   1.991  1.2856 -1.1569  1.7763
12645TIP3   OH237875   4.614   2.039   3.850  0.2048 -0.4843 -0.1553
12645TIP3    H137876   4.703   2.009   3.833  0.0820 -0.8195 -0.2120
12645TIP3    H237877   4.595   2.100   3.778  0.4636 -0.2498 -0.0251
12646TIP3   OH237878   7.498   1.990   0.610  0.1989  0.6364  0.4598
12646TIP3    H137879   7.429   2.054   0.626 -1.7644 -1.3664  0.5542
12646TIP3    H237880   7.516   1.952   0.697  0.3539  0.1441  0.2161
12647TIP3   OH237881   5.243   3.067   4.099 -0.1331  0.2082  0.0855
12647TIP3    H137882   5.167   3.034   4.051 -0.8686  0.1268  1.2920
12647TIP3    H237883   5.208   3.101   4.181  0.7949  2.5373 -0.3963
12648TIP3   OH237884   6.069   5.999   3.766  0.0870  0.2442  0.1426
12648TIP3    H137885   5.981   6.005   3.803  0.2542 -0.8804  0.7691
12648TIP3    H237886   6.101   5.913   3.793  2.3098  1.5537  2.0099
12649TIP3   OH237887   0.964   0.785   3.474 -0.4767 -0.4038 -0.1652
12649TIP3    H137888   0.938   0.708   3.526  0.5984 -0.5069  0.2589
12649TIP3    H237889   1.051   0.807   3.508 -0.9751  1.3193  0.0678
12650TIP3   OH237890   7.184   7.050   1.644  0.0636 -0.3597 -0.5074
12650TIP3    H137891   7.276   7.035   1.624  0.0585 -0.6293 -0.3362
12650TIP3    H237892   7.153   6.967   1.681 -0.2095 -0.2251 -0.4249
12651TIP3   OH237893   6.410   4.660   3.682  0.8360  0.6018 -0.4995
12651TIP3    H137894   6.454   4.683   3.600  1.0334  0.1018 -0.5331
12651TIP3    H237895   6.458   4.584   3.715 -0.5768 -0.5585 -1.0106
12652TIP3   OH237896   0.968   4.592   5.769 -0.3837  0.0493  0.4588
12652TIP3    H137897   0.977   4.510   5.817 -1.1582  0.3995  1.2331
12652TIP3    H237898   1.057   4.621   5.751 -0.1037 -1.1004 -0.0731
12653TIP3   OH237899   0.207   6.538   3.417  0.3331  0.3388  0.0446
12653TIP3    H137900   0.227   6.586   3.336  2.3182  0.7238  0.7279
12653TIP3    H237901   0.276   6.472   3.423 -1.6693 -1.9258 -0.2521
12654TIP3   OH237902   5.940   6.361   5.467  0.0956 -0.0608  0.0492
12654TIP3    H137903   5.858   6.382   5.424  0.8652 -0.6964 -1.8331
12654TIP3    H237904   5.915   6.334   5.555 -1.8075 -1.2664 -0.8092
12655TIP3   OH237905   4.497   5.862   0.293  0.0152  0.3968  0.1869
12655TIP3    H137906   4.539   5.917   0.227 -1.8185  1.6609 -0.0028
12655TIP3    H237907   4.407   5.893   0.297 -0.2600 -0.4585  2.4343
12656TIP3   OH237908   2.167   1.219   2.472  0.2630  0.2138 -0.0962
12656TIP3    H137909   2.217   1.150   2.428  1.9930  1.9374 -0.9628
12656TIP3    H237910   2.165   1.291   2.409  1.8304  2.3688  2.1621
12657TIP3   OH237911   5.223   7.654   0.454  0.2966  0.3964  0.2034
12657TIP3    H137912   5.237   7.724   0.390  0.5448  1.0503  0.9617
12657TIP3    H237913   5.224   7.698   0.539  2.1020 -0.7173  0.8205
12658TIP3   OH237914   1.096   2.447   0.103  0.1704  0.1745 -0.8947
12658TIP3    H137915   1.160   2.518   0.099  0.2532  0.1901  0.1972
12658TIP3    H237916   1.086   2.418   0.013  2.9108 -0.9086 -0.9569
12659TIP3   OH237917   1.245   6.270   6.826  0.0421  0.5084 -0.2855
12659TIP3    H137918   1.330   6.313   6.818  0.1296  0.2757 -0.6034
12659TIP3    H237919   1.255   6.210   6.900  0.9125 -1.2870 -1.8029
12660TIP3   OH237920   2.239   0.131   1.844  0.3698  0.5687  0.0438
12660TIP3    H137921   2.322   0.142   1.891 -0.2748  0.7836  1.1699
12660TIP3    H237922   2.184   0.202   1.877 -0.2117  0.5283 -0.8165
12661TIP3   OH237923   3.841   3.536   5.824  0.5063 -0.8936 -0.1755
12661TIP3    H137924   3.898   3.606   5.856 -1.4476  1.1916 -0.9771
12661TIP3    H237925   3.876   3.514   5.737  1.1434 -0.9517  0.0897
12662TIP3   OH237926   0.259   7.568   6.506 -0.0624  0.4189  0.6343
12662TIP3    H137927   0.255   7.557   6.601  0.5869 -1.6950  0.4691
12662TIP3    H237928   0.169   7.557   6.477 -0.1160  0.0923  0.9190
12663TIP3   OH237929   6.753   2.281   4.774 -0.1870 -0.3921 -0.0786
12663TIP3    H137930   6.814   2.277   4.847 -0.8288  1.5577  0.6129
12663TIP3    H237931   6.808   2.294   4.697  0.3260  0.5319  0.4355
12664TIP3   OH237932   5.740   4.378   4.172 -0.1247 -0.1750  0.5001
12664TIP3    H137933   5.675   4.365   4.242  0.2971 -1.0504  0.7437
12664TIP3    H237934   5.718   4.463   4.135 -2.9333 -1.4199 -1.0195
12665TIP3   OH237935   2.128   7.869   0.694 -0.2361  0.7785 -0.5350
12665TIP3    H137936   2.173   7.888   0.612 -0.8679 -1.7407 -1.5513
12665TIP3    H237937   2.035   7.876   0.673 -0.4126 -0.3424 -0.1839
12666TIP3   OH237938   4.715   1.074   1.163 -0.0361  0.2721  0.1952
12666TIP3    H137939   4.738   1.046   1.075  0.4892  1.9012 -0.2382
12666TIP3    H237940   4.748   1.005   1.220  0.3165 -0.4311 -0.8385
12667TIP3   OH237941   3.252   7.506   1.711 -0.5255 -0.5440  0.3455
12667TIP3    H137942   3.191   7.434   1.728  0.5107 -1.0574  2.0528
12667TIP3    H237943   3.253   7.557   1.792  1.4642 -0.6604  0.4326
12668TIP3   OH237944   3.367   5.954   6.781 -0.5488 -0.0855  0.6549
12668TIP3    H137945   3.340   5.867   6.810 -0.5610 -0.7092 -1.1161
12668TIP3    H237946   3.462   5.949   6.772 -0.6743 -0.3953 -0.8036
12669TIP3   OH237947   4.895   6.772   0.193 -0.1763 -0.3236  0.2453
12669TIP3    H137948   4.912   6.732   0.108  0.4568 -0.8290  0.5978
12669TIP3    H237949   4.977   6.819   0.213  0.0418 -1.0115  1.0065
12670TIP3   OH237950   6.501   5.422   4.976 -0.1259 -0.2047 -0.0487
12670TIP3    H137951   6.416   5.465   4.983 -0.4615 -1.0509  1.2428
12670TIP3    H237952   6.553   5.482   4.921 -1.7202  0.0121 -1.3955
12671TIP3   OH237953   0.234   4.858   1.649 -0.3562  0.5118 -0.1519
12671TIP3    H137954   0.285   4.891   1.574  0.2644  1.1083  0.5206
12671TIP3    H237955   0.213   4.937   1.700 -0.6781  0.0934  0.3701
12672TIP3   OH237956   6.026   1.929   5.784 -0.3836 -0.4571 -0.0486
12672TIP3    H137957   6.024   2.012   5.737 -0.6300  0.5093  1.5960
12672TIP3    H237958   6.117   1.902   5.781 -0.6150 -1.1375 -2.2336
12673TIP3   OH237959   7.442   6.429   5.835 -0.7643  0.1408 -0.5038
12673TIP3    H137960   7.374   6.406   5.772 -0.3751 -2.3139 -0.1176
12673TIP3    H237961   7.435   6.363   5.904  2.8901 -1.1672 -1.1595
12674TIP3   OH237962   0.384   4.767   1.882 -0.2364  0.2648 -0.1254
12674TIP3    H137963   0.348   4.779   1.793  0.2246 -0.3763 -0.4029
12674TIP3    H237964   0.371   4.674   1.901 -2.2536  0.7699  1.3475
12675TIP3   OH237965   3.629   0.356   6.487 -0.1454  0.4299  0.0291
12675TIP3    H137966   3.693   0.426   6.477  0.3952 -0.1162 -0.3535
12675TIP3    H237967   3.655   0.310   6.567  0.8129 -0.6686 -0.8734
12676TIP3   OH237968   4.258   5.889   6.260 -0.2687  0.1312 -0.9752
12676TIP3    H137969   4.319   5.947   6.306  1.1575 -0.6266 -1.8537
12676TIP3    H237970   4.287   5.801   6.283  1.0065 -0.3006 -3.9138
12677TIP3   OH237971   2.481   6.123   3.346  0.1055  0.3546 -0.2901
12677TIP3    H137972   2.401   6.153   3.388 -0.5665 -0.9113 -0.6062
12677TIP3    H237973   2.550   6.179   3.381 -0.8002  0.9365  0.5997
12678TIP3   OH237974   3.470   2.135   2.650  0.4283 -0.2157  0.4329
12678TIP3    H137975   3.429   2.185   2.721  1.4882  0.5547  0.5364
12678TIP3    H237976   3.403   2.130   2.582  0.2645  1.3161  0.4522
12679TIP3   OH237977   2.417   0.148   2.118 -0.0605 -0.2744  0.3793
12679TIP3    H137978   2.498   0.134   2.166  0.0909  0.8027  0.4584
12679TIP3    H237979   2.404   0.243   2.118 -1.2327 -0.4135  0.2199
12680TIP3   OH237980   1.478   2.102   5.472 -0.2696 -0.0985  0.4420
12680TIP3    H137981   1.543   2.171   5.465 -0.5665  0.1085 -0.3901
12680TIP3    H237982   1.475   2.063   5.384 -1.6325  0.2341  0.3272
12681TIP3   OH237983   2.289   4.274   1.543 -0.2596 -0.1945  0.6012
12681TIP3    H137984   2.319   4.365   1.539 -0.5778 -0.1196 -1.2839
12681TIP3    H237985   2.368   4.223   1.561  0.5740  0.2305 -1.5250
12682TIP3   OH237986   8.164   1.987   1.491  0.3762  0.0060  0.1658
12682TIP3    H137987   8.211   2.032   1.421 -2.4033 -0.2351 -2.0410
12682TIP3    H237988   8.217   2.001   1.569  3.0065  1.3577 -1.7268
12683TIP3   OH237989   4.781   4.807   2.579  0.5266 -0.2437  0.3614
12683TIP3    H137990   4.808   4.861   2.505 -0.3684 -0.2147  0.0474
12683TIP3    H237991   4.757   4.723   2.540 -0.8521  0.0698  0.4805
12684TIP3   OH237992   7.445   6.685   3.476 -0.1001 -0.0549  0.4121
12684TIP3    H137993   7.361   6.645   3.497 -0.5919 -0.0549 -1.4239
12684TIP3    H237994   7.476   6.638   3.399  1.1338  0.5983  0.4820
12685TIP3   OH237995   2.871   4.932   0.703 -0.0766  0.4449 -0.0049
12685TIP3    H137996   2.836   4.974   0.625  1.4430 -0.6626 -1.3316
12685TIP3    H237997   2.921   5.001   0.747  0.5463  0.6295 -0.9741
12686TIP3   OH237998   4.208   5.986   3.719 -0.1325 -0.5817 -0.1865
12686TIP3    H137999   4.152   6.048   3.766  0.2867  1.8014 -2.5443
12686TIP3    H238000   4.295   6.027   3.723  0.9335 -2.7831  0.9931
12687TIP3   OH238001   6.099   1.311   2.740  0.3025 -0.1019 -0.5944
12687TIP3    H138002   6.045   1.239   2.772 -0.6335  0.9738  0.3574
12687TIP3    H238003   6.174   1.268   2.700  0.9592 -1.6117  1.9787
12688TIP3   OH238004   3.828   5.972   0.874 -0.6772 -0.1208  0.4240
12688TIP3    H138005   3.895   5.914   0.910 -0.4295 -0.0075  0.1508
12688TIP3    H238006   3.790   5.921   0.802 -0.7549 -0.1133  0.4603
12689TIP3   OH238007   5.557   5.936   2.722  0.3028 -0.6711 -0.0850
12689TIP3    H138008   5.487   5.874   2.700 -0.1204  0.4138 -2.0035
12689TIP3    H238009   5.520   5.989   2.793 -0.7335 -0.2996 -0.8826
12690TIP3   OH238010   3.516   4.085   5.660  0.1754 -0.4876  0.3625
12690TIP3    H138011   3.432   4.043   5.676 -0.1872  0.9347  2.6376
12690TIP3    H238012   3.510   4.118   5.570 -1.4248 -1.0104  0.2620
12691TIP3   OH238013   0.715   2.543   1.396  0.1129 -0.1074  0.0808
12691TIP3    H138014   0.798   2.576   1.362 -1.3442  2.9162 -0.9015
12691TIP3    H238015   0.714   2.572   1.487 -0.3595  1.0185 -0.2634
12692TIP3   OH238016   6.732   5.972   2.712 -0.3166  0.0792 -0.0212
12692TIP3    H138017   6.797   5.985   2.643  0.4634 -1.1618  0.4345
12692TIP3    H238018   6.648   5.983   2.668  0.1690 -0.3999 -1.1167
12693TIP3   OH238019   2.147   2.090   5.095  0.1486 -0.1930 -0.5894
12693TIP3    H138020   2.204   2.076   5.019  0.6008 -0.0111 -0.2857
12693TIP3    H238021   2.204   2.078   5.171 -0.4829 -1.2275 -0.2467
12694TIP3   OH238022   0.835   2.658   6.276  0.1900 -0.1716  0.3709
12694TIP3    H138023   0.865   2.624   6.192  1.8493 -1.2071  1.3156
12694TIP3    H238024   0.907   2.639   6.337 -1.6109 -1.0229  2.3979
12695TIP3   OH238025   1.247   6.991   0.034  0.0045  0.3919 -0.0122
12695TIP3    H138026   1.323   6.934   0.034  0.9295  1.5521 -1.0658
12695TIP3    H238027   1.283   7.079   0.051 -0.9658  1.0776 -1.2766
12696TIP3   OH238028   7.087   4.770   4.202  0.1344  0.3500 -0.0755
12696TIP3    H138029   6.996   4.742   4.214 -0.1147  1.2136  0.1237
12696TIP3    H238030   7.088   4.811   4.115  0.4754 -0.1853 -0.3289
12697TIP3   OH238031   6.901   5.435   5.572 -1.1010 -0.4671 -0.2756
12697TIP3    H138032   6.996   5.443   5.571 -1.2403  1.9058 -0.5792
12697TIP3    H238033   6.880   5.404   5.660 -0.0648 -0.8943 -0.1694
12698TIP3   OH238034   8.321   5.633   4.716  0.0835 -0.2244  0.3191
12698TIP3    H138035   8.276   5.645   4.799  0.1106 -0.1748  0.3259
12698TIP3    H238036   8.410   5.607   4.740  0.4993  1.1328  0.3208
12699TIP3   OH238037   7.083   4.167   0.597  0.1462  0.0154 -0.2371
12699TIP3    H138038   7.131   4.176   0.515 -0.8370  0.3454 -0.7870
12699TIP3    H238039   6.995   4.137   0.571 -0.1443  0.0035  0.6983
12700TIP3   OH238040   3.343   1.473   6.159  0.2279 -0.3684 -1.0931
12700TIP3    H138041   3.341   1.379   6.144 -0.1485 -0.2727 -1.6543
12700TIP3    H238042   3.432   1.499   6.134  0.3153 -0.5677 -0.9863
12701TIP3   OH238043   0.546   4.467   0.507  0.4802  0.1990 -0.0572
12701TIP3    H138044   0.575   4.558   0.504  0.5007  0.1751 -1.6477
12701TIP3    H238045   0.469   4.468   0.564 -0.8298  1.6365 -1.7399
12702TIP3   OH238046   3.209   3.440   5.189  0.1366  0.1117  0.0561
12702TIP3    H138047   3.162   3.446   5.106  2.0121 -3.1954 -1.4772
12702TIP3    H238048   3.153   3.385   5.244 -0.7699  1.7194  0.8290
12703TIP3   OH238049   0.746   5.583   2.097 -0.1238 -0.1551 -0.0658
12703TIP3    H138050   0.718   5.622   2.179  1.9386 -1.3362  1.2923
12703TIP3    H238051   0.758   5.658   2.038  0.5073  0.9682  1.4160
12704TIP3   OH238052   5.086   7.829   2.669  0.7123 -0.5390 -0.3319
12704TIP3    H138053   5.141   7.757   2.638  1.0808 -0.0538 -0.8292
12704TIP3    H238054   5.068   7.809   2.761  0.5801 -1.4007 -0.5428
12705TIP3   OH238055   3.426   2.543   2.320 -0.2302 -1.0012 -0.6470
12705TIP3    H138056   3.487   2.503   2.381  0.6930  0.5062 -0.5144
12705TIP3    H238057   3.407   2.629   2.358 -2.8130 -1.5837 -0.4634
12706TIP3   OH238058   4.194   2.857   5.379  0.1176  0.4470  0.5334
12706TIP3    H138059   4.146   2.905   5.447  0.6123 -0.7697  1.7852
12706TIP3    H238060   4.127   2.806   5.335  0.1627 -1.2052  2.2403
12707TIP3   OH238061   6.654   2.291   6.648  0.1838  0.5507 -0.1528
12707TIP3    H138062   6.675   2.321   6.737 -0.9344 -2.5649  1.3255
12707TIP3    H238063   6.584   2.350   6.619  1.0392  2.0574  0.7260
12708TIP3   OH238064   0.916   6.934   6.333  0.2074  0.2709 -0.0812
12708TIP3    H138065   0.994   6.935   6.278 -0.5090 -0.6807 -1.1349
12708TIP3    H238066   0.939   6.991   6.407  1.0892  1.8322 -1.4772
12709TIP3   OH238067   2.202   1.331   3.005  0.3512 -0.4843 -0.1948
12709TIP3    H138068   2.267   1.395   3.034  0.4222 -0.4782 -0.3711
12709TIP3    H238069   2.125   1.351   3.058  1.0003 -1.5562  1.2219
12710TIP3   OH238070   6.207   0.642   0.353  0.0400 -0.5244  0.4299
12710TIP3    H138071   6.236   0.666   0.441 -1.4441 -0.0743  0.8218
12710TIP3    H238072   6.253   0.560   0.334  0.0160 -0.8818  1.8182
12711TIP3   OH238073   3.180   3.592   0.170 -0.0584 -0.3282  0.1891
12711TIP3    H138074   3.251   3.570   0.110  0.6119  1.0095  0.4749
12711TIP3    H238075   3.213   3.665   0.222 -2.2689  1.5782 -0.9042
12712TIP3   OH238076   4.058   0.561   3.595  0.1099 -0.3734 -0.3207
12712TIP3    H138077   4.152   0.548   3.587  0.2500  1.1892 -1.6785
12712TIP3    H238078   4.038   0.537   3.686  1.9462 -0.0444  0.2057
12713TIP3   OH238079   7.184   4.127   1.722  0.1107  0.6570  0.4825
12713TIP3    H138080   7.152   4.037   1.709  0.4913  0.8481 -2.5216
12713TIP3    H238081   7.116   4.182   1.683 -0.2581  1.7818  2.5554
12714TIP3   OH238082   7.721   0.937   2.282  0.5081 -0.3526  0.3934
12714TIP3    H138083   7.696   0.992   2.357 -0.3058 -0.3478  0.1243
12714TIP3    H238084   7.767   0.997   2.223 -0.6171  0.1287 -0.0258
12715TIP3   OH238085   2.181   6.680   5.863  0.2503  0.1438 -0.0931
12715TIP3    H138086   2.250   6.615   5.880 -0.7647 -0.9833 -0.1592
12715TIP3    H238087   2.176   6.731   5.943  0.5382 -0.3545  0.2469
12716TIP3   OH238088   4.953   1.644   0.730 -0.2061 -0.2506  0.1843
12716TIP3    H138089   4.956   1.589   0.652 -0.9231  0.0654 -0.0708
12716TIP3    H238090   5.023   1.708   0.716 -0.9783  0.4255 -0.6817
12717TIP3   OH238091   6.585   4.195   2.384  0.1108  0.2619  0.2679
12717TIP3    H138092   6.680   4.191   2.389  0.1021  1.0119  1.7767
12717TIP3    H238093   6.566   4.203   2.290  1.6000  1.3433  0.0162
12718TIP3   OH238094   8.418   2.011   2.930  0.2196  0.6197  0.4864
12718TIP3    H138095   8.328   2.025   2.902 -0.0625  0.1680  1.1554
12718TIP3    H238096   8.459   1.966   2.856 -0.5986 -0.8598  0.9025
12719TIP3   OH238097   0.788   1.223   6.440 -0.5128 -0.9378 -0.0406
12719TIP3    H138098   0.758   1.305   6.478 -1.1566 -0.5568 -1.3126
12719TIP3    H238099   0.728   1.206   6.368 -0.6785 -2.7893  0.4805
12720TIP3   OH238100   3.252   3.612   6.103 -0.7347 -0.7415 -0.6488
12720TIP3    H138101   3.336   3.601   6.147  0.6088  0.0833 -2.8182
12720TIP3    H238102   3.188   3.619   6.173  0.9600 -1.6893  1.0672
12721TIP3   OH238103   7.607   3.483   5.565 -0.7367  0.0351  0.0448
12721TIP3    H138104   7.617   3.549   5.495  0.6842 -0.8093 -0.5920
12721TIP3    H238105   7.661   3.516   5.637 -0.5483 -0.1164 -0.0279
12722TIP3   OH238106   2.999   6.550   2.484 -0.0378  0.3915 -0.3405
12722TIP3    H138107   2.962   6.494   2.416  0.4177  0.6399 -0.8006
12722TIP3    H238108   2.952   6.526   2.563 -2.5640  1.9738 -1.2247
12723TIP3   OH238109   6.171   1.689   1.609  0.0139 -0.0621  0.3287
12723TIP3    H138110   6.236   1.758   1.596  0.5066 -0.4338  0.8231
12723TIP3    H238111   6.209   1.612   1.567  0.1416 -0.4200  1.0862
12724TIP3   OH238112   4.610   0.091   4.979  0.5006  0.2582  0.7556
12724TIP3    H138113   4.681   0.111   4.918 -0.7840  0.5155 -0.7089
12724TIP3    H238114   4.584   0.176   5.014 -0.6615  0.4811 -0.5621
12725TIP3   OH238115   5.855   4.314   5.477 -0.1241 -0.6012 -0.8499
12725TIP3    H138116   5.803   4.384   5.517  1.3374  0.3443 -0.5431
12725TIP3    H238117   5.795   4.240   5.473 -1.8046  0.7026 -1.3816
12726TIP3   OH238118   2.969   1.727   4.336 -0.2251  0.0504  0.1815
12726TIP3    H138119   2.891   1.736   4.391 -0.0825 -2.0804  0.8436
12726TIP3    H238120   3.001   1.816   4.323 -2.1585  0.8709  0.7851
12727TIP3   OH238121   3.231   1.859   3.804 -0.1698  0.5863 -0.4160
12727TIP3    H138122   3.156   1.917   3.812 -1.5188 -1.3760  3.5934
12727TIP3    H238123   3.194   1.776   3.774  0.6445 -0.0019  0.1651
12728TIP3   OH238124   7.703   6.545   6.454  0.1264 -0.2233 -0.3321
12728TIP3    H138125   7.650   6.618   6.487  2.5742  1.8076 -0.6029
12728TIP3    H238126   7.754   6.517   6.530  1.5431  0.5672 -0.9562
12729TIP3   OH238127   4.422   7.901   5.281  0.1746  0.4584  1.0339
12729TIP3    H138128   4.416   7.809   5.304  1.9675  0.0809  0.1671
12729TIP3    H238129   4.363   7.912   5.206 -1.1958  0.3924  2.0686
12730TIP3   OH238130   1.885   5.892   6.667 -0.5226 -0.5807  0.0017
12730TIP3    H138131   1.916   5.899   6.577 -0.7556 -0.0281 -0.0376
12730TIP3    H238132   1.966   5.883   6.719 -0.3723 -0.6047 -0.2343
12731TIP3   OH238133   1.128   4.745   3.042  0.0720 -0.2380 -0.1323
12731TIP3    H138134   1.153   4.811   2.977 -0.1362  2.1815  2.0654
12731TIP3    H238135   1.032   4.750   3.045  0.1170  0.3787  0.9601
12732TIP3   OH238136   3.536   2.615   3.900  0.3869 -0.3548  0.5615
12732TIP3    H138137   3.617   2.575   3.930  0.4352  0.2339  1.2285
12732TIP3    H238138   3.504   2.556   3.832  1.9311 -0.0261 -0.4840
12733TIP3   OH238139   7.742   4.435   2.236 -0.1649 -0.4422 -0.2326
12733TIP3    H138140   7.779   4.423   2.324 -0.5561 -0.7691 -0.1058
12733TIP3    H238141   7.726   4.529   2.229 -2.1109 -0.6305  0.8834
12734TIP3   OH238142   2.971   5.546   1.285  1.1352  0.5210  0.0843
12734TIP3    H138143   3.021   5.500   1.217  2.4644  0.0589  1.3128
12734TIP3    H238144   2.919   5.611   1.237 -1.0772 -2.3700 -1.7745
12735TIP3   OH238145   6.805   2.349   5.491 -0.2948 -0.1503 -0.1278
12735TIP3    H138146   6.819   2.367   5.398  0.4734 -1.9911 -0.4315
12735TIP3    H238147   6.824   2.431   5.536 -0.7385  0.7837 -1.5922
12736TIP3   OH238148   2.823   2.256   5.072  0.5995 -0.2868 -0.2122
12736TIP3    H138149   2.860   2.236   5.158  2.5129 -0.4740 -1.0376
12736TIP3    H238150   2.794   2.171   5.038  0.4363 -0.3063 -0.0268
12737TIP3   OH238151   3.766   0.185   2.053 -0.0603 -0.4116  0.2048
12737TIP3    H138152   3.777   0.129   2.129  0.6415  1.5845  1.6665
12737TIP3    H238153   3.789   0.273   2.084  0.7248  0.4158 -2.4311
12738TIP3   OH238154   6.042   6.064   2.548 -0.2829  0.0552 -0.6078
12738TIP3    H138155   6.105   6.123   2.590 -1.6911  1.0880  0.1292
12738TIP3    H238156   5.977   6.047   2.616 -0.1993 -1.9575 -0.9760
12739TIP3   OH238157   0.125   7.029   2.018 -0.6616  0.0634 -0.0880
12739TIP3    H138158   0.072   7.009   2.096  0.5279 -0.7263  0.5563
12739TIP3    H238159   0.092   7.114   1.988 -1.8586 -0.1144  0.6539
12740TIP3   OH238160   2.657   2.100   4.019  0.4481  0.2141 -0.4292
12740TIP3    H138161   2.577   2.094   4.071 -1.0848  0.3405 -2.6493
12740TIP3    H238162   2.686   2.191   4.030 -0.4233  0.5187 -0.5934
12741TIP3   OH238163   0.284   3.615   6.644  0.1279 -0.4964 -0.3634
12741TIP3    H138164   0.290   3.639   6.551 -0.9563 -0.9214 -0.5547
12741TIP3    H238165   0.216   3.548   6.647 -0.1648 -0.1596  0.8080
12742TIP3   OH238166   2.211   2.907   0.895 -0.2330 -0.0017 -0.8871
12742TIP3    H138167   2.251   2.857   0.967 -0.5614  1.7785  0.6224
12742TIP3    H238168   2.242   2.864   0.816  1.6886 -0.9297  0.2910
12743TIP3   OH238169   4.207   4.196   0.277 -0.0977 -0.5771 -0.5035
12743TIP3    H138170   4.214   4.176   0.184 -0.6571 -0.9154 -0.4769
12743TIP3    H238171   4.140   4.263   0.283 -0.1161 -0.6093 -0.3364
12744TIP3   OH238172   5.557   0.791   1.736  0.4033  0.3107  0.1304
12744TIP3    H138173   5.529   0.762   1.822 -1.3228  0.2647 -0.4103
12744TIP3    H238174   5.628   0.732   1.712  1.8030  1.1312  2.0177
12745TIP3   OH238175   3.742   7.144   0.411 -0.2435 -0.0616 -0.2497
12745TIP3    H138176   3.729   7.051   0.393  1.0280 -0.0461 -1.4236
12745TIP3    H238177   3.828   7.148   0.452 -0.9587  0.4630  1.2825
12746TIP3   OH238178   4.299   1.307   0.885  0.2191  0.2277 -0.3876
12746TIP3    H138179   4.216   1.277   0.921 -0.4704 -0.1497 -2.1562
12746TIP3    H238180   4.365   1.252   0.926 -0.4482  0.2289  0.7060
12747TIP3   OH238181   3.170   0.338   0.769 -0.3664  0.2398  0.2333
12747TIP3    H138182   3.257   0.333   0.728 -0.5917 -0.3340 -0.1845
12747TIP3    H238183   3.136   0.423   0.739  0.1542  0.5973  0.6258
12748TIP3   OH238184   3.704   5.839   0.668  0.2673  0.1331  0.0719
12748TIP3    H138185   3.616   5.856   0.633  1.2531 -1.5906 -3.7101
12748TIP3    H238186   3.718   5.746   0.654  2.7953  0.3909  0.4535
12749TIP3   OH238187   4.360   3.310   2.634 -0.1996 -0.4607  0.0246
12749TIP3    H138188   4.295   3.324   2.565 -0.7406 -0.0514  0.6059
12749TIP3    H238189   4.313   3.262   2.702  0.3665 -0.9815  0.0530
12750TIP3   OH238190   6.296   5.644   2.693 -0.0868 -0.0086  0.1123
12750TIP3    H138191   6.285   5.717   2.632 -1.8284 -0.2860  0.0326
12750TIP3    H238192   6.270   5.679   2.778  2.1782  0.3279  0.7327
12751TIP3   OH238193   4.538   7.072   5.022  0.7989 -0.1043  0.1875
12751TIP3    H138194   4.610   7.051   5.081  1.8588  0.0223 -1.0130
12751TIP3    H238195   4.577   7.127   4.954 -0.8712  1.6920  0.6005
12752TIP3   OH238196   4.903   0.399   4.274  0.4247  0.2954  0.7269
12752TIP3    H138197   4.865   0.443   4.350  1.2826  1.1260  0.6980
12752TIP3    H238198   4.995   0.425   4.275  1.1351 -2.0265  1.0640
12753TIP3   OH238199   7.299   0.828   5.543 -0.2897  0.3415 -0.1317
12753TIP3    H138200   7.363   0.768   5.582  0.5578  1.0434 -0.4077
12753TIP3    H238201   7.261   0.874   5.617 -0.3073  0.0815  0.0221
12754TIP3   OH238202   1.956   6.841   6.393 -0.1982  0.2765 -0.2108
12754TIP3    H138203   1.906   6.777   6.342 -1.3824  1.7210 -0.8981
12754TIP3    H238204   1.925   6.829   6.483  0.1907 -0.6442 -0.1774
12755TIP3   OH238205   7.995   6.392   3.495  0.5870 -0.3958  0.3071
12755TIP3    H138206   7.945   6.451   3.439  0.2982  0.3675  1.3405
12755TIP3    H238207   8.068   6.445   3.527  0.5978 -0.7324  0.8608
12756TIP3   OH238208   0.048   5.056   1.242 -0.1147  0.1152 -0.1519
12756TIP3    H138209   0.102   4.984   1.211  0.3992  0.4086  0.0389
12756TIP3    H238210  -0.042   5.025   1.232  0.0800 -0.2973 -0.6824
12757TIP3   OH238211   7.415   6.705   5.934  0.4059  0.0873 -0.1406
12757TIP3    H138212   7.439   6.614   5.950 -0.9404 -0.6949 -2.2096
12757TIP3    H238213   7.455   6.727   5.850 -1.3432  0.5478 -0.9066
12758TIP3   OH238214   6.420  -0.014   4.479  0.0699 -0.0480  0.0864
12758TIP3    H138215   6.334   0.026   4.467  0.7999  1.7831  0.5824
12758TIP3    H238216   6.464  -0.004   4.395  0.1748 -0.0295  0.1424
12759TIP3   OH238217   5.583   4.529   3.094 -0.2522 -0.1694  0.0350
12759TIP3    H138218   5.621   4.615   3.076 -0.8140 -0.0017 -0.3601
12759TIP3    H238219   5.520   4.515   3.023 -0.4349 -0.7434  0.3062
12760TIP3   OH238220   4.711   4.416   5.486 -0.0409 -1.2025 -0.2359
12760TIP3    H138221   4.693   4.322   5.481  0.8850 -1.5711  2.0296
12760TIP3    H238222   4.630   4.454   5.522  0.0004 -1.3312  0.0001
12761TIP3   OH238223   6.540   5.067   3.854 -0.5763  0.1681  0.1900
12761TIP3    H138224   6.496   5.139   3.808  1.0543 -0.4796 -2.6236
12761TIP3    H238225   6.598   5.110   3.916 -1.4501  1.1681  0.3510
12762TIP3   OH238226   6.518   4.375   1.143  0.3651  0.2908 -0.0192
12762TIP3    H138227   6.440   4.378   1.197  1.1571  0.4142  1.1551
12762TIP3    H238228   6.546   4.466   1.135  0.1718  0.2935 -0.7896
12763TIP3   OH238229   6.757   4.059   5.143 -0.4547 -0.3378 -0.0232
12763TIP3    H138230   6.690   4.009   5.189 -1.5683  2.0231  1.1160
12763TIP3    H238231   6.781   4.128   5.204 -0.6336  1.8311 -2.2291
12764TIP3   OH238232   2.633   4.586   5.170  0.5500  0.2508  0.7046
12764TIP3    H138233   2.670   4.674   5.179 -0.3895  0.8984 -1.2165
12764TIP3    H238234   2.583   4.589   5.088  1.6691 -2.4957 -0.1874
12765TIP3   OH238235   1.422   3.685   5.608  0.0341  0.1136  0.2136
12765TIP3    H138236   1.504   3.709   5.651  0.1044  0.4167 -0.0831
12765TIP3    H238237   1.442   3.690   5.514 -0.1951 -0.2586  0.1459
12766TIP3   OH238238   2.887   1.651   3.937  0.3067  0.0926 -0.1937
12766TIP3    H138239   2.978   1.622   3.936  0.7518  1.3323  1.1088
12766TIP3    H238240   2.888   1.733   3.986 -1.4808  0.2589 -0.3568
12767TIP3   OH238241   2.543   6.799   5.963  0.4247  0.8022  0.5824
12767TIP3    H138242   2.525   6.715   6.004  0.3984  0.1595 -0.6938
12767TIP3    H238243   2.538   6.862   6.035 -0.0740 -0.2095  1.4712
12768TIP3   OH238244   7.352   6.376   0.283  0.7038  0.4006 -0.4313
12768TIP3    H138245   7.404   6.384   0.363 -0.8362  1.2609  0.5333
12768TIP3    H238246   7.327   6.284   0.280 -1.5692  0.8259  1.7036
12769TIP3   OH238247   1.318   5.779   5.339 -0.5118  0.5772  0.2551
12769TIP3    H138248   1.230   5.761   5.305 -1.0195  2.5528  0.3952
12769TIP3    H238249   1.374   5.782   5.261 -0.4295 -1.2141  0.2093
12770TIP3   OH238250   8.267   5.642   1.500 -0.1220  0.3177 -0.0108
12770TIP3    H138251   8.223   5.726   1.486 -0.8129  0.1726  1.1725
12770TIP3    H238252   8.338   5.662   1.560  0.4416  0.2520 -0.6436
12771TIP3   OH238253   3.587   3.521   3.193 -0.0092 -0.1977 -0.6254
12771TIP3    H138254   3.639   3.446   3.222  1.3668  0.3307 -1.6197
12771TIP3    H238255   3.575   3.507   3.100 -1.5867 -0.2468 -0.4292
12772TIP3   OH238256   1.171   4.478   1.675  0.1336 -0.2270 -0.0961
12772TIP3    H138257   1.107   4.412   1.647 -0.9360  1.5288 -2.0626
12772TIP3    H238258   1.121   4.537   1.732  0.1127  0.8256 -1.1683
12773TIP3   OH238259   0.421   3.360   6.133  0.0426 -0.0068  0.0682
12773TIP3    H138260   0.479   3.352   6.057  0.2412 -0.4676  0.2685
12773TIP3    H238261   0.338   3.389   6.097 -0.4585 -2.0911 -0.5844
12774TIP3   OH238262   6.935   2.407   0.850 -0.4485  0.0721 -0.0731
12774TIP3    H138263   7.007   2.470   0.846 -0.7147  0.4297  0.5854
12774TIP3    H238264   6.962   2.336   0.792  1.4454 -0.8443  1.7804
12775TIP3   OH238265   4.049   6.402   3.626  1.0833  0.3872 -0.3189
12775TIP3    H138266   4.020   6.487   3.659  1.2999  1.3350 -2.4612
12775TIP3    H238267   4.122   6.378   3.683  0.6098  1.3107  0.7166
12776TIP3   OH238268   5.422   4.089   1.766 -0.4599  0.6121  0.2656
12776TIP3    H138269   5.430   3.999   1.734 -0.6607  0.6185  0.1953
12776TIP3    H238270   5.369   4.081   1.845  0.1127  0.5856  0.6478
12777TIP3   OH238271   5.253   7.394   3.723  0.8199 -0.5031 -0.3229
12777TIP3    H138272   5.165   7.355   3.722  0.8623 -0.8085  2.1586
12777TIP3    H238273   5.249   7.465   3.659 -2.2225  1.4859  1.8181
12778TIP3   OH238274   6.827   2.463   5.211 -1.0186  0.6250  0.6495
12778TIP3    H138275   6.799   2.434   5.124 -1.2060  0.5023  0.7493
12778TIP3    H238276   6.914   2.501   5.197 -0.8106  0.1141  0.4946
12779TIP3   OH238277   1.919   3.568   1.286  0.0578  0.1275  0.4072
12779TIP3    H138278   1.980   3.630   1.325  1.4809 -1.0291  0.0930
12779TIP3    H238279   1.929   3.488   1.337  1.5626 -1.2501 -1.8759
12780TIP3   OH238280   6.527   0.561   2.368  0.0024  0.3361  0.0276
12780TIP3    H138281   6.607   0.597   2.407  0.4036 -0.7539  0.2752
12780TIP3    H238282   6.512   0.479   2.417 -0.6091 -0.0532 -0.7887
12781TIP3   OH238283   4.573   0.998   5.645  0.2258  0.6146  0.3843
12781TIP3    H138284   4.589   1.001   5.739  0.0343  2.2419  0.3897
12781TIP3    H238285   4.615   0.917   5.616  0.7314  0.3543  1.7876
12782TIP3   OH238286   4.260   1.126   3.620 -0.3182 -0.2934  0.9362
12782TIP3    H138287   4.298   1.107   3.534  0.2572 -0.8335  1.2949
12782TIP3    H238288   4.301   1.208   3.647 -0.8879  0.1506  0.4812
12783TIP3   OH238289   4.124   4.152   2.595  0.2850  0.0188 -0.0670
12783TIP3    H138290   4.214   4.135   2.570  0.8287 -0.8181  2.1874
12783TIP3    H238291   4.117   4.247   2.599  0.8749  0.0976 -0.8765
12784TIP3   OH238292   2.435   4.543   6.292 -0.0214  0.2567 -0.1689
12784TIP3    H138293   2.344   4.547   6.260  0.3518 -0.9392 -1.4613
12784TIP3    H238294   2.426   4.534   6.387 -1.1962  2.1993 -0.0407
12785TIP3   OH238295   0.878   0.792   6.637  0.0471 -0.1515  0.9530
12785TIP3    H138296   0.805   0.770   6.579  1.4164 -1.5400 -0.3565
12785TIP3    H238297   0.866   0.885   6.657 -0.7126  0.2901 -1.2635
12786TIP3   OH238298   2.536   5.014   0.336  0.2256 -0.0930  0.6270
12786TIP3    H138299   2.558   4.956   0.409  0.5014 -1.0693 -0.2069
12786TIP3    H238300   2.501   4.955   0.269 -2.5964  1.0792  0.9387
12787TIP3   OH238301   1.671   5.191   1.008 -0.1008 -0.7583 -0.7239
12787TIP3    H138302   1.603   5.255   1.031  0.6998  0.5137 -1.7820
12787TIP3    H238303   1.692   5.149   1.091 -2.7995 -1.8543 -0.4995
12788TIP3   OH238304   4.926   2.039   2.001 -0.4166 -0.0301  0.2513
12788TIP3    H138305   5.003   2.033   1.945  0.3793  0.2355  1.2787
12788TIP3    H238306   4.856   2.069   1.943 -0.1019 -1.5827 -0.9932
12789TIP3   OH238307   1.152   2.743   1.408  0.7004 -0.2382  0.3924
12789TIP3    H138308   1.061   2.754   1.380  0.1897 -0.4349  1.8379
12789TIP3    H238309   1.204   2.778   1.337 -0.4925 -0.6530 -0.7267
12790TIP3   OH238310   2.341   3.679   6.407  0.0207 -0.2234  0.4828
12790TIP3    H138311   2.298   3.597   6.432  0.1488 -1.3060 -2.4328
12790TIP3    H238312   2.415   3.686   6.467 -1.7323 -0.5145  2.8463
12791TIP3   OH238313   2.597   6.922   5.455  0.1972  0.2513 -0.5460
12791TIP3    H138314   2.513   6.894   5.491  0.7026 -1.0323 -0.3036
12791TIP3    H238315   2.599   7.017   5.469 -1.6174  0.4569 -1.4566
12792TIP3   OH238316   3.970   3.046   6.626  0.0118 -0.4227  0.2580
12792TIP3    H138317   3.934   3.017   6.543  0.1156  1.2965 -0.4284
12792TIP3    H238318   4.062   3.023   6.622 -0.1921 -1.2824  0.3550
12793TIP3   OH238319   0.671   1.575   3.141  0.0410  0.5316  0.3842
12793TIP3    H138320   0.607   1.599   3.074 -0.6547 -0.6351  0.6073
12793TIP3    H238321   0.754   1.611   3.109 -0.7345  2.2668  0.1933
12794TIP3   OH238322   1.698   5.948   5.915  0.6515  0.0713  0.2277
12794TIP3    H138323   1.743   5.963   5.832  0.4961  0.0121  0.1313
12794TIP3    H238324   1.744   5.875   5.955 -0.2921 -1.0001 -0.5683
12795TIP3   OH238325   4.305   1.492   1.365 -0.0096  0.5993 -0.3653
12795TIP3    H138326   4.355   1.453   1.437 -1.1653  0.5759  0.4433
12795TIP3    H238327   4.228   1.531   1.407 -0.5980  0.7687 -1.5648
12796TIP3   OH238328   2.263   7.426   5.348  0.1130  0.2264  0.0648
12796TIP3    H138329   2.242   7.510   5.307  0.7473  0.4630  0.2072
12796TIP3    H238330   2.294   7.449   5.436  3.3177  0.1631 -0.9128
12797TIP3   OH238331   7.384   6.624   1.186  0.0455  0.0583 -0.2719
12797TIP3    H138332   7.303   6.579   1.208  0.6668 -1.4726 -0.9874
12797TIP3    H238333   7.392   6.694   1.251 -1.1623 -0.5945  0.6015
12798TIP3   OH238334   1.226   7.002   0.586 -0.1697 -0.3392 -0.2549
12798TIP3    H138335   1.319   6.981   0.580 -0.1851 -0.5788  0.3456
12798TIP3    H238336   1.181   6.919   0.574 -0.3016 -0.2664 -0.2720
12799TIP3   OH238337   7.108   1.909   1.318  0.6490 -0.6926  0.6710
12799TIP3    H138338   7.017   1.881   1.315  0.6545 -0.7066  0.6330
12799TIP3    H238339   7.119   1.947   1.405  0.5113 -0.3748  0.5501
12800TIP3   OH238340   2.099   4.006   0.461 -0.2502  0.2324 -0.3713
12800TIP3    H138341   2.111   4.100   0.448 -1.1404  0.3272 -0.5532
12800TIP3    H238342   2.022   3.984   0.409  1.4293 -1.0932 -2.4540
12801TIP3   OH238343   2.043   2.469   4.838 -0.2797  0.4581 -0.2369
12801TIP3    H138344   1.981   2.542   4.837 -0.1688  0.6285 -3.0694
12801TIP3    H238345   2.125   2.507   4.806  0.1554 -0.5902 -0.4046
12802TIP3   OH238346   3.614   0.349   4.319  0.0144 -0.4213  0.3693
12802TIP3    H138347   3.657   0.338   4.404 -0.0360  3.9000  1.1835
12802TIP3    H238348   3.527   0.383   4.340 -1.0363 -1.7944 -1.4291
12803TIP3   OH238349   6.844   7.245   5.636 -0.0925 -0.8338  0.5671
12803TIP3    H138350   6.838   7.328   5.589  1.4657 -0.7110  0.5196
12803TIP3    H238351   6.780   7.253   5.707  0.8908  0.9510  1.3212
12804TIP3   OH238352   0.394   3.455   5.056  0.2575  0.0704  0.1406
12804TIP3    H138353   0.372   3.459   4.963 -0.6794 -1.7304  0.2297
12804TIP3    H238354   0.325   3.401   5.094  1.7297 -0.9183  1.5230
12805TIP3   OH238355   3.346   4.587   4.268  0.1641  0.3704  0.0913
12805TIP3    H138356   3.393   4.538   4.336  0.2641 -0.0611 -0.2832
12805TIP3    H238357   3.259   4.603   4.304  0.8329  1.8830  1.1282
12806TIP3   OH238358   5.204   3.783   0.444 -0.0917 -0.3722  0.0484
12806TIP3    H138359   5.164   3.735   0.516 -0.9262 -1.4858 -1.0874
12806TIP3    H238360   5.278   3.728   0.417 -1.7212 -1.7584 -1.9954
12807TIP3   OH238361   5.070   5.024   0.027 -0.0601  0.3850  0.4301
12807TIP3    H138362   4.996   4.969   0.050 -0.3888  0.8430  0.4828
12807TIP3    H238363   5.035   5.113   0.026  0.7404  0.7428  1.6416
12808TIP3   OH238364   8.338   6.134   6.291 -0.1125 -0.1225 -0.1082
12808TIP3    H138365   8.376   6.216   6.323  1.3064 -0.2440 -1.3537
12808TIP3    H238366   8.406   6.068   6.308 -0.7849 -0.8345 -0.1269
12809TIP3   OH238367   5.684   6.997   4.477 -0.9474  0.6956 -0.0352
12809TIP3    H138368   5.703   7.085   4.509 -0.1087  0.6364 -0.3374
12809TIP3    H238369   5.771   6.958   4.463 -1.3125 -0.0462 -0.2485
12810TIP3   OH238370   3.712   5.038   3.652  0.2195  0.1025 -0.6282
12810TIP3    H138371   3.807   5.026   3.647  0.2826 -0.6656  1.5689
12810TIP3    H238372   3.686   4.998   3.735 -2.1577 -0.3968 -1.5245
12811TIP3   OH238373   7.301   1.170   2.901  0.6347  0.5624 -0.0855
12811TIP3    H138374   7.373   1.106   2.898  0.5929  0.5000  0.1796
12811TIP3    H238375   7.235   1.136   2.841 -0.1899 -0.6294  1.4214
12812TIP3   OH238376   1.480   2.534   4.404 -1.0728 -0.4012 -0.4889
12812TIP3    H138377   1.448   2.506   4.319  2.9885 -2.5231 -1.5998
12812TIP3    H238378   1.470   2.457   4.460  1.4200 -1.0118 -0.7815
12813TIP3   OH238379   7.261   1.970   2.280 -0.1771 -0.0282  0.9084
12813TIP3    H138380   7.308   2.030   2.222  1.2404 -0.7219  1.3036
12813TIP3    H238381   7.314   1.967   2.360 -0.5681 -1.3050  1.1351
12814TIP3   OH238382   7.073   4.893   1.840 -0.4216 -0.3017 -0.2964
12814TIP3    H138383   7.078   4.902   1.935  0.7033 -0.9540 -0.2856
12814TIP3    H238384   7.046   4.802   1.826  1.1920 -0.7540 -0.6167
12815TIP3   OH238385   8.255   4.437   3.314 -0.2951 -0.6792  0.2657
12815TIP3    H138386   8.208   4.508   3.270  1.0829 -1.1742 -2.1719
12815TIP3    H238387   8.302   4.480   3.385 -0.6453  0.6053 -0.2495
12816TIP3   OH238388   4.554   3.256   5.972 -0.0384 -0.3795 -0.5050
12816TIP3    H138389   4.632   3.270   5.918 -0.9512  0.1623 -1.7548
12816TIP3    H238390   4.500   3.333   5.955  0.0210  0.2972  1.9694
12817TIP3   OH238391   0.398   0.764   6.479 -0.0780 -0.1677  0.6243
12817TIP3    H138392   0.383   0.746   6.386 -1.3425 -0.7696  0.9349
12817TIP3    H238393   0.394   0.859   6.486 -2.3409 -0.1924  0.4097
12818TIP3   OH238394   6.017   5.988   2.022  0.1178  0.9866  0.0309
12818TIP3    H138395   6.022   6.061   2.083 -2.6738 -0.0695  1.7002
12818TIP3    H238396   5.972   5.919   2.071  1.2040 -1.3176 -1.9992
12819TIP3   OH238397   1.460   2.657   1.457  0.7456  0.2856  0.6011
12819TIP3    H138398   1.397   2.710   1.408 -1.8666 -1.5594  1.7334
12819TIP3    H238399   1.510   2.611   1.390 -0.0949  0.7249 -0.3584
12820TIP3   OH238400   6.755   2.267   4.326 -0.0716  0.0573  0.2171
12820TIP3    H138401   6.800   2.317   4.394 -0.1231  3.3159 -1.9207
12820TIP3    H238402   6.666   2.256   4.359  0.0160  1.2131  0.8943
12821TIP3   OH238403   2.018   4.241   1.333 -0.1743 -0.0049  0.4421
12821TIP3    H138404   2.102   4.284   1.317  0.4509 -1.2469  0.2362
12821TIP3    H238405   1.972   4.248   1.250  0.7997 -1.5561 -0.2800
12822TIP3   OH238406   4.093   0.657   6.208 -0.0937 -0.4197 -0.5007
12822TIP3    H138407   4.007   0.652   6.165  0.4056  1.7454 -1.9110
12822TIP3    H238408   4.142   0.584   6.171 -0.8474 -0.7705 -0.8269
12823TIP3   OH238409   7.164   5.484   5.569  0.2424 -0.3011 -0.0456
12823TIP3    H138410   7.234   5.430   5.534 -0.0349 -1.5098  1.1568
12823TIP3    H238411   7.194   5.509   5.657 -0.3066  0.1943  0.0098
12824TIP3   OH238412   2.598   6.305   0.777 -0.3447  0.0845  0.4786
12824TIP3    H138413   2.508   6.306   0.746  0.0221 -0.2305 -0.6193
12824TIP3    H238414   2.652   6.299   0.698  0.6337 -0.0747  1.1294
12825TIP3   OH238415   1.981   1.893   3.423  0.0215 -0.1324 -0.1969
12825TIP3    H138416   1.944   1.817   3.468 -3.1869  1.5244  0.2814
12825TIP3    H238417   1.952   1.883   3.333 -0.5891  0.5892 -0.0874
12826TIP3   OH238418   7.160   5.007   4.363  0.2035 -0.4376  0.0396
12826TIP3    H138419   7.163   5.066   4.287  2.9957 -0.8153 -0.2214
12826TIP3    H238420   7.166   4.919   4.325 -1.3194 -0.8065  0.5824
12827TIP3   OH238421   2.906   6.000   0.388  0.2109  0.5774  0.6069
12827TIP3    H138422   2.927   6.050   0.309 -0.0222 -0.2926 -0.0076
12827TIP3    H238423   2.947   5.915   0.375  0.8268  0.6745  1.7712
12828TIP3   OH238424   1.041   2.741   2.221  0.0222  0.7830 -0.0094
12828TIP3    H138425   1.063   2.754   2.129  1.1575  2.0420  0.3998
12828TIP3    H238426   1.076   2.654   2.241 -2.5224 -0.6654 -1.3599
12829TIP3   OH238427   3.005   0.913   5.088  0.0956 -0.6644 -0.2062
12829TIP3    H138428   2.974   0.961   5.011 -1.0631 -1.7711 -0.4610
12829TIP3    H238429   3.083   0.867   5.058 -0.8830 -1.8593 -1.0463
12830TIP3   OH238430   5.801   3.017   5.766 -0.3061 -0.0703 -0.2220
12830TIP3    H138431   5.731   3.063   5.813  0.3316  0.3625  0.3337
12830TIP3    H238432   5.796   3.051   5.677  0.0458  0.9746  0.1408
12831TIP3   OH238433   0.189   3.094   5.266 -0.5847  0.1602  0.0379
12831TIP3    H138434   0.193   3.151   5.343  2.1256  0.1471 -0.0132
12831TIP3    H238435   0.228   3.011   5.295 -1.5768 -0.6204 -0.7638
12832TIP3   OH238436   3.756   4.782   5.811  0.0333  0.1388 -0.2675
12832TIP3    H138437   3.823   4.850   5.805  0.5709 -0.3886 -0.3203
12832TIP3    H238438   3.747   4.748   5.722  0.4748 -0.5248 -0.0667
12833TIP3   OH238439   4.984   0.740   2.660 -0.2610  0.4606 -0.4820
12833TIP3    H138440   4.932   0.688   2.598 -0.7883  0.3951 -0.0024
12833TIP3    H238441   4.920   0.771   2.724  0.5760 -1.5987  1.4921
12834TIP3   OH238442   3.977   0.490   3.042  0.1848  0.3169 -0.1852
12834TIP3    H138443   4.033   0.476   3.119  0.1541 -0.9541 -0.3849
12834TIP3    H238444   4.036   0.484   2.967 -0.1863 -1.0146 -0.3971
12835TIP3   OH238445   7.176   4.164   6.645 -0.2532 -0.0719  0.2941
12835TIP3    H138446   7.195   4.173   6.551 -0.9541 -0.1828  0.1343
12835TIP3    H238447   7.199   4.073   6.664 -0.6508 -0.2177  0.0939
12836TIP3   OH238448   2.865   6.891   6.801  0.1590 -0.6480 -0.4144
12836TIP3    H138449   2.855   6.887   6.896  0.0949 -0.9367 -0.4333
12836TIP3    H238450   2.927   6.964   6.787 -2.2963  1.6013 -0.3462
12837TIP3   OH238451   5.079   4.355   1.257  0.0792 -0.5211 -0.0466
12837TIP3    H138452   5.100   4.371   1.165 -1.2119 -1.5554 -0.5537
12837TIP3    H238453   5.146   4.402   1.306  0.5973  0.3112 -1.5133
12838TIP3   OH238454   6.924   5.039   4.868 -0.2316 -0.1132 -0.0010
12838TIP3    H138455   6.866   4.969   4.896 -0.6814  0.1445 -0.2724
12838TIP3    H238456   6.866   5.114   4.855  0.5794  1.2821  3.3869
12839TIP3   OH238457   7.568   7.582   5.344 -0.3329 -0.1439 -0.2683
12839TIP3    H138458   7.515   7.548   5.272  0.3665  1.8012 -1.7893
12839TIP3    H238459   7.658   7.574   5.313  0.0321  0.1397  0.6673
12840TIP3   OH238460   4.497   6.357   2.362 -0.2174 -0.1004 -0.1550
12840TIP3    H138461   4.515   6.355   2.456 -0.3028 -0.4953 -0.1480
12840TIP3    H238462   4.578   6.391   2.323  0.3927 -1.4273 -0.0811
12841TIP3   OH238463   7.067   0.048   6.379  0.3945 -0.2723  0.5001
12841TIP3    H138464   7.081   0.123   6.322 -1.1762 -0.6653 -0.4760
12841TIP3    H238465   7.054   0.085   6.466 -2.2897  0.8071 -0.2784
12842TIP3   OH238466   4.156   6.715   3.961 -0.1421  0.0951 -0.6054
12842TIP3    H138467   4.236   6.706   3.909  0.7161 -0.2846  0.7444
12842TIP3    H238468   4.168   6.656   4.035 -2.1306 -0.7733 -0.8791
12843TIP3   OH238469   3.809   2.002   4.720 -0.0166 -0.1797 -0.2019
12843TIP3    H138470   3.893   1.966   4.749 -0.2035  0.0283  0.6442
12843TIP3    H238471   3.813   2.094   4.745  0.7817  0.6565 -3.0778
12844TIP3   OH238472   5.288   7.783   1.789  0.2905  0.1433 -0.1597
12844TIP3    H138473   5.219   7.812   1.848 -2.3898  0.7444 -3.2759
12844TIP3    H238474   5.337   7.863   1.768 -0.1565  0.3522 -0.4211
12845TIP3   OH238475   5.251   7.608   4.869  1.0778  0.6021  0.2003
12845TIP3    H138476   5.238   7.649   4.783  0.7139  0.4499  0.1820
12845TIP3    H238477   5.266   7.681   4.929 -1.4623  0.9211  0.5334
12846TIP3   OH238478   0.533   4.490   0.217  0.4311 -0.9824 -0.1251
12846TIP3    H138479   0.535   4.484   0.313  0.9409  0.0539 -0.0529
12846TIP3    H238480   0.525   4.584   0.200  0.3947 -1.1573 -1.0996
12847TIP3   OH238481   3.696   2.546   5.338  0.2955  0.3698 -0.5861
12847TIP3    H138482   3.702   2.521   5.430 -1.1162 -0.3525 -0.6612
12847TIP3    H238483   3.663   2.468   5.294 -1.5069  1.4606 -1.2796
12848TIP3   OH238484   5.497   7.506   6.271  1.0165 -0.4163 -0.0476
12848TIP3    H138485   5.471   7.528   6.360  1.0991 -0.2554 -0.0630
12848TIP3    H238486   5.438   7.556   6.215  2.4759  1.3341 -0.0900
12849TIP3   OH238487   6.142   0.247   2.084 -0.0778  0.4864 -0.0673
12849TIP3    H138488   6.172   0.326   2.039 -2.0021  0.3255 -1.8177
12849TIP3    H238489   6.182   0.175   2.035  0.6852  0.3444  0.7503
12850TIP3   OH238490   7.734   6.472   4.990  0.1987  0.1319  0.1753
12850TIP3    H138491   7.640   6.460   5.003  0.3295 -0.2672  0.8212
12850TIP3    H238492   7.761   6.397   4.938  0.1850  0.1830  0.0936
12851TIP3   OH238493   1.957   5.274   5.747 -0.6454  0.2128 -0.0106
12851TIP3    H138494   1.938   5.220   5.824 -0.0177  0.6338  0.4523
12851TIP3    H238495   2.031   5.328   5.774  1.0264 -1.1747 -1.6504
12852TIP3   OH238496   5.041   1.659   0.224 -0.2025  0.2186 -0.0020
12852TIP3    H138497   4.970   1.621   0.276  1.6721 -1.6593  1.3653
12852TIP3    H238498   5.115   1.600   0.238  0.7702  0.1556 -4.0498
12853TIP3   OH238499   1.707   6.938   2.406  0.6392  0.5262 -0.0810
12853TIP3    H138500   1.793   6.938   2.449  0.4988  0.1323  0.2076
12853TIP3    H238501   1.718   6.877   2.333  0.4959  0.1757  0.1865
12854TIP3   OH238502   5.801   5.421   5.684 -0.0074 -0.0121 -1.0093
12854TIP3    H138503   5.814   5.373   5.766  0.7132  0.4988 -0.8214
12854TIP3    H238504   5.877   5.398   5.631 -1.3878 -1.8790 -2.3247
12855TIP3   OH238505   3.583   3.897   6.766  0.6282  0.0312  0.6281
12855TIP3    H138506   3.522   3.824   6.775  0.7218  0.0589  1.5509
12855TIP3    H238507   3.618   3.887   6.677 -2.7827  1.6830 -1.1016
12856TIP3   OH238508   5.934   5.568   0.425  0.2011 -0.0167 -0.1153
12856TIP3    H138509   5.879   5.522   0.361 -0.2811  1.6776 -0.9906
12856TIP3    H238510   5.877   5.580   0.501 -0.8958  2.1086 -1.1740
12857TIP3   OH238511   1.027   1.466   6.707 -0.1886  0.7637 -0.0588
12857TIP3    H138512   1.016   1.442   6.799  0.0223  0.7883 -0.0273
12857TIP3    H238513   1.119   1.447   6.688 -0.3222  0.4001 -0.3698
12858TIP3   OH238514   1.633   7.740   4.324  0.4583 -0.3214  0.8548
12858TIP3    H138515   1.710   7.795   4.311  0.5542 -0.1867  1.9547
12858TIP3    H238516   1.654   7.685   4.400 -0.4929 -0.3458  1.1145
12859TIP3   OH238517   0.773   4.857   3.914  0.2544  0.1867 -0.6577
12859TIP3    H138518   0.769   4.873   4.009 -0.2263  2.3398 -1.0071
12859TIP3    H238519   0.810   4.769   3.907 -1.9068 -1.0331  1.5831
12860TIP3   OH238520   6.021   0.191   4.263  0.6981  0.6191  0.3925
12860TIP3    H138521   5.928   0.192   4.288  0.5009 -0.0138 -0.2904
12860TIP3    H238522   6.040   0.283   4.242 -0.2953  0.4969 -1.2483
12861TIP3   OH238523   1.632   1.129   1.223  0.0667 -0.1673  0.0161
12861TIP3    H138524   1.716   1.132   1.177  0.5404 -0.3631  0.8315
12861TIP3    H238525   1.648   1.176   1.305 -0.4211 -0.7725  0.4739
12862TIP3   OH238526   2.567   2.381   5.180 -0.2678  0.4383  0.3146
12862TIP3    H138527   2.496   2.367   5.118 -0.2475  0.9958  0.1585
12862TIP3    H238528   2.642   2.335   5.142  0.6720  3.4401 -1.7972
12863TIP3   OH238529   1.001   3.694   4.202  0.6316  0.2323 -0.4330
12863TIP3    H138530   1.055   3.647   4.138  0.9022 -1.5980  1.0452
12863TIP3    H238531   0.951   3.625   4.246 -0.2289  1.5348  0.7099
12864TIP3   OH238532   0.400   6.393   6.676  0.2695  0.3329 -0.2253
12864TIP3    H138533   0.453   6.436   6.743  0.1084  1.8818 -1.0416
12864TIP3    H238534   0.331   6.456   6.656 -2.1497 -1.7227  1.0132
12865TIP3   OH238535   3.395   1.138   4.555 -0.2726 -0.0206  0.0273
12865TIP3    H138536   3.341   1.159   4.479  0.5484  1.1290 -0.2625
12865TIP3    H238537   3.339   1.083   4.609 -2.3632  2.3738  0.5038
12866TIP3   OH238538   0.275   7.359   2.995  0.1382  0.1418 -0.1752
12866TIP3    H138539   0.233   7.329   3.076  0.5452  0.6456  0.2264
12866TIP3    H238540   0.217   7.329   2.926 -1.7004  2.0508  0.4226
12867TIP3   OH238541   2.012   2.256   2.188  0.2640  0.3495  0.0819
12867TIP3    H138542   2.081   2.321   2.205  1.0456 -0.2466 -0.7499
12867TIP3    H238543   1.996   2.216   2.274  1.2767  0.1770  0.2065
12868TIP3   OH238544   4.799   0.754   1.862 -0.2809  0.5677 -0.2553
12868TIP3    H138545   4.808   0.829   1.804 -0.8747  0.5005 -0.4390
12868TIP3    H238546   4.889   0.730   1.885 -0.0949  1.9204  0.5642
12869TIP3   OH238547   3.624   5.954   6.735 -0.0768 -0.1381 -0.1444
12869TIP3    H138548   3.608   5.876   6.682 -3.9113  0.3615  0.0247
12869TIP3    H238549   3.614   6.027   6.673 -0.3191  0.3148  0.4179
12870TIP3   OH238550   5.354   1.906   6.063  0.3454 -0.0043  0.4859
12870TIP3    H138551   5.396   1.978   6.110  1.0676  0.5071 -0.8704
12870TIP3    H238552   5.423   1.840   6.054  0.7396  0.5602 -1.1605
12871TIP3   OH238553   2.530   2.437   0.548  0.9725  0.3681  0.2153
12871TIP3    H138554   2.481   2.509   0.509  0.3275 -0.7359 -1.0611
12871TIP3    H238555   2.466   2.390   0.601  0.7961 -0.6290 -0.8472
12872TIP3   OH238556   0.266   0.173   1.405 -0.2987 -0.2154  0.4871
12872TIP3    H138557   0.257   0.266   1.423 -0.7073 -0.0244 -0.6846
12872TIP3    H238558   0.359   0.162   1.383 -0.6065  0.2567 -1.1807
12873TIP3   OH238559   6.376   2.175   4.086  0.1448 -0.4298  0.1349
12873TIP3    H138560   6.311   2.108   4.064  1.0213 -0.9632 -0.9024
12873TIP3    H238561   6.432   2.181   4.009 -0.3347  2.0380 -0.1191
12874TIP3   OH238562   2.144   1.458   0.501 -0.0686 -0.1897 -0.3438
12874TIP3    H138563   2.084   1.492   0.434 -1.6831 -0.8901  0.6818
12874TIP3    H238564   2.087   1.419   0.567  1.5458 -1.0394  0.6228
12875TIP3   OH238565   7.392   2.757   3.869  0.2991  0.1446  0.0741
12875TIP3    H138566   7.430   2.676   3.834  1.1931  0.2983  0.6652
12875TIP3    H238567   7.465   2.820   3.870 -0.9297  1.8322 -2.8855
12876TIP3   OH238568   7.763   1.301   5.214 -0.5546  0.3858  0.8644
12876TIP3    H138569   7.856   1.324   5.209 -1.0059  2.4070  0.9511
12876TIP3    H238570   7.754   1.227   5.153  0.6571  1.8067 -1.1642
12877TIP3   OH238571   0.411   0.886   0.101  0.1382 -0.2111 -0.5998
12877TIP3    H138572   0.408   0.976   0.069  0.4376  0.8492  2.0661
12877TIP3    H238573   0.504   0.865   0.105  0.3753  0.8697  2.2996
12878TIP3   OH238574   3.284   7.635   6.612  0.1956  0.3484  0.1502
12878TIP3    H138575   3.370   7.676   6.612  1.3938 -1.8112  3.0343
12878TIP3    H238576   3.272   7.604   6.522  2.1711  1.1550 -0.4411
12879TIP3   OH238577   5.331   2.700   5.024  0.0206 -0.3990 -0.1792
12879TIP3    H138578   5.404   2.646   4.992  2.1807  1.0780  1.8563
12879TIP3    H238579   5.312   2.666   5.111 -1.7668 -0.7455 -0.6851
12880TIP3   OH238580   5.562   3.110   5.910  0.5490 -0.0591 -0.0751
12880TIP3    H138581   5.470   3.135   5.924  0.4637 -0.0910 -0.5449
12880TIP3    H238582   5.611   3.192   5.919  0.4596 -0.0210  0.0600
12881TIP3   OH238583   1.465   6.473   5.361 -0.1048  0.3561 -0.2630
12881TIP3    H138584   1.424   6.557   5.381  0.2165  0.9363 -1.8873
12881TIP3    H238585   1.397   6.424   5.314 -0.1104 -0.0920  0.2038
12882TIP3   OH238586   4.343   1.607   1.651  0.5620  0.4286 -0.4485
12882TIP3    H138587   4.423   1.624   1.602  1.1462  0.9066  0.6249
12882TIP3    H238588   4.273   1.615   1.586  1.3632  0.1790 -1.3680
12883TIP3   OH238589   5.933   7.786   4.730  0.2384  0.2896 -0.1469
12883TIP3    H138590   5.925   7.856   4.796 -2.1135  0.6307 -0.7014
12883TIP3    H238591   6.010   7.736   4.758  0.0688  1.1565  2.1372
12884TIP3   OH238592   2.906   3.097   4.067 -0.0436  0.2248  0.2285
12884TIP3    H138593   2.950   3.172   4.027  0.7463  0.1439  0.9210
12884TIP3    H238594   2.976   3.047   4.109 -0.2928 -1.7722 -1.5114
12885TIP3   OH238595   8.217   5.357   1.422 -0.0922 -0.5507  0.2781
12885TIP3    H138596   8.281   5.328   1.358  0.7908  0.5604  0.6261
12885TIP3    H238597   8.244   5.446   1.444 -2.1299  0.2212 -0.0609
12886TIP3   OH238598   0.505   3.276   1.736  0.3905  0.0344  0.0190
12886TIP3    H138599   0.506   3.372   1.738  1.2896  0.0197  0.4077
12886TIP3    H238600   0.454   3.255   1.657 -0.1640  0.8215  0.1505
12887TIP3   OH238601   7.821   7.015   1.301  0.4366 -0.1401 -0.3571
12887TIP3    H138602   7.727   6.999   1.293 -0.0422  1.8167  0.8409
12887TIP3    H238603   7.828   7.106   1.329  2.6947 -0.3263 -0.1342
12888TIP3   OH238604   0.935   2.548   2.876 -0.1951 -0.3309 -0.1340
12888TIP3    H138605   0.920   2.517   2.966 -3.5589 -1.2726 -0.8874
12888TIP3    H238606   1.006   2.493   2.843  0.5643 -0.5089  1.6795
12889TIP3   OH238607   0.058   5.448   4.142  0.6357  0.4114  0.8770
12889TIP3    H138608   0.069   5.424   4.050 -0.3648  1.0875  0.5678
12889TIP3    H238609   0.148   5.464   4.173  0.8834  1.9932 -0.4983
12890TIP3   OH238610   4.026   2.440   1.976 -0.0853 -0.0445  0.4727
12890TIP3    H138611   4.042   2.482   1.892  0.8929  0.3863  0.8596
12890TIP3    H238612   3.952   2.382   1.960  0.1361 -0.0302 -0.7036
12891TIP3   OH238613   2.777   0.715   5.506  0.4371 -0.0521 -0.3952
12891TIP3    H138614   2.721   0.693   5.581  1.0980 -2.3515 -0.5032
12891TIP3    H238615   2.795   0.809   5.515  0.9198 -0.3632  2.6086
12892TIP3   OH238616   0.745   3.185   5.748  0.1429 -0.0347 -0.2856
12892TIP3    H138617   0.833   3.148   5.741  0.2765  0.0582  0.7247
12892TIP3    H238618   0.689   3.124   5.701  0.6774 -0.3671 -0.4968
12893TIP3   OH238619   5.650   6.601   4.711 -0.2866  0.6285  0.1054
12893TIP3    H138620   5.699   6.623   4.790 -2.2900  1.0411  1.2993
12893TIP3    H238621   5.684   6.515   4.685  1.8978  1.4248  0.1095
12894TIP3   OH238622   1.949   2.190   2.613 -0.9230  0.1703 -0.2627
12894TIP3    H138623   1.854   2.201   2.604 -0.6264  2.2336 -1.3539
12894TIP3    H238624   1.987   2.271   2.577  1.3130 -1.1191 -1.0101
12895TIP3   OH238625   1.454   4.097   2.380 -0.5152  0.5539  0.2282
12895TIP3    H138626   1.495   4.183   2.380  0.3533  0.1547  0.9081
12895TIP3    H238627   1.426   4.083   2.471  0.7215 -0.4965  0.4795
12896TIP3   OH238628   2.111   1.620   6.253 -0.0712  0.1740 -0.2287
12896TIP3    H138629   2.133   1.703   6.295  0.9584 -0.2059  0.0251
12896TIP3    H238630   2.072   1.644   6.170  0.2300  0.9165 -0.1584
12897TIP3   OH238631   3.265   5.624   2.643  0.3413  0.0277 -0.9710
12897TIP3    H138632   3.279   5.634   2.549  1.0284 -1.8772 -1.0969
12897TIP3    H238633   3.179   5.584   2.651  0.6430 -0.6168 -0.8519
12898TIP3   OH238634   0.289   5.195   5.343  0.3220 -0.3442  0.0710
12898TIP3    H138635   0.207   5.227   5.381 -0.5636 -1.0156 -1.2288
12898TIP3    H238636   0.316   5.123   5.401 -1.2530 -1.6638 -0.7637
12899TIP3   OH238637   5.792   2.841   3.673  0.3557 -0.7651  0.4244
12899TIP3    H138638   5.847   2.920   3.677 -0.1222 -0.4637  1.2170
12899TIP3    H238639   5.754   2.833   3.760 -1.3804 -0.5921 -0.2729
12900TIP3   OH238640   1.775   6.967   1.812 -0.0688  0.0318 -0.5963
12900TIP3    H138641   1.758   6.961   1.718  1.1819 -0.6574 -0.8047
12900TIP3    H238642   1.705   6.915   1.852 -0.3841  0.0019 -1.1701
12901TIP3   OH238643   6.663   5.794   2.942  0.0867 -0.2324 -0.4918
12901TIP3    H138644   6.684   5.845   2.864 -2.5690  0.3941 -0.9086
12901TIP3    H238645   6.652   5.705   2.910 -1.0380  0.0311 -0.8801
12902TIP3   OH238646   2.942   4.816   4.741 -0.1209 -0.2838  0.3577
12902TIP3    H138647   2.888   4.750   4.786 -0.0261 -2.0103 -1.9131
12902TIP3    H238648   2.897   4.831   4.658  1.1380  0.7584 -0.1648
12903TIP3   OH238649   3.530   6.189   2.018 -0.1411 -0.1095 -0.8287
12903TIP3    H138650   3.507   6.276   1.985  0.6807  0.1868 -0.6538
12903TIP3    H238651   3.545   6.203   2.112 -2.7613 -0.9871 -0.1628
12904TIP3   OH238652   0.888   7.898   2.666 -0.1170  0.2064  0.1142
12904TIP3    H138653   0.961   7.849   2.629 -0.0245  1.1219 -0.9441
12904TIP3    H238654   0.928   7.961   2.725 -0.1539 -0.1255  0.5029
12905TIP3   OH238655   7.640   3.983   1.497 -0.2857 -0.7311 -0.1721
12905TIP3    H138656   7.712   3.942   1.545  0.7264  0.2062 -0.8669
12905TIP3    H238657   7.585   4.022   1.566  1.2977  0.8511  0.2581
12906TIP3   OH238658   2.902   0.922   4.708  0.1280 -0.4788  0.2207
12906TIP3    H138659   2.955   0.975   4.768  1.1619  0.6670 -1.6058
12906TIP3    H238660   2.812   0.953   4.722  0.5470  0.8371  0.1376
12907TIP3   OH238661   7.846   0.084   6.382  0.2139  0.8479 -0.3388
12907TIP3    H138662   7.925   0.097   6.435  0.2617 -1.1680  0.1456
12907TIP3    H238663   7.774   0.088   6.444  0.1386  0.1933 -0.3758
12908TIP3   OH238664   5.434   6.917   4.208  0.2640 -0.2242  0.2177
12908TIP3    H138665   5.509   6.900   4.265 -0.3933 -0.1851  1.1170
12908TIP3    H238666   5.393   6.995   4.245 -0.8693 -0.8980  0.4128
12909TIP3   OH238667   3.626   5.324   2.750  0.1276  0.2952 -0.8381
12909TIP3    H138668   3.598   5.391   2.812 -0.1827 -0.4477 -0.1623
12909TIP3    H238669   3.598   5.357   2.664 -1.4990  0.2693 -0.3457
12910TIP3   OH238670   3.648   0.447   1.611  0.3508 -0.7376  0.4287
12910TIP3    H138671   3.673   0.538   1.626 -0.9158 -0.2331 -0.3317
12910TIP3    H238672   3.597   0.423   1.689  0.9634 -0.9118  0.7802
12911TIP3   OH238673   1.623   1.420   6.559 -0.1122 -0.0338  0.1013
12911TIP3    H138674   1.622   1.397   6.466 -0.3467 -0.6459  0.2458
12911TIP3    H238675   1.560   1.492   6.567 -2.7456 -2.1806  0.2954
12912TIP3   OH238676   0.345   3.731   1.858 -0.0146 -0.3242  0.4659
12912TIP3    H138677   0.320   3.792   1.927  1.2171 -0.6699  1.2710
12912TIP3    H238678   0.313   3.646   1.888 -1.5690 -0.1483 -0.5663
12913TIP3   OH238679   5.789   5.696   2.671 -0.5671 -0.0019  0.5133
12913TIP3    H138680   5.702   5.737   2.675 -0.8787 -0.6768  1.0056
12913TIP3    H238681   5.850   5.769   2.667 -1.0755  0.5301  1.8359
12914TIP3   OH238682   0.141   4.161   1.156 -0.0334 -0.5795 -0.5123
12914TIP3    H138683   0.232   4.147   1.130  0.7554  2.3311  0.3061
12914TIP3    H238684   0.133   4.118   1.242  0.5188 -0.9431 -0.6402
12915TIP3   OH238685   6.543   5.741   4.131  0.6178 -0.3436  0.4466
12915TIP3    H138686   6.516   5.700   4.213  0.5587  0.0014  0.6036
12915TIP3    H238687   6.598   5.815   4.158 -0.1197  0.3025  0.2222
12916TIP3   OH238688   1.197   1.333   2.415  0.1099  0.4286 -0.0556
12916TIP3    H138689   1.181   1.342   2.509  2.0659 -1.8586  0.6039
12916TIP3    H238690   1.119   1.288   2.382 -0.6362  1.3236  0.4389
12917TIP3   OH238691   4.369   2.681   5.058  0.4023 -0.2544 -0.1845
12917TIP3    H138692   4.332   2.725   4.981  0.6975  0.7071  0.2040
12917TIP3    H238693   4.300   2.687   5.124  0.9036  0.7689  0.2656
12918TIP3   OH238694   4.722  -0.023   0.186 -0.3828  0.4813  0.4164
12918TIP3    H138695   4.687   0.062   0.215 -0.3917  0.7839 -0.4447
12918TIP3    H238696   4.771  -0.002   0.107  0.1453 -0.2327  0.5504
12919TIP3   OH238697   8.303   7.775   3.243 -0.1278  0.2347  0.5494
12919TIP3    H138698   8.394   7.748   3.248 -0.1876 -0.5085 -1.4566
12919TIP3    H238699   8.306   7.870   3.234  0.5469  0.1064 -0.7813
12920TIP3   OH238700   3.047   1.090   6.267 -0.0195 -0.3267  0.1793
12920TIP3    H138701   3.027   1.179   6.296  1.2408  0.0702 -0.0840
12920TIP3    H238702   3.143   1.083   6.275  0.0891 -1.0811 -1.3941
12921TIP3   OH238703   8.277   6.485   5.130  0.2575 -0.1899  0.7730
12921TIP3    H138704   8.274   6.505   5.037  0.7144 -1.7773  0.3776
12921TIP3    H238705   8.190   6.451   5.150 -0.5325  2.0638  1.4478
12922TIP3   OH238706   4.448   4.147   4.034  0.2176 -0.1181 -0.5293
12922TIP3    H138707   4.536   4.109   4.042  1.2770  2.2855  0.1337
12922TIP3    H238708   4.414   4.146   4.124  1.3455  2.7087  0.0470
12923TIP3   OH238709   2.463   6.632   4.219 -0.0592  0.7101 -0.3404
12923TIP3    H138710   2.488   6.540   4.227 -0.1439  0.6061 -1.1790
12923TIP3    H238711   2.544   6.677   4.195  0.4393  1.1870  1.9737
12924TIP3   OH238712   0.451   2.502   5.329  0.0726 -0.0534 -0.5376
12924TIP3    H138713   0.356   2.511   5.338 -0.0582 -2.2520  1.2085
12924TIP3    H238714   0.463   2.430   5.267  0.5701 -0.3214 -0.1404
12925TIP3   OH238715   7.750   2.289   1.993  0.0657 -0.0317 -0.5701
12925TIP3    H138716   7.721   2.335   2.072 -0.6890 -0.2397 -0.7171
12925TIP3    H238717   7.782   2.205   2.024 -1.0002 -0.4525 -0.5425
12926TIP3   OH238718   1.346   2.312   3.661  0.2351  0.3256  0.1272
12926TIP3    H138719   1.344   2.406   3.679  0.4203  0.5515 -0.9974
12926TIP3    H238720   1.261   2.293   3.622  0.3333  0.0878  0.0287
12927TIP3   OH238721   5.707   5.744   3.788 -0.0347 -0.5377  0.2610
12927TIP3    H138722   5.794   5.774   3.816  0.3657 -0.9402 -0.5153
12927TIP3    H238723   5.721   5.707   3.701 -0.9569 -0.7774  0.2008
12928TIP3   OH238724   7.358   2.992   0.996 -0.4056  0.8453 -0.2624
12928TIP3    H138725   7.401   2.914   1.032 -0.5074  0.9373  0.0566
12928TIP3    H238726   7.363   2.980   0.901 -2.4957 -0.7250 -0.2636
12929TIP3   OH238727   1.517   3.634   0.334  0.3061 -0.3081 -0.2143
12929TIP3    H138728   1.424   3.624   0.351  0.2796 -0.2637 -0.3307
12929TIP3    H238729   1.524   3.628   0.238  0.2633  0.9902 -0.3154
12930TIP3   OH238730   7.640   0.027   1.810  0.1340 -1.0846  0.2026
12930TIP3    H138731   7.556  -0.007   1.780 -0.5855  0.3426  0.5093
12930TIP3    H238732   7.617   0.105   1.860  1.7531  0.5170 -1.4295
12931TIP3   OH238733   7.115   3.455   6.598  0.0582 -0.7267 -0.0187
12931TIP3    H138734   7.043   3.514   6.621  0.0352 -1.0741  0.8381
12931TIP3    H238735   7.181   3.513   6.560  0.3542  0.0142  1.5091
12932TIP3   OH238736   0.334   3.384   3.748  0.1183 -0.3553  0.2580
12932TIP3    H138737   0.374   3.453   3.800 -0.7838  0.5451 -0.2113
12932TIP3    H238738   0.303   3.428   3.669 -0.4328 -1.3008 -0.0688
12933TIP3   OH238739   1.945   5.090   0.958  0.4793  1.0196  0.0980
12933TIP3    H138740   1.890   5.090   1.037 -1.3549 -1.9217 -1.0030
12933TIP3    H238741   1.942   5.181   0.927  1.2213  2.2795  3.2539
12934TIP3   OH238742   7.190   2.657   4.902  0.4953 -1.0609 -0.2177
12934TIP3    H138743   7.273   2.640   4.947  0.3570  0.3503  0.6025
12934TIP3    H238744   7.138   2.578   4.916  1.5679 -1.8314 -0.4692
12935TIP3   OH238745   2.106   5.699   2.790  0.0762 -0.3520 -0.0601
12935TIP3    H138746   2.100   5.635   2.719 -1.6669 -0.2706 -0.0307
12935TIP3    H238747   2.015   5.719   2.812  0.5890  0.9057  1.0528
12936TIP3   OH238748   2.997   3.954   2.812 -0.1093  0.5790  0.6943
12936TIP3    H138749   3.023   4.044   2.791 -0.7434  0.3906 -1.0451
12936TIP3    H238750   3.078   3.911   2.838  0.7924  0.8659 -1.4575
12937TIP3   OH238751   6.334   5.939   4.947  0.3492  0.4774  0.4628
12937TIP3    H138752   6.315   5.920   5.039  0.9351  2.4728  1.0481
12937TIP3    H238753   6.324   5.855   4.903 -4.5396  0.2272  1.4805
12938TIP3   OH238754   5.508   5.694   2.882 -0.6723  0.7546  0.3919
12938TIP3    H138755   5.499   5.637   2.805 -1.4096  1.4975 -0.0829
12938TIP3    H238756   5.455   5.771   2.862 -0.7704  1.0224  1.5933
12939TIP3   OH238757   1.123   5.852   6.708  0.2068  0.2137 -0.1219
12939TIP3    H138758   1.101   5.762   6.733 -1.2228  0.2495 -1.1558
12939TIP3    H238759   1.137   5.847   6.614  1.1345  0.9096 -0.0327
12940TIP3   OH238760   3.416   0.058   3.454 -0.6091 -0.0318  0.7098
12940TIP3    H138761   3.465   0.096   3.381 -0.3743  0.3090  1.0446
12940TIP3    H238762   3.431  -0.036   3.446 -1.7641 -0.1415 -0.5387
12941TIP3   OH238763   4.995   2.287   3.034 -0.4418 -0.0625 -0.2011
12941TIP3    H138764   5.009   2.194   3.051  1.3181  0.5028  1.8962
12941TIP3    H238765   5.076   2.315   2.990 -1.4820  0.2680 -1.9954
12942TIP3   OH238766   7.813   1.500   0.482 -0.3724  0.2716  0.0012
12942TIP3    H138767   7.895   1.492   0.434 -1.1218  2.3193 -1.7728
12942TIP3    H238768   7.772   1.414   0.474  2.2032 -1.3104  2.2955
12943TIP3   OH238769   5.832   7.623   4.387  0.5495 -0.2798 -0.4512
12943TIP3    H138770   5.882   7.542   4.372  0.2604 -0.3986 -0.7901
12943TIP3    H238771   5.741   7.597   4.374  0.4800  0.1836 -0.9024
12944TIP3   OH238772   3.855   3.781   1.008  0.4937 -0.0631 -0.1025
12944TIP3    H138773   3.766   3.747   1.002  0.3472  0.4917 -1.4264
12944TIP3    H238774   3.910   3.712   0.972  0.3870  0.3389 -1.0643
12945TIP3   OH238775   1.834   3.403   4.203 -0.0534  0.1505  0.4508
12945TIP3    H138776   1.921   3.412   4.241  0.4359  0.2339 -0.6539
12945TIP3    H238777   1.784   3.356   4.269  0.2776  1.7715  1.9187
12946TIP3   OH238778   3.108   6.328   0.302 -0.2547 -0.2972 -0.0437
12946TIP3    H138779   3.017   6.303   0.289 -0.8548 -0.2828  3.3426
12946TIP3    H238780   3.104   6.403   0.362  1.9460  0.9290 -1.3005
12947TIP3   OH238781   0.431   7.076   6.241 -0.3865 -0.0245  0.2849
12947TIP3    H138782   0.494   7.138   6.279 -0.1337 -1.0267  1.5966
12947TIP3    H238783   0.476   6.991   6.246 -1.7415 -0.7269  1.0250
12948TIP3   OH238784   6.528   2.350   1.413 -0.2366 -0.6079 -0.6566
12948TIP3    H138785   6.542   2.430   1.463 -0.4355 -0.6118 -0.5961
12948TIP3    H238786   6.444   2.316   1.444  0.5920 -1.7086  0.4932
12949TIP3   OH238787   6.572   6.144   3.667 -0.1779  0.2821 -0.7303
12949TIP3    H138788   6.514   6.205   3.712  2.3052  1.7613  0.6919
12949TIP3    H238789   6.528   6.124   3.585 -3.3250  0.1364  0.8742
12950TIP3   OH238790   0.952   6.246   1.628 -0.2138 -0.4810  0.3770
12950TIP3    H138791   0.873   6.262   1.679 -0.1691  1.7355 -0.1483
12950TIP3    H238792   0.977   6.332   1.594  2.2753 -1.1609  0.2818
12951TIP3   OH238793   5.935   7.020   0.757 -0.0765  0.0033  0.4507
12951TIP3    H138794   5.921   7.115   0.761 -1.1366 -0.1582  0.9501
12951TIP3    H238795   5.966   6.997   0.845  0.9818 -0.0041  0.0854
12952TIP3   OH238796   5.950   0.061   2.181 -0.2385 -0.3892  0.6822
12952TIP3    H138797   6.004  -0.000   2.230  1.6990  1.0389  0.4477
12952TIP3    H238798   5.958   0.033   2.090  0.0382 -0.2602  0.6636
12953TIP3   OH238799   0.883   7.025   1.137 -0.1465 -0.3393  0.1553
12953TIP3    H138800   0.838   7.109   1.121 -0.3964 -0.1687  1.6064
12953TIP3    H238801   0.821   6.975   1.190  1.0071 -0.4284  1.4885
12954TIP3   OH238802   4.782   0.536   2.496 -0.2453  0.2458 -0.2794
12954TIP3    H138803   4.747   0.449   2.516 -0.3818 -0.4409 -3.0852
12954TIP3    H238804   4.734   0.595   2.553 -0.5738 -1.4420  1.2810
12955TIP3   OH238805   7.791   6.849   3.186  0.0589  0.2135 -1.3298
12955TIP3    H138806   7.828   6.780   3.241 -0.7967  1.2866  0.7450
12955TIP3    H238807   7.714   6.810   3.145 -1.9168  0.4590  1.7878
12956TIP3   OH238808   8.404   3.536   0.998 -0.7108 -0.0222  0.1158
12956TIP3    H138809   8.437   3.616   0.955 -0.5389  0.7669  1.6521
12956TIP3    H238810   8.311   3.554   1.013 -0.4743  0.2799  1.2819
12957TIP3   OH238811   5.392   1.157   3.174  0.5140 -0.3892 -0.9067
12957TIP3    H138812   5.331   1.092   3.208  1.4295 -0.3351  0.9312
12957TIP3    H238813   5.336   1.219   3.127 -0.7170 -0.9255 -0.2098
12958TIP3   OH238814   1.060   3.609   4.897 -0.7501 -0.4580  0.0577
12958TIP3    H138815   1.110   3.630   4.818 -0.5244  1.6621  0.7163
12958TIP3    H238816   1.018   3.525   4.877 -1.3169  0.3830 -2.5991
12959TIP3   OH238817   0.190   0.705   4.618  0.1643  0.2765  0.0956
12959TIP3    H138818   0.115   0.655   4.585 -0.5287 -0.7625  2.9562
12959TIP3    H238819   0.260   0.686   4.556 -1.6980  0.6923 -2.2745
12960TIP3   OH238820   0.922   5.964   2.796 -0.2963 -0.4983  0.2450
12960TIP3    H138821   0.840   5.947   2.749  0.7838 -1.6995 -1.3477
12960TIP3    H238822   0.937   6.058   2.785 -1.3437 -0.3094  0.3692
12961TIP3   OH238823   7.899   6.564   3.293  0.0989 -0.4120 -0.1722
12961TIP3    H138824   7.940   6.513   3.223  3.5582 -0.7078  1.8656
12961TIP3    H238825   7.961   6.635   3.310 -1.0420  0.1430  2.0177
12962TIP3   OH238826   7.441   2.286   5.359  0.2162  0.1046  0.7615
12962TIP3    H138827   7.494   2.245   5.427 -2.5594  0.7477  3.5674
12962TIP3    H238828   7.461   2.379   5.366  1.3837  0.0122 -0.7943
12963TIP3   OH238829   2.452   6.008   2.592 -0.0810  0.2916  0.2614
12963TIP3    H138830   2.504   5.957   2.653 -1.6102 -0.6768  0.8170
12963TIP3    H238831   2.362   5.995   2.620 -0.6671  1.6952 -0.8177
12964TIP3   OH238832   1.665   2.993   1.882 -0.1710 -0.1680 -0.5854
12964TIP3    H138833   1.657   2.921   1.819  1.3393  0.2751 -1.3087
12964TIP3    H238834   1.611   3.063   1.845  0.4082 -0.0428 -1.2206
12965TIP3   OH238835   2.717   7.081   1.093 -0.2752 -0.1797  0.3568
12965TIP3    H138836   2.799   7.131   1.093  1.0552 -2.2472  1.1898
12965TIP3    H238837   2.658   7.133   1.039  1.7554  1.1068 -0.7648
12966TIP3   OH238838   4.773   1.175   5.565  0.4749  0.5540  0.6664
12966TIP3    H138839   4.698   1.125   5.600  0.1889  0.8945  0.5455
12966TIP3    H238840   4.830   1.108   5.527  0.5807  0.2183  1.3957
12967TIP3   OH238841   2.177   1.227   2.072  0.0363 -0.4283 -0.6008
12967TIP3    H138842   2.168   1.313   2.113  1.0590 -0.9489  0.7781
12967TIP3    H238843   2.115   1.172   2.118  1.4109 -1.0912  0.5348
12968TIP3   OH238844   1.899   7.429   6.188  0.6758  0.4643  0.2193
12968TIP3    H138845   1.972   7.422   6.249  1.9135  0.0888 -1.2460
12968TIP3    H238846   1.917   7.508   6.137 -1.0560  1.5557  1.1970
12969TIP3   OH238847   0.198   7.690   5.873 -0.0500 -0.8243  0.4562
12969TIP3    H138848   0.157   7.732   5.797  1.4374 -2.2896 -1.2665
12969TIP3    H238849   0.180   7.749   5.946 -1.1768  0.8821 -1.1044
12970TIP3   OH238850   7.278   7.674   3.639  0.5192 -0.2739  0.4096
12970TIP3    H138851   7.241   7.751   3.684  0.6093 -1.5156  2.7822
12970TIP3    H238852   7.350   7.709   3.588 -0.6570  1.4799 -0.1740
12971TIP3   OH238853   8.055   2.805   4.601  0.9250 -0.0136  0.8553
12971TIP3    H138854   8.033   2.764   4.517  1.2624  0.5819  0.4645
12971TIP3    H238855   8.009   2.889   4.599 -0.3622 -0.6445  1.9599
12972TIP3   OH238856   1.081   7.411   2.357 -0.1823 -0.1569  0.3980
12972TIP3    H138857   1.159   7.412   2.413  1.5664 -1.6533 -1.8111
12972TIP3    H238858   1.038   7.327   2.376 -1.4559  0.7543  1.7617
12973TIP3   OH238859   8.158   2.660   6.810 -0.3081 -0.5247  0.9043
12973TIP3    H138860   8.174   2.565   6.810  0.3196 -0.4242  1.2375
12973TIP3    H238861   8.245   2.699   6.809 -0.5497  0.0592 -0.4357
12974TIP3   OH238862   5.130   4.283   4.933 -0.6966 -0.2379 -0.1613
12974TIP3    H138863   5.202   4.264   4.993 -0.3499 -0.3719 -0.6134
12974TIP3    H238864   5.121   4.205   4.879 -2.3512 -0.9337  1.0220
12975TIP3   OH238865   5.753   7.083   4.944  0.9009  0.1261 -0.3343
12975TIP3    H138866   5.784   7.037   5.022 -0.3709 -0.7261 -0.3061
12975TIP3    H238867   5.833   7.103   4.895  1.8239  1.6161  1.6578
12976TIP3   OH238868   7.975   5.857   2.301 -0.0841 -0.0484 -0.3070
12976TIP3    H138869   8.017   5.776   2.273 -0.2605 -0.1178 -0.3771
12976TIP3    H238870   7.886   5.830   2.326 -0.4859  0.2786 -1.3202
12977TIP3   OH238871   7.103   7.468   3.644 -0.9513 -0.1926  0.2077
12977TIP3    H138872   7.143   7.441   3.726 -0.5353  0.2562  0.1562
12977TIP3    H238873   7.143   7.552   3.624 -2.5338  0.6770  0.5684
12978TIP3   OH238874   3.617   6.756   1.613  0.1269 -0.2972 -0.0998
12978TIP3    H138875   3.539   6.812   1.619 -0.8015 -1.3447 -1.5492
12978TIP3    H238876   3.634   6.749   1.519  1.1577 -1.1722  0.1324
12979TIP3   OH238877   3.042   2.455   2.834 -0.5093  0.2124 -0.0201
12979TIP3    H138878   2.972   2.519   2.821 -1.7572 -1.5528 -2.8800
12979TIP3    H238879   3.012   2.401   2.907 -0.3058  1.6647  1.1960
12980TIP3   OH238880   5.313   1.272   5.814 -0.1648 -0.1196 -0.1978
12980TIP3    H138881   5.287   1.190   5.772  1.2331 -0.6984 -0.0089
12980TIP3    H238882   5.314   1.251   5.908 -1.2124  0.5547 -0.0185
12981TIP3   OH238883   7.856   5.372   4.737 -0.2163  0.0769 -0.1145
12981TIP3    H138884   7.902   5.428   4.674 -1.7159  1.0499 -0.3784
12981TIP3    H238885   7.810   5.432   4.795  0.4472 -0.8271  1.4375
12982TIP3   OH238886   2.187   5.321   0.931  0.7168 -0.2641  0.4233
12982TIP3    H138887   2.276   5.357   0.940  0.7779 -0.5420  0.9553
12982TIP3    H238888   2.196   5.229   0.953  0.2910 -0.2934  0.4817
12983TIP3   OH238889   4.443   5.792   5.291  0.3373  0.1063  0.4678
12983TIP3    H138890   4.417   5.822   5.378  2.0218  0.4998  0.8699
12983TIP3    H238891   4.410   5.859   5.231  0.6324  0.6999  0.9697
12984TIP3   OH238892   5.863   6.423   1.000 -0.1071 -0.4341  0.1541
12984TIP3    H138893   5.774   6.457   0.993 -0.2974 -1.2111 -2.1296
12984TIP3    H238894   5.918   6.492   0.962  0.1725 -0.3048  0.7892
12985TIP3   OH238895   0.619   6.293   4.579  0.3741  1.6273  0.3837
12985TIP3    H138896   0.699   6.305   4.630 -0.3163  1.1694  1.6338
12985TIP3    H238897   0.557   6.356   4.616  0.0320  1.7065 -0.3043
12986TIP3   OH238898   3.062   2.844   1.621  0.4313 -0.1944  0.2238
12986TIP3    H138899   2.995   2.862   1.555  0.2826 -0.3192  0.3400
12986TIP3    H238900   3.145   2.870   1.579  0.3502 -0.3779 -0.0507
12987TIP3   OH238901   5.555   4.153   2.266 -0.0433 -0.2080 -0.5607
12987TIP3    H138902   5.635   4.182   2.223  0.3836  1.4123  1.2018
12987TIP3    H238903   5.557   4.057   2.259  2.4924 -0.2673  0.1609
12988TIP3   OH238904   7.517   3.286   6.750  0.1797 -0.2459 -0.4005
12988TIP3    H138905   7.438   3.328   6.784  0.7306  0.7174 -0.2794
12988TIP3    H238906   7.488   3.197   6.727 -0.7019 -0.2405  0.5713
12989TIP3   OH238907   7.112   4.793   0.380 -0.1977 -0.3292 -0.2429
12989TIP3    H138908   7.072   4.867   0.334 -0.4769 -0.4345 -0.1746
12989TIP3    H238909   7.061   4.786   0.461 -1.3667 -1.7448 -1.0639
12990TIP3   OH238910   6.280   5.754   4.711  0.8623 -0.0358 -0.5372
12990TIP3    H138911   6.319   5.667   4.714  2.6033  0.7080  0.2566
12990TIP3    H238912   6.267   5.772   4.618  1.6881 -0.6448 -0.7807
12991TIP3   OH238913   2.189   2.065   1.393  0.3034 -0.1474 -0.0283
12991TIP3    H138914   2.116   2.057   1.454 -0.0038  1.4112 -0.1488
12991TIP3    H238915   2.186   1.984   1.342 -0.2547 -0.8769  1.1170
12992TIP3   OH238916   1.230   2.104   4.702  0.0174 -0.1448  0.3145
12992TIP3    H138917   1.263   2.014   4.709  1.0635  0.3238  1.5787
12992TIP3    H238918   1.309   2.158   4.691 -0.6589  0.5452 -1.6982
12993TIP3   OH238919   4.839   1.269   4.451 -0.6829  0.1875 -0.0904
12993TIP3    H138920   4.845   1.321   4.371 -0.4777  0.2465 -0.0381
12993TIP3    H238921   4.930   1.255   4.478 -0.7655  0.6042  0.4135
12994TIP3   OH238922   5.817   7.133   4.130  0.0712 -0.5435  0.0155
12994TIP3    H138923   5.773   7.171   4.054 -0.1049 -0.4031  0.1867
12994TIP3    H238924   5.779   7.046   4.138  0.0608 -0.5435 -0.0326
12995TIP3   OH238925   6.824   5.549   4.432 -0.0186 -0.0430 -0.2055
12995TIP3    H138926   6.814   5.613   4.362  0.2130 -0.1729 -0.3579
12995TIP3    H238927   6.909   5.569   4.471  0.1578 -0.3959 -0.3983
12996TIP3   OH238928   8.161   3.114   0.125 -0.2972  0.4309  0.1256
12996TIP3    H138929   8.146   3.073   0.040  0.4394 -0.4605  0.4062
12996TIP3    H238930   8.082   3.095   0.176  0.1958 -1.0607  0.3923
12997TIP3   OH238931   5.230   6.311   0.179 -0.5102  0.1916  0.3905
12997TIP3    H138932   5.167   6.284   0.112 -1.4823  2.0185  0.5125
12997TIP3    H238933   5.311   6.325   0.131 -0.9048  0.4145 -0.2259
12998TIP3   OH238934   2.360   3.364   4.997  0.1255  0.3521 -0.3221
12998TIP3    H138935   2.367   3.368   5.093  2.0165 -2.6063 -0.2376
12998TIP3    H238936   2.415   3.436   4.966  1.3389 -0.0559  0.8154
12999TIP3   OH238937   3.132   1.532   2.104  0.1190  0.1709  0.2943
12999TIP3    H138938   3.152   1.534   2.011 -0.3583  1.3336  0.2055
12999TIP3    H238939   3.046   1.490   2.110  0.1431  0.1110  0.2193
13000TIP3   OH238940   1.208   3.766   4.427  0.0222 -0.3198 -0.0243
13000TIP3    H138941   1.152   3.761   4.349 -0.2885 -0.9286  0.2348
13000TIP3    H238942   1.166   3.709   4.491  0.6433 -0.3486  0.3644
13001TIP3   OH238943   7.583   0.118   4.376 -0.0327  0.1781  0.6444
13001TIP3    H138944   7.545   0.186   4.432 -1.0728  1.6399 -1.6694
13001TIP3    H238945   7.559   0.145   4.287  2.0934 -1.6467 -0.5729
13002TIP3   OH238946   1.765   4.808   3.268 -0.1283  0.6020 -0.3442
13002TIP3    H138947   1.842   4.764   3.305 -0.5292  0.3597  0.2093
13002TIP3    H238948   1.723   4.740   3.215 -1.5802 -0.1818  1.7052
13003TIP3   OH238949   4.941   7.407   0.592  0.5166 -0.4037 -0.4400
13003TIP3    H138950   4.907   7.465   0.660  1.2284 -0.3730 -0.1041
13003TIP3    H238951   4.977   7.465   0.525 -0.5329 -0.4229 -1.0488
13004TIP3   OH238952   3.700   0.708   4.125  0.4636  0.5127 -0.0820
13004TIP3    H138953   3.715   0.734   4.034 -1.2047 -0.9047 -0.8327
13004TIP3    H238954   3.757   0.633   4.138  1.6350  1.4739  0.4834
13005TIP3   OH238955   8.397   4.003   1.859  0.1235 -0.3391 -0.2306
13005TIP3    H138956   8.360   4.002   1.947  0.4893 -0.3547 -0.0782
13005TIP3    H238957   8.389   3.912   1.828  0.6620 -0.4860  0.0619
13006TIP3   OH238958   6.172   0.986   1.755  0.3757  0.3407  0.2572
13006TIP3    H138959   6.192   1.056   1.817  1.4561 -2.5682  3.5811
13006TIP3    H238960   6.257   0.963   1.716  0.6201 -0.9244  1.4401
13007TIP3   OH238961   6.905   5.556   1.669  0.1532  0.2014 -0.0439
13007TIP3    H138962   6.868   5.569   1.756  0.6141 -0.6034  0.2857
13007TIP3    H238963   6.934   5.464   1.668  1.5664  0.6326 -0.4936
13008TIP3   OH238964   0.705   7.211   3.487 -0.1427 -0.3734  0.6069
13008TIP3    H138965   0.622   7.240   3.525 -0.2147 -0.5226  0.5635
13008TIP3    H238966   0.682   7.134   3.435 -0.3284  0.6859 -0.9720
13009TIP3   OH238967   7.427   1.344   3.832 -0.0613  0.5738 -0.0852
13009TIP3    H138968   7.367   1.410   3.797  0.1689  0.2934 -1.0512
13009TIP3    H238969   7.462   1.301   3.754 -2.8160 -3.0850  0.4494
13010TIP3   OH238970   1.914   0.042   1.558 -0.7630  0.0952  0.2508
13010TIP3    H138971   1.993  -0.010   1.541 -0.9255  0.3049 -1.3018
13010TIP3    H238972   1.842  -0.018   1.540 -0.9564  0.2351  0.5551
13011TIP3   OH238973   2.669   4.594   5.454 -0.5388  0.1392  0.2999
13011TIP3    H138974   2.663   4.587   5.358  0.3587  0.5976  0.2036
13011TIP3    H238975   2.621   4.518   5.486 -0.8249 -0.0362 -0.5162
13012TIP3   OH238976   0.478   7.574   3.306 -0.1592 -0.1839  0.1010
13012TIP3    H138977   0.410   7.543   3.367 -1.8740 -0.6415 -1.9228
13012TIP3    H238978   0.521   7.494   3.277  1.2808  0.1042  1.3408
13013TIP3   OH238979   4.760   6.166   4.109 -0.2055  0.2607 -0.4885
13013TIP3    H138980   4.758   6.260   4.126  4.4657  0.1463  2.3908
13013TIP3    H238981   4.718   6.127   4.185  0.9964  0.0585  0.1006
13014TIP3   OH238982   2.170   7.453   0.689  0.2517 -0.3424 -0.0413
13014TIP3    H138983   2.164   7.470   0.784 -1.4755 -0.9283 -0.0033
13014TIP3    H238984   2.082   7.471   0.657  0.7390 -0.4752 -1.5050
13015TIP3   OH238985   0.333   3.778   3.575 -0.0412 -0.2643 -0.5384
13015TIP3    H138986   0.319   3.833   3.498 -2.5291  1.8143  1.2418
13015TIP3    H238987   0.287   3.823   3.645  1.3090 -2.5637  1.9975
13016TIP3   OH238988   1.362   4.793   3.184  0.2621 -0.0701  0.0459
13016TIP3    H138989   1.318   4.744   3.115 -0.8369 -1.1058  1.4171
13016TIP3    H238990   1.297   4.800   3.254  0.1796  3.7211 -0.1730
13017TIP3   OH238991   6.466   0.686   1.127 -0.4615  0.0605  0.3846
13017TIP3    H138992   6.403   0.752   1.155  0.3217  1.4036 -0.8610
13017TIP3    H238993   6.413   0.608   1.107 -1.4938  0.5424  1.1704
13018TIP3   OH238994   8.250   3.686   2.765 -0.1806  0.3417 -0.0427
13018TIP3    H138995   8.301   3.686   2.685 -0.0707  2.0398 -0.0022
13018TIP3    H238996   8.178   3.624   2.748  0.6804 -0.4614 -0.8603
13019TIP3   OH238997   3.725   6.313   0.425 -0.3554 -0.4026  0.1664
13019TIP3    H138998   3.790   6.349   0.365  0.2319 -1.1440  0.3431
13019TIP3    H238999   3.768   6.237   0.465 -0.9127 -0.2062  1.1678
13020TIP3   OH239000   2.919   5.180   4.459 -0.2920  0.0457 -0.2732
13020TIP3    H139001   2.970   5.260   4.463 -0.1590  0.0370 -1.3165
13020TIP3    H239002   2.838   5.205   4.414  0.0221 -0.5135 -1.1895
13021TIP3   OH239003   6.432   2.504   5.653 -0.0792 -0.0631  0.1237
13021TIP3    H139004   6.472   2.493   5.567  2.7684  1.3846  1.1285
13021TIP3    H239005   6.444   2.420   5.696  0.5986 -0.0923 -0.1079
13022TIP3   OH239006   3.334   3.209   1.669 -0.3019 -0.1861 -0.7734
13022TIP3    H139007   3.324   3.303   1.684  0.0083 -0.1813 -0.5862
13022TIP3    H239008   3.260   3.170   1.715 -1.0540  0.0328 -1.7505
13023TIP3   OH239009   7.214   1.814   5.559 -0.5319  0.3405  0.5039
13023TIP3    H139010   7.227   1.755   5.633 -1.2863 -0.2118  0.2118
13023TIP3    H239011   7.215   1.756   5.483  0.5363  0.9338  0.0422
13024TIP3   OH239012   4.689   7.158   2.044  0.3643  0.1148  0.8844
13024TIP3    H139013   4.690   7.234   1.986  0.2576 -0.1661  0.5102
13024TIP3    H239014   4.689   7.195   2.132  1.4756  0.5504  0.7255
13025TIP3   OH239015   3.421   7.036   6.536 -0.6838  0.2744 -0.7325
13025TIP3    H139016   3.381   7.049   6.450  0.2233 -0.8617 -1.3633
13025TIP3    H239017   3.507   7.076   6.529 -0.3488 -0.4011 -0.5886
13026TIP3   OH239018   2.289   1.486   5.372  0.6244  0.5600  0.6611
13026TIP3    H139019   2.381   1.460   5.377  0.8114  1.3534  1.5900
13026TIP3    H239020   2.241   1.409   5.403  1.0375  0.5206  1.2134
13027TIP3   OH239021   1.111   1.045   1.572  0.2015 -0.6892 -0.3800
13027TIP3    H139022   1.179   0.983   1.599 -0.1796 -0.8793  0.1827
13027TIP3    H239023   1.059   1.057   1.651 -1.1563 -1.5031 -1.1168
13028TIP3   OH239024   4.743   4.989   5.225 -0.4975  0.3431 -0.0937
13028TIP3    H139025   4.736   5.079   5.256  0.8774  0.8058 -1.0343
13028TIP3    H239026   4.661   4.972   5.180 -1.2628  0.6932  1.1368
13029TIP3   OH239027   2.259   3.563   5.512  0.4531  0.1292  0.4134
13029TIP3    H139028   2.169   3.596   5.504  0.2962 -0.3468  0.1251
13029TIP3    H239029   2.248   3.471   5.538  0.8760  0.2967  1.2350
13030TIP3   OH239030   2.261   4.345   4.265 -0.5120 -0.5633 -0.8116
13030TIP3    H139031   2.330   4.296   4.310  0.2030  0.9894 -0.1588
13030TIP3    H239032   2.218   4.280   4.209  1.5067 -1.5735 -1.2742
13031TIP3   OH239033   6.394   6.051   0.067  0.0898  0.0801  0.1746
13031TIP3    H139034   6.468   6.094   0.109  0.6900  1.4930 -2.1496
13031TIP3    H239035   6.336   6.028   0.140  1.5138  1.4332  1.8417
13032TIP3   OH239036   5.410   6.892   3.279 -0.0548 -0.2759 -0.1623
13032TIP3    H139037   5.387   6.964   3.221 -0.7098  0.0429  0.4772
13032TIP3    H239038   5.468   6.930   3.344  0.3464 -0.5398 -0.3615
13033TIP3   OH239039   4.086   0.341   1.302  0.4935 -0.1829 -0.0043
13033TIP3    H139040   4.179   0.360   1.315  0.9149 -1.3862 -1.0489
13033TIP3    H239041   4.042   0.425   1.314  1.5895  0.1952  1.5792
13034TIP3   OH239042   2.254   2.805   6.616  0.7217 -0.4187 -0.1446
13034TIP3    H139043   2.322   2.850   6.666 -1.1693  0.8861  1.3649
13034TIP3    H239044   2.267   2.836   6.526  1.9022  0.0545  0.1620
13035TIP3   OH239045   5.967   0.237   0.321  0.5655 -0.3583 -0.0347
13035TIP3    H139046   5.922   0.320   0.339  0.3255 -0.6514  0.7633
13035TIP3    H239047   5.982   0.238   0.226 -1.3028 -0.3361 -0.3697
13036TIP3   OH239048   1.468   5.171   5.413 -0.4920  0.4562  0.1343
13036TIP3    H139049   1.475   5.075   5.408 -0.0591  0.4857  0.1511
13036TIP3    H239050   1.378   5.189   5.388 -0.5937  0.0375  0.1828
13037TIP3   OH239051   6.964   1.312   2.792  0.3897 -0.4387  0.6990
13037TIP3    H139052   6.909   1.248   2.837 -0.7134  0.3794  0.5659
13037TIP3    H239053   6.924   1.320   2.705 -0.0798  1.0982  1.0170
13038TIP3   OH239054   4.240   5.616   0.314 -0.6583 -0.4949 -0.3840
13038TIP3    H139055   4.156   5.591   0.352 -1.6007  1.9419 -0.6891
13038TIP3    H239056   4.221   5.629   0.221  0.1137 -0.0802 -0.4942
13039TIP3   OH239057   5.821   3.001   0.800  0.9454 -0.0425  0.8999
13039TIP3    H139058   5.835   3.042   0.715 -2.8228  3.1927  1.5226
13039TIP3    H239059   5.890   3.036   0.856  2.0617 -0.3428 -0.2523
13040TIP3   OH239060   2.699   2.338   5.810  0.1222 -0.1539 -0.0003
13040TIP3    H139061   2.747   2.352   5.728 -0.1093 -0.6130 -0.2152
13040TIP3    H239062   2.607   2.342   5.786  0.0318  1.5093  0.5485
13041TIP3   OH239063   6.673   3.489   4.911 -0.2015  0.3513 -0.4039
13041TIP3    H139064   6.638   3.429   4.976  0.8645 -0.2829 -0.3796
13041TIP3    H239065   6.597   3.531   4.872 -0.8286  1.4929  1.9341
13042TIP3   OH239066   0.315   4.563   2.669 -0.6095 -0.0743 -0.2006
13042TIP3    H139067   0.295   4.624   2.597  0.1027  1.3443  0.7544
13042TIP3    H239068   0.340   4.620   2.742  2.2029 -1.5571  0.1186
13043TIP3   OH239069   3.977   1.566   2.292 -0.3612 -0.3472  0.4235
13043TIP3    H139070   4.058   1.566   2.242 -0.4140  1.0691  0.2944
13043TIP3    H239071   4.001   1.531   2.377  0.3909  0.0707  0.3878
13044TIP3   OH239072   6.445   1.908   4.519 -0.2761  0.0858  0.2296
13044TIP3    H139073   6.414   1.997   4.532  0.7979  0.3957  0.8367
13044TIP3    H239074   6.540   1.916   4.517 -0.1855 -0.9535 -0.5009
13045TIP3   OH239075   5.024   3.129   5.363 -0.1583  0.1246 -0.5548
13045TIP3    H139076   4.937   3.167   5.352 -0.8933 -1.4066 -0.1561
13045TIP3    H239077   5.083   3.204   5.355 -1.5878  1.4804  0.9406
13046TIP3   OH239078   6.373   4.516   2.055  0.0438  0.2584  0.3010
13046TIP3    H139079   6.449   4.573   2.042  0.2570 -0.3529 -1.2497
13046TIP3    H239080   6.410   4.432   2.083 -0.0588 -0.0179 -0.3826
13047TIP3   OH239081   4.868   0.914   1.317 -0.2732 -0.1046  0.9300
13047TIP3    H139082   4.915   0.831   1.312 -0.4618 -0.2780  1.8989
13047TIP3    H239083   4.882   0.945   1.406 -1.5310  0.1215  1.0654
13048TIP3   OH239084   3.577   1.556   4.691  0.2263 -0.2761 -0.5416
13048TIP3    H139085   3.584   1.650   4.702  1.6004 -0.3634 -0.4745
13048TIP3    H239086   3.552   1.524   4.778 -0.3051  0.0306 -0.5814
13049TIP3   OH239087   2.688   1.009   1.722  0.4187 -0.1114  0.3944
13049TIP3    H139088   2.741   1.041   1.796  0.4633  0.5740  0.0701
13049TIP3    H239089   2.600   0.998   1.758  0.7071 -0.9822  0.8654
13050TIP3   OH239090   1.044   2.291   3.820  0.3510  1.0074  0.0566
13050TIP3    H139091   0.966   2.253   3.858  0.3171  0.0128 -0.9783
13050TIP3    H239092   1.012   2.362   3.764 -0.0219 -0.6182 -1.8971
13051TIP3   OH239093   2.374   5.506   2.404  0.3960 -0.2646  0.1295
13051TIP3    H139094   2.419   5.577   2.358  0.1353 -1.9834 -3.0628
13051TIP3    H239095   2.444   5.450   2.437  0.6451 -0.7515 -1.1750
13052TIP3   OH239096   1.481   5.526   2.815  0.0995 -0.4815 -0.4080
13052TIP3    H139097   1.550   5.591   2.799 -0.4078 -0.1343 -1.2319
13052TIP3    H239098   1.521   5.442   2.793 -0.0663 -0.1753 -1.9861
13053TIP3   OH239099   0.856   3.722   5.390 -0.4806  0.0307  0.2690
13053TIP3    H139100   0.835   3.665   5.464  1.5529  0.4371  1.2179
13053TIP3    H239101   0.776   3.774   5.376 -1.2780 -0.8332  1.4312
13054TIP3   OH239102   7.861   3.176   6.303  0.4499 -0.0799  0.7889
13054TIP3    H139103   7.880   3.090   6.340 -0.2521 -0.4887  0.2206
13054TIP3    H239104   7.770   3.171   6.275  1.2119 -0.1882 -1.9982
13055TIP3   OH239105   7.678   5.994   5.228 -0.0810 -0.2755 -0.5516
13055TIP3    H139106   7.756   5.947   5.197  0.3279 -0.1418  0.2576
13055TIP3    H239107   7.653   6.050   5.154 -0.6938 -1.8872 -1.6203
13056TIP3   OH239108   1.361   1.072   6.447 -0.2373  0.3261 -0.3388
13056TIP3    H139109   1.371   1.078   6.352 -1.1647 -1.4929 -0.6080
13056TIP3    H239110   1.307   1.147   6.471  0.1826  0.9194 -1.2113
13057TIP3   OH239111   2.414   4.852   6.498  0.6665  0.3408 -0.0405
13057TIP3    H139112   2.335   4.852   6.553 -1.1961 -0.9544 -2.4519
13057TIP3    H239113   2.460   4.772   6.522 -0.4257 -0.5076 -0.6497
13058TIP3   OH239114   3.117   2.965   5.322  0.1469  0.1197  0.0447
13058TIP3    H139115   3.129   2.942   5.414 -0.3430 -0.4197 -0.0243
13058TIP3    H239116   3.187   2.919   5.276 -0.6187 -0.9858 -0.0509
13059TIP3   OH239117   2.375   4.685   1.367  0.3406 -0.5879  0.1135
13059TIP3    H139118   2.301   4.627   1.346 -1.6071  1.2922  1.4638
13059TIP3    H239119   2.392   4.732   1.285  2.0285 -2.9330 -1.0495
13060TIP3   OH239120   7.199   2.012   5.096  0.0364  0.5485 -0.4256
13060TIP3    H139121   7.191   2.010   5.192 -1.7401  0.1171 -0.5480
13060TIP3    H239122   7.293   2.023   5.080  0.5657 -0.8387  1.3598
13061TIP3   OH239123   2.936   1.248   4.318 -0.1779 -0.1779 -0.0457
13061TIP3    H139124   2.849   1.274   4.288  0.0048 -0.3929 -0.7746
13061TIP3    H239125   2.994   1.314   4.281 -0.1192  0.5154  1.2261
13062TIP3   OH239126   0.296   2.923   4.967  0.0094  0.3697 -0.0390
13062TIP3    H139127   0.391   2.922   4.954 -0.0597 -1.4078 -0.6252
13062TIP3    H239128   0.281   2.862   5.039 -0.5727  2.0479  1.3432
13063TIP3   OH239129   5.199   2.806   2.160  0.2732 -0.1874  0.1269
13063TIP3    H139130   5.265   2.807   2.091 -0.2221  0.4030 -0.3479
13063TIP3    H239131   5.191   2.897   2.187  0.0811 -0.3402  0.6049
13064TIP3   OH239132   7.200   1.352   2.306  0.1701 -0.4344 -0.1849
13064TIP3    H139133   7.289   1.362   2.273  0.0921 -1.1251 -0.6179
13064TIP3    H239134   7.210   1.355   2.401  1.1011 -3.6035 -0.0668
13065TIP3   OH239135   0.531   7.544   5.621 -0.3256 -0.0334 -0.2932
13065TIP3    H139136   0.444   7.506   5.606 -0.5323  0.2144  0.2301
13065TIP3    H239137   0.516   7.609   5.691  0.4992 -0.8017  0.6154
13066TIP3   OH239138   6.222   2.597   6.064  0.2041  0.1875  0.1407
13066TIP3    H139139   6.198   2.535   5.995 -0.1902  0.7396 -0.2240
13066TIP3    H239140   6.318   2.601   6.060  0.3073 -1.0585  0.7609
13067TIP3   OH239141   8.148   4.639   0.813  0.0165  1.0304 -0.0751
13067TIP3    H139142   8.087   4.582   0.860  1.9370 -0.2590  0.9842
13067TIP3    H239143   8.186   4.582   0.746  0.6725  1.5784 -0.1726
13068TIP3   OH239144   5.479   7.432   2.393  0.2702  0.0204  0.4678
13068TIP3    H139145   5.388   7.434   2.361  0.4694 -1.2215 -0.2362
13068TIP3    H239146   5.472   7.453   2.486 -0.5791  1.3526  0.1332
13069TIP3   OH239147   4.495   4.945   6.664 -0.4265  0.4932  0.2820
13069TIP3    H139148   4.556   5.012   6.634 -0.2415 -0.4378 -1.5287
13069TIP3    H239149   4.468   4.975   6.751  1.5682  1.6134  0.5783
13070TIP3   OH239150   2.257   5.482   6.825  0.1434 -0.0144  0.0007
13070TIP3    H139151   2.304   5.562   6.848  0.7604 -0.1435 -0.7800
13070TIP3    H239152   2.277   5.468   6.732  1.7079 -2.1661  0.5840
13071TIP3   OH239153   1.151   4.873   1.469 -0.6143  0.1841 -0.2143
13071TIP3    H139154   1.154   4.966   1.449  1.8719  0.1026 -0.5891
13071TIP3    H239155   1.082   4.864   1.535 -1.7017  2.0806 -1.0269
13072TIP3   OH239156   2.168   2.760   5.271 -0.1420  0.3769 -0.0004
13072TIP3    H139157   2.145   2.775   5.180  0.7256  0.2022 -0.2589
13072TIP3    H239158   2.167   2.847   5.311 -1.8901  0.3059  0.1728
13073TIP3   OH239159   2.310   1.751   4.471 -0.5326  0.0800  0.0310
13073TIP3    H139160   2.404   1.754   4.456  0.3462  1.4466  4.3669
13073TIP3    H239161   2.273   1.811   4.406  1.9807  1.8116  0.0815
13074TIP3   OH239162   8.177   7.537   6.340  0.2320  0.4000 -0.3237
13074TIP3    H139163   8.101   7.480   6.354  0.6115 -0.0309  0.0334
13074TIP3    H239164   8.199   7.526   6.247 -0.3346  0.7722 -0.5010
13075TIP3   OH239165   4.583   0.696   6.303 -0.2893 -0.8006 -0.1263
13075TIP3    H139166   4.534   0.769   6.266  0.9950 -0.5806 -1.4671
13075TIP3    H239167   4.629   0.657   6.229  2.5473 -0.2368  1.2071
13076TIP3   OH239168   7.830   7.516   4.322  0.2433 -0.4152 -0.1281
13076TIP3    H139169   7.852   7.599   4.280  1.2451  0.0874  1.2868
13076TIP3    H239170   7.913   7.487   4.361 -0.2297 -1.7889 -0.1073
13077TIP3   OH239171   3.376   6.630   0.766  0.6916 -0.3141 -0.0704
13077TIP3    H139172   3.300   6.687   0.761  1.2328  0.4559  0.3484
13077TIP3    H239173   3.415   6.635   0.678  0.5713 -0.2886 -0.1227
13078TIP3   OH239174   0.650   3.997   5.700  0.0961  0.2196 -0.0244
13078TIP3    H139175   0.619   3.971   5.787  0.7952  1.3080  0.5742
13078TIP3    H239176   0.738   3.959   5.694  0.6379  1.3708  0.3636
13079TIP3   OH239177   7.343   4.345   4.771  0.0150 -0.4939  0.0942
13079TIP3    H139178   7.275   4.387   4.718 -1.3985 -0.3295  1.9174
13079TIP3    H239179   7.411   4.411   4.781 -0.0791 -0.2532 -0.8000
13080TIP3   OH239180   3.830   4.273   5.204  0.3033  0.1919  0.4332
13080TIP3    H139181   3.857   4.258   5.113  1.3113 -0.9483  0.8940
13080TIP3    H239182   3.751   4.220   5.214 -1.1287  2.0711 -0.3846
13081TIP3   OH239183   0.283   3.214   0.461 -0.9695 -0.1196  0.8424
13081TIP3    H139184   0.255   3.304   0.480  0.9540  0.2197  2.3958
13081TIP3    H239185   0.378   3.220   0.452 -0.8626 -1.9190  0.2933
13082TIP3   OH239186   1.168   3.527   1.660 -0.5828  0.0338 -0.2192
13082TIP3    H139187   1.125   3.447   1.690 -0.2462 -0.2508 -0.4873
13082TIP3    H239188   1.099   3.593   1.660 -0.8290 -0.2203  0.1484
13083TIP3   OH239189   5.722   2.029   1.985 -0.0725  0.2172 -0.0627
13083TIP3    H139190   5.733   2.124   1.988  0.2692  0.2660 -1.6518
13083TIP3    H239191   5.711   2.002   2.076  1.4447  1.5978  0.5758
13084TIP3   OH239192   6.648   3.159   4.493  0.1802 -0.8041  0.4515
13084TIP3    H139193   6.559   3.133   4.517 -0.5284  0.0817 -1.0373
13084TIP3    H239194   6.683   3.200   4.572  0.0357 -2.9142  1.6865
13085TIP3   OH239195   2.047   2.095   1.938 -0.0663 -0.2017  0.0689
13085TIP3    H139196   2.122   2.093   1.878  0.8124  0.3244  1.1072
13085TIP3    H239197   2.066   2.168   1.997 -0.9223 -0.6968  0.9773
13086TIP3   OH239198   5.593   6.215   5.251  0.5812  0.0950  0.2269
13086TIP3    H139199   5.639   6.196   5.170  1.1708  1.4818  0.1934
13086TIP3    H239200   5.508   6.173   5.242  1.5434 -1.9353 -0.0208
13087TIP3   OH239201   2.808   4.344   3.873 -0.0061 -0.1907  0.2126
13087TIP3    H139202   2.890   4.294   3.870  0.8876  1.2193 -0.3025
13087TIP3    H239203   2.835   4.434   3.851 -1.6417  0.3803  0.4346
13088TIP3   OH239204   4.318   5.514   0.687  0.0701  0.5569  0.3133
13088TIP3    H139205   4.339   5.441   0.628 -0.7358 -0.5596  1.3466
13088TIP3    H239206   4.334   5.592   0.635 -0.8299 -0.3860 -1.4730
13089TIP3   OH239207   0.279   1.301   6.498  0.0300 -0.2237 -0.4618
13089TIP3    H139208   0.199   1.316   6.550 -0.1335  0.0251 -0.7858
13089TIP3    H239209   0.350   1.308   6.561 -0.2142 -0.6073 -0.1365
13090TIP3   OH239210   3.532   0.459   2.786  0.2365 -0.5065  0.1414
13090TIP3    H139211   3.606   0.439   2.729 -0.1119 -2.7933  0.3917
13090TIP3    H239212   3.565   0.526   2.846  0.4471  2.3898 -2.9493
13091TIP3   OH239213   1.352   5.962   3.642 -0.2352 -0.1818 -0.4426
13091TIP3    H139214   1.344   6.009   3.559 -2.9004  0.8485  0.2703
13091TIP3    H239215   1.323   5.873   3.623  0.5070 -0.3274 -0.8964
13092TIP3   OH239216   2.313   2.143   6.473  0.3256 -0.2733 -0.5577
13092TIP3    H139217   2.361   2.071   6.515 -0.7431  0.1618  1.5610
13092TIP3    H239218   2.229   2.145   6.519  0.3859  2.4165 -0.4356
13093TIP3   OH239219   4.234   0.165   0.282  0.4661  0.0738  0.0917
13093TIP3    H139220   4.156   0.152   0.336  1.3275  0.2199  1.4249
13093TIP3    H239221   4.203   0.154   0.192 -1.0940  0.1866  0.5811
13094TIP3   OH239222   3.130   1.701   0.946 -0.3835 -0.1937 -0.2444
13094TIP3    H139223   3.050   1.745   0.918 -0.3524  0.0654  0.0636
13094TIP3    H239224   3.151   1.742   1.030  0.2073 -0.0851 -0.4433
13095TIP3   OH239225   5.504   7.579   0.902  0.6290  0.2393  0.1348
13095TIP3    H139226   5.470   7.632   0.974  0.4723 -1.6616  1.5255
13095TIP3    H239227   5.456   7.496   0.908  2.5332 -0.9702 -0.4441
13096TIP3   OH239228   8.433   3.768   5.865 -0.2371  0.0253 -0.2711
13096TIP3    H139229   8.388   3.743   5.784 -1.7781  0.0991  0.5321
13096TIP3    H239230   8.365   3.769   5.931  0.6441  1.7680  0.6871
13097TIP3   OH239231   2.064   6.817   4.770  0.2175  0.1074 -0.6411
13097TIP3    H139232   2.153   6.780   4.771 -0.8179 -2.7097 -1.6465
13097TIP3    H239233   2.018   6.767   4.702 -2.7174 -0.0720  1.2840
13098TIP3   OH239234   5.144   0.166   3.713 -0.2631 -0.2694  0.9348
13098TIP3    H139235   5.077   0.201   3.655 -1.2035 -1.9617  0.9522
13098TIP3    H239236   5.204   0.119   3.655 -0.4804 -0.8428  1.1595
13099TIP3   OH239237   8.124   4.732   5.227  0.3086 -0.3465 -0.5389
13099TIP3    H139238   8.122   4.738   5.323 -1.4280 -0.0882 -0.5666
13099TIP3    H239239   8.087   4.646   5.208  0.1689 -0.1839 -1.0007
13100TIP3   OH239240   5.372   4.344   4.549  0.1055  0.2920 -0.0611
13100TIP3    H139241   5.322   4.425   4.559 -1.2889 -0.3343 -1.5554
13100TIP3    H239242   5.393   4.318   4.638 -2.5216  0.4478  0.6788
13101TIP3   OH239243   0.700   0.233   0.224  0.1082 -0.8018  0.0914
13101TIP3    H139244   0.765   0.292   0.262  0.7277 -0.7913 -0.9481
13101TIP3    H239245   0.624   0.241   0.282  1.0728 -0.9406  1.4366
13102TIP3   OH239246   0.835   5.309   2.101  0.4362  0.2282 -0.6418
13102TIP3    H139247   0.816   5.403   2.093  1.3322  0.5934  1.0388
13102TIP3    H239248   0.824   5.275   2.012 -0.3447  1.8377 -1.2052
13103TIP3   OH239249   7.542   2.984   1.761  0.4338 -0.2959  0.3256
13103TIP3    H139250   7.588   2.908   1.796  0.5435 -1.1491 -1.5571
13103TIP3    H239251   7.589   3.059   1.798  1.1809 -1.1383  1.1299
13104TIP3   OH239252   0.704   2.355   0.845  0.1680  0.3024  0.3607
13104TIP3    H139253   0.765   2.344   0.918  0.6829  1.0002  0.0501
13104TIP3    H239254   0.736   2.433   0.799 -1.2730  1.0214  0.5150
13105TIP3   OH239255   0.949   1.251   2.267  0.0782  0.2711 -0.2179
13105TIP3    H139256   0.912   1.316   2.207 -0.1580 -1.5129 -2.1250
13105TIP3    H239257   1.015   1.205   2.215  0.8261 -0.4732  1.3283
13106TIP3   OH239258   7.248   7.666   1.362 -0.3882  0.8176  0.2317
13106TIP3    H139259   7.202   7.592   1.322 -2.7110  2.8089 -1.0526
13106TIP3    H239260   7.221   7.663   1.454 -0.4549  0.0704  0.1992
13107TIP3   OH239261   8.001   6.417   5.100 -0.3778  0.1770 -0.7082
13107TIP3    H139262   8.024   6.341   5.046  0.1999 -0.5408  0.5257
13107TIP3    H239263   7.905   6.413   5.106 -0.2544 -1.9482  1.3679
13108TIP3   OH239264   2.563   5.732   3.867  0.5184  0.2658 -0.1502
13108TIP3    H139265   2.620   5.805   3.844  2.4975 -0.5721  1.7691
13108TIP3    H239266   2.502   5.725   3.794  1.7305  2.3630 -1.4472
13109TIP3   OH239267   0.867   1.003   1.443  0.2659  0.0248 -0.2481
13109TIP3    H139268   0.915   0.953   1.377  0.7913  0.2693 -0.0562
13109TIP3    H239269   0.929   1.071   1.471 -0.8354  1.5551 -1.3702
13110TIP3   OH239270   6.345   2.053   5.886  0.2881 -0.4762 -0.5245
13110TIP3    H139271   6.306   2.032   5.971 -0.4528  0.3753 -0.6369
13110TIP3    H239272   6.341   1.972   5.837 -5.4004  0.3199 -2.1130
13111TIP3   OH239273   1.174   2.662   6.062  0.1398 -0.4309 -0.0967
13111TIP3    H139274   1.184   2.567   6.051  0.8175 -0.4142  0.3074
13111TIP3    H239275   1.079   2.676   6.065  0.0391 -1.1282  0.1065
13112TIP3   OH239276   1.496   4.779   6.079  0.3311  0.2143  0.6199
13112TIP3    H139277   1.433   4.765   6.009  0.0796  2.0730  0.4205
13112TIP3    H239278   1.460   4.732   6.154 -0.6887  0.2910  0.1870
13113TIP3   OH239279   5.005   6.010   2.525 -0.2886  0.4769 -0.5209
13113TIP3    H139280   5.070   6.036   2.591 -1.3447  2.1866 -0.0887
13113TIP3    H239281   4.923   6.005   2.574 -0.9381  0.8979 -1.5327
13114TIP3   OH239282   7.532   1.402   5.097 -0.2010 -0.1221 -0.2162
13114TIP3    H139283   7.618   1.381   5.135  0.0753 -0.0645 -0.8024
13114TIP3    H239284   7.524   1.343   5.022 -0.5531  0.0624 -0.3255
13115TIP3   OH239285   8.335   7.273   4.800 -0.0981  0.1602 -0.1721
13115TIP3    H139286   8.252   7.298   4.841  0.2402  2.1169 -0.5911
13115TIP3    H239287   8.399   7.279   4.872 -0.4459 -2.7194  0.5127
13116TIP3   OH239288   6.335   5.641   1.437 -0.4899 -0.1932  0.3775
13116TIP3    H139289   6.335   5.640   1.533 -1.6145  0.7617  0.4093
13116TIP3    H239290   6.398   5.709   1.414 -0.5060 -0.1501  0.4568
13117TIP3   OH239291   0.606   1.807   0.997 -0.1046  0.0841 -1.7127
13117TIP3    H139292   0.572   1.853   1.073  4.6470 -1.7368  2.0711
13117TIP3    H239293   0.656   1.874   0.949  1.1583  0.3650 -0.1086
13118TIP3   OH239294   3.872   0.806   1.619 -0.0879  0.0615  0.2121
13118TIP3    H139295   3.913   0.726   1.586 -0.0327  0.1330  0.1053
13118TIP3    H239296   3.926   0.832   1.693 -0.4407 -0.3183  0.6146
13119TIP3   OH239297   0.263   1.149   4.151  0.8313 -0.2300  0.0429
13119TIP3    H139298   0.245   1.064   4.110 -1.4160  0.2492 -0.0805
13119TIP3    H239299   0.187   1.165   4.208  1.4883  1.4372  0.5113
13120TIP3   OH239300   3.607   0.182   2.407 -0.2690 -0.1813 -0.3667
13120TIP3    H139301   3.612   0.277   2.403 -1.1857 -0.1437 -0.9456
13120TIP3    H239302   3.677   0.152   2.350  1.4059  0.0941  1.4574
13121TIP3   OH239303   2.413   4.180   0.468  0.3741 -0.3064 -0.0510
13121TIP3    H139304   2.412   4.107   0.529  1.0403 -0.4782 -0.2448
13121TIP3    H239305   2.321   4.192   0.444  0.3248 -1.4920 -0.5190
13122TIP3   OH239306   6.312   4.950   4.652  0.0557 -0.5072 -0.1993
13122TIP3    H139307   6.269   5.026   4.691  0.0778 -0.2186 -0.7177
13122TIP3    H239308   6.263   4.874   4.685 -1.3446 -0.1563 -1.3465
13123TIP3   OH239309   8.224   6.632   3.072  0.3873 -0.1659  0.1333
13123TIP3    H139310   8.182   6.584   3.143 -0.7782  0.4998 -0.0826
13123TIP3    H239311   8.317   6.610   3.080  0.3357  0.2079  2.0931
13124TIP3   OH239312   5.232   7.657   5.619 -0.7853  0.4773 -0.4934
13124TIP3    H139313   5.186   7.723   5.567 -0.4755  1.1571  0.0749
13124TIP3    H239314   5.248   7.700   5.703  1.8710  0.7059 -1.0262
13125TIP3   OH239315   6.867   0.854   5.534 -0.3147  0.5801  0.3390
13125TIP3    H139316   6.932   0.794   5.496  0.8092  2.8145 -1.5084
13125TIP3    H239317   6.868   0.834   5.627 -1.5063 -3.5967 -0.3214
13126TIP3   OH239318   5.159   3.022   5.884  0.2440  0.0448 -0.1017
13126TIP3    H139319   5.068   2.996   5.902  0.3233 -0.2641 -0.1452
13126TIP3    H239320   5.165   3.020   5.789  0.2978  0.0542 -0.0983
13127TIP3   OH239321   1.937   1.990   6.277 -0.2676 -0.4764 -0.3047
13127TIP3    H139322   1.986   1.972   6.197  1.0048 -1.5944  0.6948
13127TIP3    H239323   1.968   2.076   6.306 -0.0307 -0.4969 -0.4965
13128TIP3   OH239324   5.645   1.119   3.275 -0.4626 -0.1923  0.1254
13128TIP3    H139325   5.658   1.142   3.368  0.2198  1.3383 -0.3024
13128TIP3    H239326   5.558   1.151   3.254 -2.4669 -4.3156  1.2380
13129TIP3   OH239327   2.819   3.450   6.053  0.1342 -0.4597  0.0840
13129TIP3    H139328   2.775   3.384   6.107 -1.2091 -1.4519 -2.0895
13129TIP3    H239329   2.754   3.475   5.988  1.6001  0.8511 -0.9520
13130TIP3   OH239330   7.131   0.747   2.142  0.1846 -0.3262 -0.3409
13130TIP3    H139331   7.039   0.773   2.148  0.1015 -0.4397 -1.0671
13130TIP3    H239332   7.141   0.680   2.210  0.2519  1.1239  1.1357
13131TIP3   OH239333   2.601   5.386   3.900 -0.1516 -0.2731  0.0955
13131TIP3    H139334   2.596   5.465   3.846  0.6845  0.2283  0.7310
13131TIP3    H239335   2.514   5.377   3.938 -0.8739 -0.8530 -1.6126
13132TIP3   OH239336   6.169   2.842   2.611 -0.0756 -0.7167  0.2653
13132TIP3    H139337   6.188   2.748   2.600 -1.7719 -1.1089  0.3938
13132TIP3    H239338   6.075   2.849   2.595  0.3994  1.3832 -2.3422
13133TIP3   OH239339   2.269   1.971   3.462  0.2487 -0.9796 -0.1300
13133TIP3    H139340   2.180   1.934   3.464 -0.2348  0.0713 -0.9688
13133TIP3    H239341   2.306   1.940   3.379  0.7005 -1.4715  0.2500
13134TIP3   OH239342   2.917   6.653   2.064 -0.0976 -0.2299  0.0389
13134TIP3    H139343   3.011   6.631   2.065 -0.5789 -2.5481  0.3658
13134TIP3    H239344   2.899   6.682   2.153  0.4733  1.1665 -0.2749
13135TIP3   OH239345   7.905   2.390   4.402 -0.0540 -0.3351  0.2003
13135TIP3    H139346   7.839   2.346   4.455  0.1305 -0.0486  0.6841
13135TIP3    H239347   7.923   2.330   4.329 -0.6596 -0.5213  0.2037
13136TIP3   OH239348   3.619   7.607   3.754 -0.1683 -0.5591 -0.2169
13136TIP3    H139349   3.662   7.546   3.814 -0.1392 -0.3397 -0.0101
13136TIP3    H239350   3.673   7.606   3.676  0.5691  0.1793  0.2706
13137TIP3   OH239351   4.599   1.639   1.304  0.1864 -0.5637 -0.3374
13137TIP3    H139352   4.517   1.685   1.284 -0.7590 -0.9174  2.3489
13137TIP3    H239353   4.598   1.563   1.246 -0.8781 -0.0474 -1.0442
13138TIP3   OH239354   0.742   5.438   0.098 -0.3473  0.5737  0.4294
13138TIP3    H139355   0.654   5.470   0.117 -0.2909  1.2890 -0.4528
13138TIP3    H239356   0.799   5.483   0.160 -0.4273  1.2670  0.0141
13139TIP3   OH239357   4.074   0.694   4.230  0.1159  0.0539  0.3111
13139TIP3    H139358   4.054   0.728   4.142 -0.0444 -1.2388 -0.1783
13139TIP3    H239359   4.013   0.621   4.241  0.7738 -0.3802  1.1176
13140TIP3   OH239360   2.969   7.617   2.570 -0.6946  0.4982 -0.0965
13140TIP3    H139361   2.985   7.533   2.612 -0.5885 -0.6182 -2.2590
13140TIP3    H239362   3.025   7.679   2.619  0.8703 -1.0679  0.2035
13141TIP3   OH239363   3.287   0.421   1.058  0.5368  0.3108  0.1393
13141TIP3    H139364   3.334   0.482   1.115  2.4503 -0.8339 -0.1355
13141TIP3    H239365   3.202   0.462   1.044  1.6991  2.8832  0.0411
13142TIP3   OH239366   5.378   4.077   4.880  0.8509 -0.2140 -0.1695
13142TIP3    H139367   5.360   4.106   4.969  0.2265  0.4852 -0.5172
13142TIP3    H239368   5.444   4.139   4.847  0.8280 -0.2618 -0.3089
13143TIP3   OH239369   5.317   5.543   6.093 -0.0606  0.2985  0.3829
13143TIP3    H139370   5.242   5.487   6.111 -0.0897  0.1740 -0.1023
13143TIP3    H239371   5.279   5.630   6.079 -0.4534 -0.2455 -2.5547
13144TIP3   OH239372   4.299   5.964   5.132 -0.0652 -0.2141  0.3489
13144TIP3    H139373   4.220   5.920   5.101  0.4460  0.5851 -2.4246
13144TIP3    H239374   4.292   6.053   5.098  1.7069  0.0682  0.6049
13145TIP3   OH239375   8.384   4.962   6.503 -0.2111  0.1540 -0.2720
13145TIP3    H139376   8.320   4.962   6.575  2.8840 -0.5138  2.7302
13145TIP3    H239377   8.417   5.052   6.502 -0.3895  0.2149 -1.0597
13146TIP3   OH239378   3.226  -0.003   5.328 -0.1148 -0.1806  0.0844
13146TIP3    H139379   3.313   0.038   5.326 -0.8610  1.4679  0.5084
13146TIP3    H239380   3.211  -0.022   5.420 -0.0853 -0.7670 -0.0274
13147TIP3   OH239381   2.484   2.191  -0.006  0.1549  0.3242 -0.3684
13147TIP3    H139382   2.456   2.174   0.084  0.1649 -0.5497 -0.5183
13147TIP3    H239383   2.433   2.267  -0.033 -0.4472  0.0982  0.1080
13148TIP3   OH239384   6.851   4.358   4.148 -0.2368 -0.4217  0.0434
13148TIP3    H139385   6.817   4.430   4.201  0.3095 -0.3086  0.2450
13148TIP3    H239386   6.789   4.287   4.162 -1.0391  0.1506 -0.5210
13149TIP3   OH239387   3.886   2.352   2.565 -0.1659 -0.1972  0.3985
13149TIP3    H139388   3.897   2.278   2.625  0.6803 -0.5347 -0.1445
13149TIP3    H239389   3.865   2.426   2.621 -0.9158 -0.8247  0.9677
13150TIP3   OH239390   5.753   1.089   4.443 -0.3066 -0.5715  0.5702
13150TIP3    H139391   5.817   1.107   4.374 -1.5997 -1.7975 -1.0279
13150TIP3    H239392   5.805   1.084   4.523  1.6337 -1.7723 -0.6930
13151TIP3   OH239393   1.955   6.312   0.098 -0.4529 -0.9738 -0.1418
13151TIP3    H139394   2.009   6.270   0.031 -0.4056 -0.7136 -0.2678
13151TIP3    H239395   1.925   6.394   0.058 -0.8177 -1.0427 -0.0194
13152TIP3   OH239396   0.028   7.280   1.606 -0.4426 -0.0435 -0.8378
13152TIP3    H139397   0.028   7.302   1.513 -1.4337 -0.8850 -1.0568
13152TIP3    H239398   0.004   7.187   1.609  0.0045 -0.1461  0.2369
13153TIP3   OH239399   6.393   5.071   5.224  0.4581 -0.2975  0.6085
13153TIP3    H139400   6.400   5.070   5.319  2.9851 -1.4774  0.5032
13153TIP3    H239401   6.483   5.059   5.193 -0.3280 -0.3595 -1.9424
13154TIP3   OH239402   4.091   6.525   1.359 -0.0317  0.2844  0.1030
13154TIP3    H139403   4.165   6.585   1.350  1.0835 -0.6981  2.0688
13154TIP3    H239404   4.093   6.472   1.279  2.3145 -0.6513  0.6932
13155TIP3   OH239405   7.299   7.921   0.273 -0.3049 -0.2280  0.0984
13155TIP3    H139406   7.395   7.917   0.270 -0.2909 -0.7853  0.8909
13155TIP3    H239407   7.271   7.830   0.269 -0.7279 -0.1765  1.3434
13156TIP3   OH239408   1.872   7.178   6.068  0.2021 -0.8862 -0.9888
13156TIP3    H139409   1.909   7.186   5.980  0.9325 -1.1586 -0.7162
13156TIP3    H239410   1.876   7.266   6.104  0.3639 -0.8695 -1.0482
13157TIP3   OH239411   3.614   7.047   4.770  0.4604 -0.1056 -0.0179
13157TIP3    H139412   3.574   7.017   4.851  2.0658 -2.1375  0.1093
13157TIP3    H239413   3.582   7.136   4.759 -2.6990 -0.9931  0.9050
13158TIP3   OH239414   4.962   6.294   3.531 -0.2036 -0.3723 -0.7481
13158TIP3    H139415   5.056   6.278   3.540 -0.6387 -2.4941  1.1026
13158TIP3    H239416   4.939   6.345   3.609 -1.0690 -2.9256  0.7960
13159TIP3   OH239417   6.565   4.779   0.756  0.0219  0.2008 -0.3408
13159TIP3    H139418   6.510   4.712   0.716  0.9285 -0.6510 -0.2126
13159TIP3    H239419   6.518   4.805   0.835 -0.6733  0.2245 -0.7558
13160TIP3   OH239420   7.087   4.793   2.601 -0.2419  0.4971  0.4504
13160TIP3    H139421   6.993   4.791   2.619 -0.1118 -0.8123  1.0680
13160TIP3    H239422   7.128   4.799   2.687  0.2586 -0.1023  0.2592
13161TIP3   OH239423   0.251   5.252   0.686 -0.0261  0.3766 -0.2906
13161TIP3    H139424   0.213   5.252   0.774  0.2603 -0.0477 -0.1626
13161TIP3    H239425   0.205   5.181   0.641  0.3396  0.1129 -0.2530
13162TIP3   OH239426   5.829   4.904   4.708  0.0375 -0.1152  0.5224
13162TIP3    H139427   5.883   4.862   4.642 -0.8409 -0.0646 -0.2529
13162TIP3    H239428   5.760   4.948   4.658 -0.2829  0.4585  1.4368
13163TIP3   OH239429   1.215   5.447   5.512  0.2304 -0.6288  1.3743
13163TIP3    H139430   1.225   5.417   5.603  1.0998 -1.8034  0.9134
13163TIP3    H239431   1.304   5.460   5.481  0.0306 -1.7428  0.2283
13164TIP3   OH239432   0.609   4.099   2.607 -0.5791  0.2235  0.0957
13164TIP3    H139433   0.686   4.089   2.550 -1.0378  2.8647 -1.1745
13164TIP3    H239434   0.633   4.168   2.668 -1.8543  1.0268 -0.2563
13165TIP3   OH239435   1.313   2.617   0.127  0.1719  0.1929 -0.2563
13165TIP3    H139436   1.374   2.631   0.055 -0.1072  2.4275 -0.1186
13165TIP3    H239437   1.368   2.593   0.202  0.7035  0.4387 -0.5681
13166TIP3   OH239438   8.108   5.699   4.255  0.1340 -0.1813 -0.4512
13166TIP3    H139439   8.108   5.791   4.232 -0.8797 -0.2518 -0.7816
13166TIP3    H239440   8.122   5.653   4.172 -1.4687 -0.3721 -0.6441
13167TIP3   OH239441   2.099   2.423   0.730  0.3682  0.0740 -0.1613
13167TIP3    H139442   2.026   2.473   0.767  0.2056  1.3149 -2.0519
13167TIP3    H239443   2.175   2.480   0.744  0.7814 -0.6410  0.6179
13168TIP3   OH239444   1.966   1.249   5.083  0.0276  0.2029 -0.0728
13168TIP3    H139445   2.000   1.324   5.132  1.0271 -0.1221 -0.2391
13168TIP3    H239446   1.878   1.236   5.118  0.0875  1.0334  0.4310
13169TIP3   OH239447   1.431   1.837   1.486 -0.3491  0.0210  0.1800
13169TIP3    H139448   1.425   1.894   1.563 -2.9356  0.9257 -0.5680
13169TIP3    H239449   1.517   1.795   1.493 -0.3605  0.2999  3.3756
13170TIP3   OH239450   7.575   0.430   1.271 -0.4648 -0.4128  0.0935
13170TIP3    H139451   7.582   0.413   1.177  0.4708 -1.3852  0.3247
13170TIP3    H239452   7.512   0.502   1.277 -0.6767 -0.4512 -1.2609
13171TIP3   OH239453   6.306   1.182   2.622 -0.7822 -0.2025  0.1330
13171TIP3    H139454   6.278   1.175   2.531  0.8039  0.4369 -0.4416
13171TIP3    H239455   6.350   1.098   2.640 -0.9552 -0.2666  0.2560
13172TIP3   OH239456   7.272   7.695   6.283  0.1346 -0.1343  0.0994
13172TIP3    H139457   7.198   7.640   6.307  0.1382 -0.9148 -1.5516
13172TIP3    H239458   7.264   7.772   6.339 -3.8000  1.3693 -2.1804
13173TIP3   OH239459   4.744   7.761   6.071  0.4214 -0.2101  0.2042
13173TIP3    H139460   4.770   7.669   6.076  1.9690  0.2353  1.2165
13173TIP3    H239461   4.675   7.771   6.136 -1.1137 -1.0273 -1.2328
13174TIP3   OH239462   2.060   5.614   0.357  0.1857  0.6383  0.3463
13174TIP3    H139463   2.127   5.681   0.341  0.9109 -0.3561 -0.9436
13174TIP3    H239464   1.977   5.660   0.342  0.6362  1.4874  0.3817
13175TIP3   OH239465  -0.001   3.644   5.091  0.3385 -0.2999 -0.0459
13175TIP3    H139466   0.046   3.655   5.174  0.2033 -1.4021  0.1916
13175TIP3    H239467  -0.007   3.732   5.055 -1.4103  0.5458  2.0969
13176TIP3   OH239468   8.125   4.223   6.826  0.1734 -0.3057  0.9222
13176TIP3    H139469   8.102   4.152   6.886  0.7994 -0.6421  0.7764
13176TIP3    H239470   8.221   4.225   6.828  0.1893 -0.2228  0.0447
13177TIP3   OH239471   4.552   1.756   5.596 -0.2321  0.4357 -0.0345
13177TIP3    H139472   4.573   1.748   5.689  0.7182  0.9929 -0.1834
13177TIP3    H239473   4.490   1.828   5.592  0.7227  1.2856  0.0531
13178TIP3   OH239474   1.104   6.354   4.724  0.3251 -0.1489 -0.0005
13178TIP3    H139475   1.161   6.285   4.756  0.9414  0.7476  0.9115
13178TIP3    H239476   1.016   6.325   4.747  0.2971 -1.8664 -2.0234
13179TIP3   OH239477   3.760   2.746   6.511 -0.1640  0.0798  0.1418
13179TIP3    H139478   3.745   2.832   6.472 -1.0791  0.2471  0.8402
13179TIP3    H239479   3.814   2.764   6.588  0.4298 -0.0870 -0.2281
13180TIP3   OH239480   4.483   1.034   4.503  0.3490  0.4538 -0.0617
13180TIP3    H139481   4.457   1.097   4.436  0.1087  1.1169  0.6409
13180TIP3    H239482   4.430   1.057   4.580  0.3291 -0.5405  0.2353
13181TIP3   OH239483   7.060   4.980   0.746  0.5037 -0.1144  0.1175
13181TIP3    H139484   6.972   4.946   0.763  0.4588 -1.6127 -2.5168
13181TIP3    H239485   7.114   4.902   0.735  2.0075  0.7842  0.8255
13182TIP3   OH239486   1.989   6.469   0.479 -0.3111 -0.3297  0.0717
13182TIP3    H139487   1.989   6.501   0.570  1.9576 -1.6095  0.5765
13182TIP3    H239488   1.998   6.374   0.487  2.2060 -0.2951 -1.4702
13183TIP3   OH239489   1.037   2.786   2.534 -0.4893 -0.0886  0.1106
13183TIP3    H139490   1.075   2.703   2.563  0.7882  0.6124  0.5103
13183TIP3    H239491   1.085   2.809   2.455  1.1029  1.5848  1.4811
13184TIP3   OH239492   7.476   0.041   3.878 -0.0475  0.1429 -0.2260
13184TIP3    H139493   7.416   0.114   3.897 -1.7096 -0.3300 -3.1234
13184TIP3    H239494   7.421  -0.037   3.885  0.5978 -0.4387 -1.4933
13185TIP3   OH239495   6.148   4.689   2.054 -0.3829 -0.6198  0.1397
13185TIP3    H139496   6.198   4.769   2.036 -1.3032  0.0544  0.4986
13185TIP3    H239497   6.214   4.620   2.055  0.3413  0.0147 -0.9277
13186TIP3   OH239498   1.231   0.679   3.846  0.3869 -0.2529 -0.6537
13186TIP3    H139499   1.277   0.613   3.794 -0.2184 -1.4403  0.2595
13186TIP3    H239500   1.270   0.672   3.933 -0.0730  0.1997 -0.4050
13187TIP3   OH239501   3.977   6.721   2.287 -0.2010 -0.0450 -0.2962
13187TIP3    H139502   3.961   6.816   2.282  0.6881  0.0871 -0.7799
13187TIP3    H239503   4.044   6.704   2.221 -0.7482 -1.1098 -0.5981
13188TIP3   OH239504   1.208   7.300   1.870 -0.4051 -0.6368 -0.1555
13188TIP3    H139505   1.295   7.337   1.880 -0.3509 -0.6807 -0.4545
13188TIP3    H239506   1.186   7.314   1.778 -1.6430  1.4312  0.3837
13189TIP3   OH239507   4.094   6.486   4.408  0.0294  0.1477  0.1606
13189TIP3    H139508   4.105   6.461   4.500 -2.3990 -1.1268  0.1764
13189TIP3    H239509   4.005   6.460   4.387  0.1879  1.3808 -2.2897
13190TIP3   OH239510   8.046   7.857   5.497  0.3839  0.0582  0.4844
13190TIP3    H139511   8.015   7.893   5.580  0.3009 -0.3791  0.6479
13190TIP3    H239512   8.024   7.764   5.502 -0.6191  0.2284 -0.4872
13191TIP3   OH239513   0.682   0.752   6.462  0.3618  0.4108  0.3279
13191TIP3    H139514   0.687   0.788   6.373  1.2315  0.0723  0.2271
13191TIP3    H239515   0.591   0.726   6.472  0.2693  0.3761 -0.5026
13192TIP3   OH239516   2.616   5.795   0.265 -0.8482  0.2837 -0.0504
13192TIP3    H139517   2.550   5.769   0.201 -0.0746  0.6170 -0.9927
13192TIP3    H239518   2.678   5.722   0.266 -1.3573 -0.1659  1.0534
13193TIP3   OH239519   0.122   5.247   2.504 -0.7202 -0.4257 -0.2630
13193TIP3    H139520   0.117   5.186   2.430 -1.6830 -0.9041  0.1793
13193TIP3    H239521   0.085   5.329   2.470 -2.0439 -0.9096 -0.0788
13194TIP3   OH239522   6.907   3.288   2.406  0.4019 -0.7054 -0.2565
13194TIP3    H139523   6.920   3.198   2.436 -0.3617 -0.7773 -0.1310
13194TIP3    H239524   6.951   3.342   2.472  0.1360 -0.9464  0.1237
13195TIP3   OH239525   1.426   1.389   0.144  0.3836  0.1608  0.2613
13195TIP3    H139526   1.506   1.341   0.124  0.8800  0.2502  1.9467
13195TIP3    H239527   1.375   1.330   0.199  0.2646  0.9343  0.9951
13196TIP3   OH239528   1.672   7.201   1.104 -0.0101  0.3629  0.1558
13196TIP3    H139529   1.592   7.159   1.136 -1.0497 -0.9986 -3.6948
13196TIP3    H239530   1.742   7.160   1.153 -1.4222 -1.4984  0.7252
13197TIP3   OH239531   0.022   4.054   4.563  0.0243  0.1336 -0.0010
13197TIP3    H139532   0.073   3.982   4.600 -1.9719 -1.8244 -0.8604
13197TIP3    H239533   0.079   4.090   4.494  0.5724 -1.5101 -0.4582
13198TIP3   OH239534   7.366   3.990   1.456 -0.1149  0.4079  0.5301
13198TIP3    H139535   7.352   3.926   1.527  1.4994  0.0885  0.5937
13198TIP3    H239536   7.459   3.984   1.436 -0.2581  1.5674 -0.6235
13199TIP3   OH239537   5.792   5.271   2.309 -0.1843 -0.1548  0.3426
13199TIP3    H139538   5.747   5.306   2.232  2.7138 -0.0106 -1.3932
13199TIP3    H239539   5.834   5.191   2.279  2.3807  0.7542  1.2373
13200TIP3   OH239540   8.038   0.408   6.048 -0.3048  0.5258  0.3860
13200TIP3    H139541   7.980   0.457   6.106 -0.7588 -1.9777  2.1609
13200TIP3    H239542   8.120   0.401   6.096 -0.2561 -0.4466  0.1775
13201TIP3   OH239543   8.343   2.589   3.942 -0.9204 -0.2130  0.0588
13201TIP3    H139544   8.363   2.565   4.033 -1.6358  1.2649  0.6463
13201TIP3    H239545   8.425   2.576   3.896 -0.8937 -2.3428  0.5820
13202TIP3   OH239546   0.133   2.820   4.093 -0.2794 -0.3128 -0.2217
13202TIP3    H139547   0.208   2.880   4.094 -0.1375 -0.4853  0.8785
13202TIP3    H239548   0.159   2.749   4.035 -0.2476  0.4226 -1.1350
13203TIP3   OH239549   2.126   2.177   4.272  0.3950 -0.9026 -0.6596
13203TIP3    H139550   2.127   2.273   4.263  2.2522 -0.8168  0.0353
13203TIP3    H239551   2.126   2.162   4.366 -0.9075 -1.6343 -0.7516
13204TIP3   OH239552   3.876   6.888   6.578  0.5204  0.1788 -0.6673
13204TIP3    H139553   3.895   6.844   6.495  1.0971 -1.5404  0.3334
13204TIP3    H239554   3.845   6.818   6.636 -1.4182  1.6048  0.1205
13205TIP3   OH239555   7.511   7.705   0.449 -0.3221 -0.0108  0.1242
13205TIP3    H139556   7.470   7.756   0.519  0.4813 -0.0643  0.6432
13205TIP3    H239557   7.548   7.771   0.390  1.7438  0.0570  1.4025
13206TIP3   OH239558   3.407   7.799   5.879  0.7349  0.1375  0.2755
13206TIP3    H139559   3.448   7.848   5.951  0.4969 -0.2570  0.6841
13206TIP3    H239560   3.419   7.707   5.903 -0.9151 -0.0019  0.7210
13207TIP3   OH239561   2.748   6.891   5.795  0.3387 -0.3749 -0.1223
13207TIP3    H139562   2.713   6.979   5.779  0.6736 -0.3375 -0.6937
13207TIP3    H239563   2.687   6.851   5.856 -0.3523 -0.0858 -0.6106
13208TIP3   OH239564   1.718   2.403   5.275 -0.1904  0.3098 -0.4648
13208TIP3    H139565   1.781   2.443   5.216  1.7700  2.4517  2.7751
13208TIP3    H239566   1.655   2.474   5.295 -0.3887 -0.1213  0.5213
13209TIP3   OH239567   7.431   2.106   2.073  0.1876  0.1188  0.0720
13209TIP3    H139568   7.481   2.161   2.134 -1.3028 -0.5505  2.0025
13209TIP3    H239569   7.408   2.164   2.001  2.2584  0.8666 -0.0481
13210TIP3   OH239570   7.622   4.473   5.467 -0.3809  0.0399  0.9834
13210TIP3    H139571   7.552   4.408   5.454  0.2952 -0.4639 -0.3744
13210TIP3    H239572   7.701   4.421   5.479  0.1754  0.5770 -0.1314
13211TIP3   OH239573   6.570   6.455   5.702 -0.0729  0.3946  0.1099
13211TIP3    H139574   6.585   6.496   5.787 -0.6571  1.6669 -0.3808
13211TIP3    H239575   6.539   6.526   5.646 -1.4941 -0.7927 -0.6740
13212TIP3   OH239576   4.693   4.778   3.700 -0.0140  0.3463  0.2683
13212TIP3    H139577   4.751   4.844   3.736  1.3940 -1.7158  2.0748
13212TIP3    H239578   4.661   4.815   3.618  2.4665  2.2961  0.0838
13213TIP3   OH239579   2.257   6.246   6.497  0.0524  0.4159 -0.5463
13213TIP3    H139580   2.292   6.181   6.436 -3.0346 -1.2690 -0.7488
13213TIP3    H239581   2.333   6.294   6.527  2.0735 -0.7450 -3.3372
13214TIP3   OH239582   3.675   6.505   5.952  0.2149 -0.1048  0.3051
13214TIP3    H139583   3.586   6.515   5.920  0.3003  0.3892  0.2191
13214TIP3    H239584   3.729   6.549   5.886  0.4919 -0.0861  0.5437
13215TIP3   OH239585   1.350   3.542   6.448 -0.2224  0.8081  0.1483
13215TIP3    H139586   1.397   3.467   6.487  0.5178 -0.3328 -2.6785
13215TIP3    H239587   1.258   3.518   6.456 -0.0739  0.3813  0.7293
13216TIP3   OH239588   4.208   0.580   6.669  0.0145  0.1516  0.0624
13216TIP3    H139589   4.218   0.646   6.738 -1.3710 -0.4051  0.8480
13216TIP3    H239590   4.180   0.630   6.592  1.0291  0.7122  0.0387
13217TIP3   OH239591   4.073   1.707   6.217  0.3685  0.2635  0.1800
13217TIP3    H139592   4.115   1.792   6.229  0.7726 -0.2294  2.5879
13217TIP3    H239593   4.121   1.647   6.273 -1.4814 -1.0238  0.4890
13218TIP3   OH239594   1.904   1.061   3.725  0.7934  0.6016 -0.4366
13218TIP3    H139595   1.961   1.024   3.793  0.3382  0.5922 -0.0532
13218TIP3    H239596   1.903   1.155   3.743 -0.2331  0.4709  0.2850
13219TIP3   OH239597   1.200   3.017   5.085 -0.1514 -0.6148 -0.0463
13219TIP3    H139598   1.110   3.041   5.065  0.2208  1.0446  0.1040
13219TIP3    H239599   1.244   3.017   5.000  0.2084  0.9433  0.1148
13220TIP3   OH239600   7.740   2.801   3.590 -0.3051 -0.0659  0.4953
13220TIP3    H139601   7.764   2.729   3.649 -0.8285 -0.1074  0.6667
13220TIP3    H239602   7.709   2.758   3.511 -0.2746 -0.0244  0.4608
13221TIP3   OH239603   2.935   0.783   6.723 -0.0864  0.7988 -0.1161
13221TIP3    H139604   2.901   0.841   6.654  2.0843  1.1250 -1.0225
13221TIP3    H239605   2.973   0.843   6.788 -0.2775  0.4439  0.3263
13222TIP3   OH239606   6.201   7.500   0.453  0.5173  0.1943 -0.4549
13222TIP3    H139607   6.113   7.532   0.430  1.0356  1.6402 -0.5630
13222TIP3    H239608   6.210   7.417   0.406 -1.2438 -0.6062  0.5232
13223TIP3   OH239609   6.271   3.872   1.673 -0.3889 -0.4015 -0.2816
13223TIP3    H139610   6.277   3.803   1.740  1.8194  0.4602  0.4960
13223TIP3    H239611   6.235   3.827   1.596 -1.1478 -1.8705  0.8648
13224TIP3   OH239612   2.524   0.475   5.734 -0.4312  0.3126 -0.1970
13224TIP3    H139613   2.505   0.439   5.821 -0.7936  2.6168  0.7649
13224TIP3    H239614   2.584   0.412   5.694  0.4812 -0.3856  2.1028
13225TIP3   OH239615   2.609   4.153   4.727 -0.0806  0.4512  0.4287
13225TIP3    H139616   2.632   4.114   4.643 -1.3588  0.6136 -0.0254
13225TIP3    H239617   2.549   4.089   4.767 -0.5468  0.9955  0.6049
13226TIP3   OH239618   7.612   4.080   6.127  0.1937  0.5986 -0.7256
13226TIP3    H139619   7.529   4.106   6.087 -0.1745  1.4707  0.5348
13226TIP3    H239620   7.644   4.159   6.169  0.9493 -0.0934  0.0405
13227TIP3   OH239621   6.506   6.444   3.557  0.0686  0.8507  0.1140
13227TIP3    H139622   6.477   6.454   3.648  0.0583  1.5366  0.0470
13227TIP3    H239623   6.566   6.370   3.558  1.0770  1.6438  0.9313
13228TIP3   OH239624   1.731   7.457   2.621  0.1225 -0.5961  0.2232
13228TIP3    H139625   1.720   7.526   2.685  0.3936  0.4058 -0.7804
13228TIP3    H239626   1.659   7.396   2.639 -0.5433  0.3034  0.6792
13229TIP3   OH239627   6.620   7.102   4.111 -0.4147 -0.0854 -0.1901
13229TIP3    H139628   6.692   7.164   4.120 -0.7286  0.8245 -2.9825
13229TIP3    H239629   6.662   7.019   4.089 -0.1337  0.0090 -0.0081
13230TIP3   OH239630   3.582   3.424   3.616 -0.5725 -0.2937 -0.5964
13230TIP3    H139631   3.652   3.419   3.551 -0.3758 -0.1758 -0.3945
13230TIP3    H239632   3.501   3.427   3.564 -0.4064  0.0134 -0.8434
13231TIP3   OH239633   7.133   2.758   3.295 -0.7702  0.0674  0.2688
13231TIP3    H139634   7.220   2.718   3.286  0.3296  2.4209 -0.2562
13231TIP3    H239635   7.072   2.690   3.266  1.0975 -0.6011 -2.4810
13232TIP3   OH239636   5.812   4.685   3.677  0.1299  0.0363  0.2099
13232TIP3    H139637   5.822   4.682   3.772 -0.6064  1.1755  0.3467
13232TIP3    H239638   5.810   4.593   3.650  1.4734 -0.2988  1.1520
13233TIP3   OH239639   2.864   4.626   3.894  0.5387  0.2890 -0.0709
13233TIP3    H139640   2.775   4.644   3.865  0.2601  1.2810  1.2757
13233TIP3    H239641   2.918   4.641   3.817 -0.3328  1.0117 -0.5568
13234TIP3   OH239642   4.271   3.328   5.090  0.4895  0.3568  0.3386
13234TIP3    H139643   4.321   3.400   5.052  0.5825  1.1627  1.8805
13234TIP3    H239644   4.330   3.253   5.086  1.0175  0.7730  0.1946
13235TIP3   OH239645   3.913   7.845   4.454 -0.0168 -0.2905  0.0483
13235TIP3    H139646   3.895   7.838   4.360 -2.0402  1.3446  0.2488
13235TIP3    H239647   4.009   7.837   4.460  0.0241 -2.2958 -1.9034
13236TIP3   OH239648   0.923   4.108   5.131 -0.1846 -0.6797 -0.0233
13236TIP3    H139649   0.944   4.101   5.224 -2.6269 -1.1467  0.5643
13236TIP3    H239650   0.930   4.202   5.112  0.0781 -0.5462  0.6940
13237TIP3   OH239651   2.471   0.081   6.401  0.0658 -0.6278 -0.4277
13237TIP3    H139652   2.408   0.043   6.462  0.3034 -0.2964  0.0248
13237TIP3    H239653   2.417   0.115   6.329 -0.2588 -0.5027 -0.1269
13238TIP3   OH239654   0.776   2.794   4.597 -0.4377  0.3883 -0.0387
13238TIP3    H139655   0.680   2.791   4.591 -0.4137 -1.5816  0.1378
13238TIP3    H239656   0.794   2.819   4.687 -0.7823  0.1670  0.0922
13239TIP3   OH239657   1.410   3.436   1.776 -0.1629  0.3953  0.2365
13239TIP3    H139658   1.403   3.502   1.844 -0.5423  0.7962 -0.1884
13239TIP3    H239659   1.325   3.436   1.732 -0.3267 -0.6882  0.5110
13240TIP3   OH239660   5.891   2.849   2.654  0.2633 -0.0583  0.3990
13240TIP3    H139661   5.865   2.861   2.746  0.1668 -0.4314  0.4232
13240TIP3    H239662   5.855   2.925   2.609 -0.3936 -0.2818  0.5312
13241TIP3   OH239663   0.894   0.584   3.666  0.0635  0.1209  0.2593
13241TIP3    H139664   0.842   0.530   3.606 -2.1650 -1.6949  3.4861
13241TIP3    H239665   0.952   0.522   3.710  2.6493  1.6141 -0.8443
13242TIP3   OH239666   1.150   1.984   0.837  0.7582 -0.0102  0.3482
13242TIP3    H139667   1.183   1.984   0.926  0.9129 -0.5211  0.2936
13242TIP3    H239668   1.204   2.048   0.791  2.5720 -1.7513 -0.0595
13243TIP3   OH239669   4.346   3.554   0.051  0.2931 -0.2409  0.2531
13243TIP3    H139670   4.275   3.529  -0.009  0.3311 -1.0779  0.5468
13243TIP3    H239671   4.367   3.474   0.099  0.7638  0.2425  0.8760
13244TIP3   OH239672   2.052   1.176   6.662 -0.1134 -0.0960 -0.0224
13244TIP3    H139673   1.993   1.148   6.592  0.3872 -0.1195 -0.4471
13244TIP3    H239674   1.996   1.189   6.738 -0.5844 -0.6532 -0.2698
13245TIP3   OH239675   2.487   7.087   1.316 -0.1624 -0.1208  0.9812
13245TIP3    H139676   2.566   7.132   1.287 -0.2611  0.1240  1.0967
13245TIP3    H239677   2.519   7.022   1.379 -0.0718  0.0785  1.1400
13246TIP3   OH239678   3.508   7.240   6.227  0.4926 -0.3848  0.5373
13246TIP3    H139679   3.420   7.215   6.255 -0.7074  1.9196 -0.8629
13246TIP3    H239680   3.562   7.228   6.306 -1.8416  1.6424  2.6313
13247TIP3   OH239681   4.929   5.667   6.376 -0.1226  0.1211  0.3175
13247TIP3    H139682   4.915   5.658   6.282 -0.2170 -0.3040  0.3703
13247TIP3    H239683   4.985   5.744   6.385  3.0056 -1.8903 -0.3449
13248TIP3   OH239684   0.471   2.970   1.580 -0.0196  0.7097 -0.1954
13248TIP3    H139685   0.464   3.050   1.529 -0.3804  1.0716  0.3986
13248TIP3    H239686   0.403   2.912   1.544  0.2880  0.6380 -0.6700
13249TIP3   OH239687   5.795   4.149   0.484 -0.7008  0.3018 -0.3063
13249TIP3    H139688   5.731   4.174   0.417 -0.0931  0.3170 -0.8955
13249TIP3    H239689   5.745   4.099   0.548 -1.4745  1.0661 -0.3034
13250TIP3   OH239690   7.708   1.563   1.863  0.1861 -0.0077  0.2830
13250TIP3    H139691   7.645   1.497   1.834 -1.7988  1.0338  1.8757
13250TIP3    H239692   7.784   1.513   1.892 -0.8353 -1.5369  0.4691
13251TIP3   OH239693   2.443   3.500   2.050 -0.2860 -0.1787 -0.3261
13251TIP3    H139694   2.534   3.470   2.044 -0.5017 -0.6110 -1.7418
13251TIP3    H239695   2.403   3.474   1.967 -1.5758  0.4652  0.0598
13252TIP3   OH239696   6.999   1.429   2.117 -0.8373  0.0715  0.4479
13252TIP3    H139697   7.037   1.516   2.106 -0.5376 -0.0891  0.1842
13252TIP3    H239698   7.064   1.380   2.167 -0.6193 -0.2470 -0.1283
13253TIP3   OH239699   5.440   6.338   2.943  0.0057 -0.4612  0.1419
13253TIP3    H139700   5.377   6.347   2.871  0.3427 -1.2789 -0.2744
13253TIP3    H239701   5.388   6.306   3.017 -0.1426 -0.7243 -0.0749
13254TIP3   OH239702   3.766   7.271   0.978 -0.5196  0.5157  0.4617
13254TIP3    H139703   3.785   7.362   0.955 -0.7138  0.5450  0.4062
13254TIP3    H239704   3.785   7.265   1.072  0.4572  0.3459  0.2568
13255TIP3   OH239705   3.518   3.208   3.833 -0.1617  0.4055 -0.0401
13255TIP3    H139706   3.541   3.279   3.773  0.6567 -0.1268 -0.3748
13255TIP3    H239707   3.599   3.159   3.844 -0.5705 -0.1339  0.6625
13256TIP3   OH239708   5.773   6.374   5.923  0.7889 -1.0624  0.4324
13256TIP3    H139709   5.771   6.469   5.907 -0.0168 -1.3781 -1.5319
13256TIP3    H239710   5.735   6.364   6.011 -0.2183  0.3548  0.1934
13257TIP3   OH239711   6.850   1.339   3.827 -0.0351 -0.3217 -0.9385
13257TIP3    H139712   6.856   1.252   3.788  1.1380 -0.3669 -0.6980
13257TIP3    H239713   6.781   1.383   3.777 -1.3226 -1.6919 -0.4332
13258TIP3   OH239714   7.324   6.000   5.575  0.0421 -0.1617 -0.1021
13258TIP3    H139715   7.254   6.020   5.512  0.3105  1.8988  0.2027
13258TIP3    H239716   7.391   5.955   5.522 -0.8093 -0.7298 -0.7280
13259TIP3   OH239717   2.769   0.683   1.992 -0.4194 -0.0395 -0.0569
13259TIP3    H139718   2.818   0.741   2.051 -2.0734  0.1758  1.1733
13259TIP3    H239719   2.677   0.706   2.006 -1.0718 -2.2488 -0.2827
13260TIP3   OH239720   3.127   6.793   2.520  0.1989 -0.2369 -0.3350
13260TIP3    H139721   3.212   6.775   2.560 -1.1266 -0.4831  2.5812
13260TIP3    H239722   3.081   6.709   2.522 -0.5909  0.1735 -0.6691
13261TIP3   OH239723   0.405   3.774   6.836  0.1343 -0.8731  0.2181
13261TIP3    H139724   0.389   3.728   6.918  0.4359  0.3255  0.9758
13261TIP3    H239725   0.371   3.715   6.768 -2.4713 -0.8239  1.3560
13262TIP3   OH239726   6.476   6.135   5.357  0.6259  0.2292 -0.0733
13262TIP3    H139727   6.522   6.155   5.439  0.0477  0.1619  0.2767
13262TIP3    H239728   6.445   6.220   5.326 -2.0220 -0.0262  1.5278
13263TIP3   OH239729   6.102   3.343   2.477  0.1683  0.2662  0.1588
13263TIP3    H139730   6.191   3.316   2.500  0.2582 -1.8215 -2.1737
13263TIP3    H239731   6.049   3.320   2.553  1.1359 -1.7231  0.3056
13264TIP3   OH239732   6.020   5.912   3.506 -0.3966 -0.1945 -0.2427
13264TIP3    H139733   6.021   5.969   3.583 -0.3379  1.8611 -1.6885
13264TIP3    H239734   5.957   5.954   3.447  0.1298 -1.2953 -1.6245
13265TIP3   OH239735   6.146   1.077   1.025 -0.3154 -0.0211  0.5309
13265TIP3    H139736   6.072   1.110   0.974 -0.7351 -1.4074  0.2019
13265TIP3    H239737   6.115   0.994   1.062  0.4075  0.3481  2.0396
13266TIP3   OH239738   5.361   5.607   6.772  0.0887  0.7617  0.5093
13266TIP3    H139739   5.313   5.674   6.723 -1.0972  0.2932  0.9925
13266TIP3    H239740   5.394   5.547   6.705 -0.2321  0.9505  0.1788
13267TIP3   OH239741   3.370   4.875   6.476 -0.2366  0.2665  0.0899
13267TIP3    H139742   3.344   4.968   6.473  0.6660  0.5390  0.4985
13267TIP3    H239743   3.386   4.858   6.568 -0.9654 -0.4760  0.0978
13268TIP3   OH239744   2.504   4.801   1.157  0.0305 -0.1355  0.4112
13268TIP3    H139745   2.571   4.867   1.135 -0.5827 -0.3331 -2.4035
13268TIP3    H239746   2.553   4.719   1.165  0.5058  0.2524  1.6616
13269TIP3   OH239747   6.969   0.482   4.382 -1.1719  0.1952  0.0675
13269TIP3    H139748   6.945   0.439   4.300 -2.0387  0.7154  0.0299
13269TIP3    H239749   6.886   0.518   4.414 -0.8950 -0.2758  1.3337
13270TIP3   OH239750   2.575   1.714   4.445  0.2724 -0.4589 -0.3348
13270TIP3    H139751   2.645   1.718   4.511 -0.0711  0.1626  0.0046
13270TIP3    H239752   2.617   1.743   4.364 -0.2822  3.1890  0.4910
13271TIP3   OH239753   6.555   4.718   3.431 -0.2736 -0.4678  0.3426
13271TIP3    H139754   6.521   4.706   3.343  0.4860  1.0661 -0.1984
13271TIP3    H239755   6.650   4.714   3.422 -0.1828 -2.3598  1.4602
13272TIP3   OH239756   5.916   7.437   1.530  0.1213 -0.1371 -0.2136
13272TIP3    H139757   5.948   7.449   1.441  1.3911  1.0006  0.3663
13272TIP3    H239758   5.993   7.408   1.580 -0.2690  0.4139  0.7495
13273TIP3   OH239759   2.091   1.074   6.138  0.1182  0.4187  0.8193
13273TIP3    H139760   2.130   1.109   6.058 -2.8150  1.9375 -0.1176
13273TIP3    H239761   2.055   0.989   6.112  1.3018 -0.2341  1.2456
13274TIP3   OH239762   5.726   2.192   5.191  0.0554  0.1532 -0.1130
13274TIP3    H139763   5.648   2.246   5.182  0.6900  0.8781 -1.8308
13274TIP3    H239764   5.735   2.178   5.285 -2.1599 -0.0255  0.1305
13275TIP3   OH239765   1.397   0.071   3.922  0.0596 -0.0766  0.4078
13275TIP3    H139766   1.340   0.147   3.933 -1.8449 -1.2759 -0.6057
13275TIP3    H239767   1.400   0.030   4.009 -0.7711 -0.0877  0.4345
13276TIP3   OH239768   7.047   0.832   2.804  0.2698 -0.1287  0.0042
13276TIP3    H139769   7.104   0.829   2.881 -1.7043  0.0906  1.5366
13276TIP3    H239770   6.958   0.830   2.839 -0.7103 -0.3158 -2.2961
13277TIP3   OH239771   5.634   7.011   0.284 -0.0388  0.5896 -0.1723
13277TIP3    H139772   5.615   6.918   0.301 -1.3417  0.8028 -0.3664
13277TIP3    H239773   5.595   7.057   0.358  2.8574  0.8684  1.3356
13278TIP3   OH239774   2.270   0.724   1.277  0.2364 -0.3993  0.1636
13278TIP3    H139775   2.265   0.632   1.248 -1.0257 -1.2281  2.6612
13278TIP3    H239776   2.221   0.772   1.211  0.0915 -1.6627 -0.6982
13279TIP3   OH239777   3.394   1.045   5.690 -0.3169 -0.4247 -0.5072
13279TIP3    H139778   3.409   1.046   5.595  0.2976  1.5926 -0.4400
13279TIP3    H239779   3.388   1.138   5.714 -1.6274 -0.9251  1.2701
13280TIP3   OH239780   1.108   2.988   6.082  0.8618 -0.0374  0.3880
13280TIP3    H139781   1.108   2.955   6.172 -2.4718 -0.7503  0.2513
13280TIP3    H239782   1.028   2.952   6.044  1.8545  0.7645 -2.7012
13281TIP3   OH239783   3.379   5.652   1.579 -0.1353 -0.6039 -0.4338
13281TIP3    H139784   3.456   5.690   1.537  0.2539  0.0576  0.8258
13281TIP3    H239785   3.326   5.620   1.506  1.3502 -1.1501 -1.3200
13282TIP3   OH239786   7.613   3.509   3.854 -0.0068 -0.4720  0.4634
13282TIP3    H139787   7.690   3.542   3.808 -0.1855 -1.4100 -0.5391
13282TIP3    H239788   7.587   3.582   3.911 -0.2467  1.0574 -1.4815
13283TIP3   OH239789   1.598   6.275   1.625 -0.2407 -0.5401 -0.0248
13283TIP3    H139790   1.592   6.360   1.668 -1.9340 -0.8661  0.4564
13283TIP3    H239791   1.651   6.222   1.684  0.9354  0.1957 -0.3913
13284TIP3   OH239792   5.602   6.963   2.780  0.3390 -0.0039  0.2958
13284TIP3    H139793   5.653   6.891   2.817 -0.8608 -0.6292  0.8202
13284TIP3    H239794   5.624   7.039   2.835  0.2353 -0.4146  0.9207
13285TIP3   OH239795   0.051   7.347   0.479 -0.5523  0.1258  0.2315
13285TIP3    H139796  -0.022   7.400   0.449 -0.5741 -0.5933 -1.0763
13285TIP3    H239797   0.112   7.346   0.405  0.0756 -0.5439  0.7382
13286TIP3   OH239798   3.764   4.866   4.993 -0.0075 -0.0082 -0.1136
13286TIP3    H139799   3.841   4.811   5.009  0.0091 -0.2618 -1.0191
13286TIP3    H239800   3.721   4.872   5.078  1.6188  1.0673  0.6844
13287TIP3   OH239801   1.913   4.414   1.058  0.0168 -0.0672  0.3854
13287TIP3    H139802   1.962   4.449   0.983 -0.5722  0.0835  0.0651
13287TIP3    H239803   1.881   4.491   1.104  1.0986 -0.1332  1.3000
13288TIP3   OH239804   0.730   2.658   4.313 -0.9032 -0.0119  0.4561
13288TIP3    H139805   0.760   2.668   4.223 -0.6639  0.6838  0.6057
13288TIP3    H239806   0.659   2.722   4.322 -0.0907  0.8195  1.1202
13289TIP3   OH239807   5.201   4.704   3.793  0.9611  0.1792  0.2296
13289TIP3    H139808   5.287   4.743   3.776  0.3471  1.3150 -0.4306
13289TIP3    H239809   5.212   4.611   3.774  1.8353  0.4518 -0.6728
13290TIP3   OH239810   0.444   1.078   3.377 -0.3322  0.1080  0.5528
13290TIP3    H139811   0.469   1.136   3.305 -0.2066 -0.9055 -0.2516
13290TIP3    H239812   0.401   1.004   3.334  1.2096 -1.3317  1.3516
13291TIP3   OH239813   3.478   1.583   5.635 -0.0529 -0.0528  0.0244
13291TIP3    H139814   3.481   1.656   5.572  0.4023 -1.4999 -1.7299
13291TIP3    H239815   3.569   1.554   5.641 -0.0908  0.0519  1.4050
13292TIP3   OH239816   1.119   3.225   3.674 -0.2029 -0.0000 -0.6340
13292TIP3    H139817   1.070   3.307   3.673 -1.2751 -0.5923  0.6720
13292TIP3    H239818   1.186   3.237   3.606 -0.5090  1.8259 -0.6762
13293TIP3   OH239819   6.550   3.894   6.029  0.1500  0.5190 -0.3679
13293TIP3    H139820   6.571   3.830   6.098 -1.0925  2.0106  1.5293
13293TIP3    H239821   6.611   3.875   5.958  2.3509 -0.3345  1.6321
13294TIP3   OH239822   1.706   7.231   2.341 -0.2618 -0.4872  0.1101
13294TIP3    H139823   1.799   7.239   2.321  0.2119 -0.8376  1.9619
13294TIP3    H239824   1.699   7.149   2.390 -1.2232  0.4131  1.5658
13295TIP3   OH239825   4.203   5.763   5.770 -0.4728 -0.0431 -0.5711
13295TIP3    H139826   4.228   5.706   5.843  0.2438  1.4411  0.3835
13295TIP3    H239827   4.136   5.713   5.723 -1.3156 -0.8486  1.3883
13296TIP3   OH239828   2.361   4.053   6.383  0.2922  0.4066  0.2148
13296TIP3    H139829   2.425   3.996   6.340 -0.1678 -0.2782  0.4255
13296TIP3    H239830   2.378   4.042   6.477  1.3552  1.9650  0.2605
13297TIP3   OH239831   2.488   4.390   0.623 -0.3349 -0.2867 -0.0870
13297TIP3    H139832   2.573   4.392   0.578 -0.5125 -0.4309 -0.4301
13297TIP3    H239833   2.446   4.310   0.592 -0.6992 -0.0902 -0.1141
13298TIP3   OH239834   8.227   3.038   4.344  0.4059 -0.1089  1.1328
13298TIP3    H139835   8.230   2.964   4.283 -0.8009  0.0105  0.9081
13298TIP3    H239836   8.250   3.114   4.291  0.3418 -0.1444  1.0533
13299TIP3   OH239837   6.392   3.885   3.411 -0.2744  0.0329  0.2072
13299TIP3    H139838   6.366   3.827   3.340 -0.2955 -0.0169  0.2551
13299TIP3    H239839   6.326   3.869   3.480 -0.0907 -0.1237  0.3461
13300TIP3   OH239840   2.792   7.247   6.363  0.0450  0.3388 -0.3236
13300TIP3    H139841   2.700   7.271   6.374  0.1363  0.0862  1.2849
13300TIP3    H239842   2.820   7.218   6.450  1.6320  0.3333 -0.7953
13301TIP3   OH239843   3.715   5.693   2.767 -0.0882  0.1497  0.3220
13301TIP3    H139844   3.806   5.695   2.798 -0.1671  0.7531  0.5405
13301TIP3    H239845   3.693   5.600   2.763  0.2352  0.0251  1.1831
13302TIP3   OH239846   7.642   1.681   3.650 -0.3828  0.0072  0.1532
13302TIP3    H139847   7.665   1.590   3.635 -1.5324 -0.2999  0.1345
13302TIP3    H239848   7.547   1.683   3.641 -0.4358  1.0836  0.8185
13303TIP3   OH239849   4.930   7.708   4.261  0.4441 -0.8983  0.2872
13303TIP3    H139850   5.001   7.646   4.244  0.8035 -0.6374  0.8114
13303TIP3    H239851   4.911   7.746   4.175 -0.3497 -2.3253 -0.1950
13304TIP3   OH239852   4.246   6.368   0.841  0.8855 -0.5368 -0.8290
13304TIP3    H139853   4.336   6.335   0.841  1.6512  1.4328 -1.7754
13304TIP3    H239854   4.254   6.463   0.848 -1.1785 -0.3690  0.1368
13305TIP3   OH239855   4.147   3.997   4.785  0.1733 -0.0719 -0.6009
13305TIP3    H139856   4.223   3.946   4.813  0.8134  0.8683 -0.5806
13305TIP3    H239857   4.182   4.084   4.765 -0.8691  0.3264 -0.7770
13306TIP3   OH239858   2.595   2.240   4.317 -0.7469  0.2702 -0.7613
13306TIP3    H139859   2.685   2.251   4.347 -0.7429  0.0562 -0.6930
13306TIP3    H239860   2.575   2.321   4.271 -0.2779  0.0427 -1.3875
13307TIP3   OH239861   3.782   4.711   5.515 -0.4471  0.1624  0.3686
13307TIP3    H139862   3.867   4.672   5.533  0.8597  1.6245 -2.0559
13307TIP3    H239863   3.747   4.660   5.442  0.1036  1.7214 -1.0789
13308TIP3   OH239864   5.856   4.153   6.815  0.8276 -0.5815  0.2158
13308TIP3    H139865   5.883   4.245   6.823 -0.6609 -0.0819 -0.2516
13308TIP3    H239866   5.813   4.148   6.730 -1.5596 -1.0508  1.3759
13309TIP3   OH239867   8.229   2.756   6.294 -0.4107  0.1260 -0.0960
13309TIP3    H139868   8.252   2.742   6.202  0.7199 -0.9690  0.3249
13309TIP3    H239869   8.142   2.716   6.303  0.3467 -1.6471 -0.2397
13310TIP3   OH239870   4.237   7.667   5.061  0.1295 -0.1604  0.1964
13310TIP3    H139871   4.192   7.591   5.025 -0.6555 -0.1795  1.1538
13310TIP3    H239872   4.240   7.650   5.155 -0.6458  1.2770  0.5080
13311TIP3   OH239873   3.725   5.486   3.309 -0.5582  0.2828  0.4321
13311TIP3    H139874   3.653   5.475   3.371  0.5954  2.2771  2.3019
13311TIP3    H239875   3.753   5.577   3.322  1.6235 -0.1259 -0.9437
13312TIP3   OH239876   8.005   3.274   4.965 -0.1877 -0.0291 -0.3952
13312TIP3    H139877   7.925   3.312   5.001 -0.9878 -0.6450 -1.4505
13312TIP3    H239878   8.065   3.267   5.040 -0.4434  2.1087  0.0712
13313TIP3   OH239879   8.223   2.106   3.817 -0.4274  0.0963 -0.6772
13313TIP3    H139880   8.235   2.163   3.741 -0.6678  1.4120  0.2302
13313TIP3    H239881   8.189   2.024   3.781  3.2038 -0.8469 -2.4314
13314TIP3   OH239882   3.404   5.595   5.224  0.0484 -0.6857  0.0162
13314TIP3    H139883   3.334   5.530   5.233  0.0022 -0.4198  1.9497
13314TIP3    H239884   3.358   5.678   5.212 -0.0604 -0.3846  2.1242
13315TIP3   OH239885   4.764   7.219   2.971 -0.1311 -0.0314  0.2566
13315TIP3    H139886   4.704   7.215   3.045 -0.3336 -1.6903  0.0446
13315TIP3    H239887   4.722   7.168   2.902  0.7644  0.1625 -0.4624
13316TIP3   OH239888   4.314   0.663   4.709  0.1294 -0.7034 -0.3455
13316TIP3    H139889   4.237   0.712   4.679  0.0373 -1.3216 -1.1625
13316TIP3    H239890   4.383   0.687   4.647  0.6437 -0.0444  0.4683
13317TIP3   OH239891   4.110   7.566   0.878 -0.3212  0.8415 -0.4548
13317TIP3    H139892   4.166   7.639   0.851  0.8453 -0.2177 -0.9538
13317TIP3    H239893   4.116   7.503   0.806  0.2842 -0.6233  0.8205
13318TIP3   OH239894   7.584   5.464   6.759 -0.1233 -0.2063 -0.1383
13318TIP3    H139895   7.627   5.522   6.822  0.7444 -1.9283  0.9564
13318TIP3    H239896   7.568   5.519   6.682  0.6788  1.4440  0.8180
13319TIP3   OH239897   3.357   2.397   5.733  0.3854  0.3665 -0.0201
13319TIP3    H139898   3.293   2.392   5.805 -1.0755 -0.2163 -1.2965
13319TIP3    H239899   3.363   2.490   5.712 -0.0951  0.4226  0.0787
13320TIP3   OH239900   5.890   1.638   1.571 -0.6159 -0.0375 -0.3076
13320TIP3    H139901   5.985   1.643   1.580 -0.4343 -2.4607  0.0101
13320TIP3    H239902   5.855   1.671   1.654 -0.1273  1.8146 -0.8137
13321TIP3   OH239903   8.289   6.829   4.889 -0.2029  0.2011 -0.0926
13321TIP3    H139904   8.256   6.838   4.978 -0.9059  2.7196 -0.5261
13321TIP3    H239905   8.342   6.750   4.890  1.1030  1.0044  2.9626
13322TIP3   OH239906   0.880   1.914   1.732  0.5156  0.3122 -0.6510
13322TIP3    H139907   0.908   1.861   1.658  1.9967  3.1651 -2.3439
13322TIP3    H239908   0.790   1.940   1.710  0.3495 -0.2166 -0.6007
13323TIP3   OH239909   1.709   4.027   2.905 -0.4312  0.3886  0.1991
13323TIP3    H139910   1.793   3.991   2.876 -1.0612 -0.2294 -0.9282
13323TIP3    H239911   1.687   4.093   2.839 -0.0545  1.7527  1.3937
13324TIP3   OH239912   4.744   2.886   1.252  0.6868 -0.5990  0.0573
13324TIP3    H139913   4.658   2.886   1.296  0.9571 -1.9565  0.6472
13324TIP3    H239914   4.738   2.815   1.188  1.1464 -0.2505 -0.3819
13325TIP3   OH239915   8.028   1.276   6.776 -0.3480 -0.1860 -0.6271
13325TIP3    H139916   7.960   1.208   6.775 -0.0637 -0.5311  0.7856
13325TIP3    H239917   8.110   1.229   6.790 -0.0696  0.3866 -0.2760
13326TIP3   OH239918   6.376   5.285   4.692  0.1529  0.8162  0.1955
13326TIP3    H139919   6.346   5.214   4.750  1.5264  0.1587  0.1477
13326TIP3    H239920   6.305   5.349   4.693 -0.4613  0.1483  1.4702
13327TIP3   OH239921   4.082   5.058   6.420 -0.1480 -0.1236  0.4697
13327TIP3    H139922   4.078   5.066   6.515 -0.5511 -0.2137  0.4593
13327TIP3    H239923   4.135   4.980   6.404  0.1758  0.0640  0.6155
13328TIP3   OH239924   5.823   5.402   0.252 -0.0068  0.2465 -0.6152
13328TIP3    H139925   5.746   5.390   0.196  0.0499  0.9210 -0.8466
13328TIP3    H239926   5.872   5.321   0.243 -0.5923 -0.1187 -0.6142
13329TIP3   OH239927   6.988   3.594   0.404 -1.1196  0.2831 -0.2260
13329TIP3    H139928   7.082   3.600   0.417 -0.8843  0.7685 -1.9906
13329TIP3    H239929   6.954   3.565   0.489  0.5045  1.0442  0.7291
13330TIP3   OH239930   2.910   6.458   4.760 -0.0368 -0.0456  0.3215
13330TIP3    H139931   2.876   6.545   4.782  0.2511 -0.2091  1.4516
13330TIP3    H239932   2.840   6.398   4.784 -0.3383 -0.1180 -0.7045
13331TIP3   OH239933   6.668   1.152   6.378  0.4794 -0.5336  0.0781
13331TIP3    H139934   6.713   1.121   6.299  0.4101 -1.0787  0.2494
13331TIP3    H239935   6.730   1.213   6.418 -0.4248  1.7083 -1.6737
13332TIP3   OH239936   2.395   7.574   6.320 -0.2314 -0.6547 -0.1297
13332TIP3    H139937   2.374   7.666   6.303  0.4890 -0.5340 -0.3938
13332TIP3    H239938   2.312   7.535   6.345 -0.3890  0.2779  0.8874
13333TIP3   OH239939   5.553   1.613   3.775  0.3661 -0.0243 -0.0218
13333TIP3    H139940   5.481   1.591   3.833  1.0976 -0.2085  0.8326
13333TIP3    H239941   5.511   1.652   3.698 -0.6354 -0.1685  0.4417
13334TIP3   OH239942   2.242   6.765   1.038  0.2704  0.0371  0.1947
13334TIP3    H139943   2.252   6.849   1.083 -1.6667  0.8546 -0.7519
13334TIP3    H239944   2.191   6.711   1.098  0.2965  0.0448  0.2239
13335TIP3   OH239945   6.699   6.417   2.218  0.0237 -0.7090 -0.1733
13335TIP3    H139946   6.639   6.358   2.172  0.2598  0.3805 -1.9815
13335TIP3    H239947   6.642   6.475   2.269 -0.4293 -0.3322 -1.0856
13336TIP3   OH239948   7.412   6.578   5.273 -0.1273  0.2306 -0.8454
13336TIP3    H139949   7.494   6.620   5.249 -0.3544  0.5693 -1.0463
13336TIP3    H239950   7.409   6.583   5.369  0.6748 -0.9185 -0.7333
13337TIP3   OH239951   5.043   2.378   2.350  0.2361 -0.1851 -0.4523
13337TIP3    H139952   5.132   2.361   2.379  1.3909  3.2605 -1.5163
13337TIP3    H239953   4.993   2.390   2.431  1.1639 -0.3405  0.1564
13338TIP3   OH239954   8.000   3.846   0.142  0.0928 -0.0120  0.1479
13338TIP3    H139955   8.005   3.942   0.139  2.5397 -0.0576 -3.0296
13338TIP3    H239956   7.957   3.822   0.060 -2.9163 -1.7026  2.0623
13339TIP3   OH239957   8.104   1.832   4.359  0.4703  0.0514 -0.1912
13339TIP3    H139958   8.089   1.774   4.284  0.2462  1.1713 -1.0370
13339TIP3    H239959   8.060   1.788   4.432 -2.0280  0.3822 -1.3626
13340TIP3   OH239960   1.111   4.987   0.512  0.4130 -0.3894 -0.4652
13340TIP3    H139961   1.102   4.927   0.439  1.3215 -0.8395 -0.2157
13340TIP3    H239962   1.065   4.944   0.584  0.0442 -0.2306 -0.6043
13341TIP3   OH239963   5.955   2.079   3.884  0.2007 -0.1012  0.2700
13341TIP3    H139964   5.949   2.136   3.960 -1.2517  0.7047 -0.4000
13341TIP3    H239965   5.995   2.134   3.816  1.0069 -0.6529  0.2805
13342TIP3   OH239966   8.101   3.587   3.516 -0.0631  0.0849  1.1627
13342TIP3    H139967   8.103   3.656   3.583 -0.1936  1.1592  0.1005
13342TIP3    H239968   8.031   3.613   3.457 -0.0320 -0.9085  0.6676
13343TIP3   OH239969   8.029   6.804   1.289 -0.5712 -0.5871 -0.5762
13343TIP3    H139970   7.973   6.881   1.282  0.3998  0.2800  0.7047
13343TIP3    H239971   8.031   6.784   1.382  0.4724 -1.1800 -0.7071
13344TIP3   OH239972   2.752   2.311   3.583 -0.0985 -0.2033 -0.2257
13344TIP3    H139973   2.709   2.227   3.600  0.0739 -0.4729 -1.1047
13344TIP3    H239974   2.846   2.291   3.586 -0.0558 -0.2742 -1.4823
13345TIP3   OH239975   2.691   7.446   1.688 -0.3469 -0.4994  0.0808
13345TIP3    H139976   2.694   7.497   1.607  1.6499 -1.0441 -0.2325
13345TIP3    H239977   2.630   7.493   1.744 -0.0011  1.1665 -0.8944
13346TIP3   OH239978   6.452   3.522   3.405 -0.0929 -0.7560 -0.8194
13346TIP3    H139979   6.432   3.576   3.329  0.6946  0.5502 -0.1295
13346TIP3    H239980   6.387   3.548   3.471 -0.1137 -1.1162 -0.6935
13347TIP3   OH239981   1.660   0.464   5.359  0.0140 -0.2222 -0.2460
13347TIP3    H139982   1.654   0.555   5.388 -1.9541  0.1631 -1.6514
13347TIP3    H239983   1.603   0.416   5.419 -0.2297 -0.2384 -0.4864
13348TIP3   OH239984   8.371   6.126   1.509 -0.2723 -0.2681 -0.0112
13348TIP3    H139985   8.425   6.167   1.576 -0.3792 -0.8949  0.4635
13348TIP3    H239986   8.340   6.199   1.456  2.0699  0.0379 -1.1019
13349TIP3   OH239987   0.274   5.482   4.614  0.3731  0.0245 -0.1307
13349TIP3    H139988   0.335   5.408   4.623  0.2705 -0.3382 -2.0714
13349TIP3    H239989   0.239   5.495   4.703  2.6868 -0.2369  0.8809
13350TIP3   OH239990   7.730   4.531   6.520  0.8320  0.4048 -0.0808
13350TIP3    H139991   7.663   4.598   6.533 -0.6295 -1.2808  1.5516
13350TIP3    H239992   7.722   4.474   6.596  2.2837 -1.4137 -1.2131
13351TIP3   OH239993   2.374   6.069   6.325  0.0273 -0.6291  0.5386
13351TIP3    H139994   2.467   6.068   6.301  0.2444  1.3975  1.1034
13351TIP3    H239995   2.331   6.018   6.256  1.5441 -1.6877  0.3117
13352TIP3   OH239996   2.527   5.253   1.069 -0.7016  0.0893  0.3320
13352TIP3    H139997   2.601   5.210   1.112 -0.1100  2.0678  1.3995
13352TIP3    H239998   2.556   5.268   0.979  0.1635  0.7831  0.7267
13353TIP3   OH239999   7.943   1.690   4.585 -0.1685  0.0213 -0.2194
13353TIP3    H140000   7.943   1.596   4.570  0.2761  0.2827 -2.0480
13353TIP3    H240001   7.851   1.716   4.576  0.0716  0.1649 -2.7700
13354TIP3   OH240002   5.668   2.804   3.935  0.1525  0.3616 -0.1531
13354TIP3    H140003   5.670   2.709   3.942  0.2215  0.3041 -0.8774
13354TIP3    H240004   5.752   2.833   3.968 -0.0075  0.1952  0.4001
13355TIP3   OH240005   8.416   1.049   4.616 -0.6076  0.1173 -0.4444
13355TIP3    H140006   8.350   1.118   4.622  0.2301  0.9552 -0.6421
13355TIP3    H240007   8.366   0.968   4.621 -1.7034  0.7274 -1.0669
13356TIP3   OH240008   6.933   5.403   0.320  0.1315 -0.6366  0.3646
13356TIP3    H140009   6.916   5.344   0.393 -0.6912  0.0829  0.7689
13356TIP3    H240010   6.974   5.480   0.361 -1.0352  0.0926  0.1832
13357TIP3   OH240011   1.459   3.760   0.052 -0.5991 -0.1640  0.1815
13357TIP3    H140012   1.539   3.810   0.070  1.0052 -1.7212 -2.0973
13357TIP3    H240013   1.408   3.818  -0.006  0.0131 -0.0868 -0.2971
13358TIP3   OH240014   4.675   5.991   6.420  0.2151 -0.1831  0.3715
13358TIP3    H140015   4.717   5.985   6.335 -2.5089  2.1050 -1.2961
13358TIP3    H240016   4.619   5.913   6.425 -0.3047  0.1415 -0.3474
13359TIP3   OH240017   7.857   0.495   6.231  0.1397 -0.7562  0.0181
13359TIP3    H140018   7.774   0.499   6.183 -0.5071  2.1531  1.1556
13359TIP3    H240019   7.833   0.462   6.318  0.1461 -0.0486  0.3019
13360TIP3   OH240020   7.946   6.744   3.631  0.2145  0.3100 -0.2619
13360TIP3    H140021   7.887   6.687   3.581 -0.5538  2.0797 -1.4546
13360TIP3    H240022   8.033   6.708   3.614 -0.0444  0.6536 -2.6682
13361TIP3   OH240023   7.777   5.724   0.101 -0.4133 -0.2915  1.2924
13361TIP3    H140024   7.827   5.726   0.020 -1.9638 -1.6119  0.2314
13361TIP3    H240025   7.796   5.808   0.144  2.0635 -0.4232  0.6182
13362TIP3   OH240026   7.102   6.466   0.170  0.1791 -0.0938  0.0017
13362TIP3    H140027   7.103   6.461   0.074  0.4646  0.1390 -0.0077
13362TIP3    H240028   7.192   6.450   0.196  0.2970  0.7873  0.1795
13363TIP3   OH240029   0.457   1.086   5.424  0.0108 -0.6949  0.3697
13363TIP3    H140030   0.480   1.061   5.335 -0.1344 -0.6543  0.3209
13363TIP3    H240031   0.421   1.007   5.463  0.1239 -0.7270  0.4092
13364TIP3   OH240032   6.483   1.280   1.159  0.5879  0.3418 -0.2715
13364TIP3    H140033   6.436   1.335   1.096  1.4159 -0.5050 -1.6817
13364TIP3    H240034   6.479   1.192   1.120 -0.2314 -0.5317  1.6488
13365TIP3   OH240035   5.320   0.507   6.668  0.1429  0.1495 -0.3680
13365TIP3    H140036   5.267   0.435   6.701 -0.0537  0.5479  0.1996
13365TIP3    H240037   5.260   0.581   6.662  0.8619  0.9465  1.4668
13366TIP3   OH240038   5.499   6.990   3.930  0.4759  0.3165  0.2561
13366TIP3    H140039   5.490   6.965   4.022  1.0392  1.7545  0.7415
13366TIP3    H240040   5.548   6.918   3.890  0.0074 -0.4404  1.0171
13367TIP3   OH240041   1.821   2.673   3.039 -0.2158 -0.4445 -0.0111
13367TIP3    H140042   1.869   2.596   3.071 -1.6740 -0.8700  1.2722
13367TIP3    H240043   1.890   2.735   3.016  0.9929 -1.8214 -0.3173
13368TIP3   OH240044   1.686   5.232   6.127 -0.1561  0.1815 -0.1947
13368TIP3    H140045   1.666   5.175   6.053 -1.0363  0.2762 -0.0431
13368TIP3    H240046   1.621   5.302   6.122  0.3314  0.6696  0.1598
13369TIP3   OH240047   3.037   0.054   2.211 -0.4044  0.4338 -0.1121
13369TIP3    H140048   3.084   0.066   2.129  0.6054  1.7261  0.6104
13369TIP3    H240049   2.960   0.002   2.188  0.0389  0.4720 -1.7901
13370TIP3   OH240050   0.369   2.327   2.759  0.2775 -0.1838 -0.1112
13370TIP3    H140051   0.306   2.362   2.823 -1.5011 -0.1980 -1.7452
13370TIP3    H240052   0.386   2.238   2.788 -1.8115 -0.7676 -0.4895
13371TIP3   OH240053   1.844   5.088   0.542 -0.0564  0.3572  0.1292
13371TIP3    H140054   1.919   5.040   0.507 -0.8358 -1.2601  0.5938
13371TIP3    H240055   1.784   5.021   0.572 -0.8040  1.6552  1.6814
13372TIP3   OH240056   1.689   3.345   1.731 -0.2770 -0.1158  0.2337
13372TIP3    H140057   1.750   3.415   1.755  0.6371  0.5704 -3.4680
13372TIP3    H240058   1.605   3.389   1.722 -0.2007  0.0225  0.1849
13373TIP3   OH240059   3.667   2.836   3.114 -0.0914 -0.5551  0.1779
13373TIP3    H140060   3.737   2.783   3.153 -0.5012 -1.0158  0.3059
13373TIP3    H240061   3.586   2.795   3.146 -0.4246 -0.3969 -0.4541
13374TIP3   OH240062   3.067   1.302   5.940 -0.1233  0.8067 -0.1507
13374TIP3    H140063   3.017   1.279   6.018 -0.5486  1.7177 -0.1449
13374TIP3    H240064   3.157   1.278   5.962 -0.4101 -0.0197  0.1711
13375TIP3   OH240065   2.962   3.438   3.699 -0.1060  0.2282 -0.0873
13375TIP3    H140066   2.883   3.492   3.704 -0.2221  0.0536 -0.0405
13375TIP3    H240067   2.977   3.426   3.605 -0.1451  0.2463 -0.0956
13376TIP3   OH240068   2.451   0.986   5.838 -0.2490  0.0316  0.0257
13376TIP3    H140069   2.381   1.000   5.775 -0.4722  0.4262  0.3534
13376TIP3    H240070   2.479   0.896   5.824  1.0820  0.7058 -1.9985
13377TIP3   OH240071   2.350   5.696   4.375  0.1475 -0.4534  0.1060
13377TIP3    H140072   2.333   5.790   4.370 -2.2946 -0.8303  0.1992
13377TIP3    H240073   2.398   5.676   4.294 -1.5674  0.4750 -1.1926
13378TIP3   OH240074   8.396   1.680   3.975 -0.7501 -0.1705 -0.0139
13378TIP3    H140075   8.355   1.754   4.020  0.9555  0.5966  0.3313
13378TIP3    H240076   8.322   1.632   3.937 -1.9499  1.3519  0.2774
13379TIP3   OH240077   3.364   0.192   2.544 -0.1705 -0.0096 -0.0945
13379TIP3    H140078   3.447   0.202   2.498  0.2807 -0.3524  0.6306
13379TIP3    H240079   3.354   0.274   2.592  0.9840 -0.8908  1.7623
13380TIP3   OH240080   5.898   3.947   5.425 -0.7861  0.0926 -0.5985
13380TIP3    H140081   5.832   3.909   5.482 -0.5459 -0.4714 -0.6935
13380TIP3    H240082   5.868   3.925   5.336 -0.5354 -0.0602 -0.6459
13381TIP3   OH240083   1.964   6.542   1.647  0.2288 -0.3283 -0.1758
13381TIP3    H140084   1.900   6.516   1.713 -1.2356  0.7159 -1.1248
13381TIP3    H240085   2.031   6.473   1.651  0.4215 -0.1234  2.6215
13382TIP3   OH240086   8.210   5.054   0.865  0.3968 -0.5279 -0.4164
13382TIP3    H140087   8.176   5.112   0.934 -1.4231 -1.3977 -0.5296
13382TIP3    H240088   8.224   5.113   0.791  0.5725  0.1176  0.1127
13383TIP3   OH240089   5.265   3.804   5.073 -0.2996 -0.2732 -0.1886
13383TIP3    H140090   5.322   3.856   5.017 -1.8203  1.1728 -0.4749
13383TIP3    H240091   5.278   3.840   5.161  1.6953 -2.1973  0.3903
13384TIP3   OH240092   3.433   3.420   6.279  0.4945  0.2750  0.4202
13384TIP3    H140093   3.386   3.339   6.300 -0.8964  0.8086 -0.5373
13384TIP3    H240094   3.433   3.470   6.361 -0.3461  0.1343  0.5168
13385TIP3   OH240095   5.206   7.351   0.665 -0.1494  0.4284 -1.4211
13385TIP3    H140096   5.119   7.388   0.650 -0.3741  1.1601  1.2181
13385TIP3    H240097   5.194   7.257   0.652 -1.6511  0.3761  0.0597
13386TIP3   OH240098   7.656   3.358   3.378  0.0854 -0.5668  0.5567
13386TIP3    H140099   7.591   3.299   3.416  3.0464 -3.7211  1.1533
13386TIP3    H240100   7.670   3.424   3.446 -0.6038 -1.3375  1.4708
13387TIP3   OH240101   7.777   1.724   1.052  0.1541 -0.5573 -0.0502
13387TIP3    H140102   7.772   1.747   1.144 -0.2929 -0.3105 -0.1368
13387TIP3    H240103   7.686   1.717   1.023  0.2591 -2.0847 -0.1080
13388TIP3   OH240104   0.610   2.964   3.894  0.5727  0.7553  0.0032
13388TIP3    H140105   0.594   2.996   3.805  0.5302  2.5729  0.6174
13388TIP3    H240106   0.577   2.875   3.893  0.4524  0.7764 -1.7697
13389TIP3   OH240107   4.761   1.469   2.627  0.1782 -0.3394 -0.5023
13389TIP3    H140108   4.827   1.443   2.692 -0.5038 -1.9966 -0.4151
13389TIP3    H240109   4.749   1.390   2.573 -0.7813  0.3554 -1.3333
13390TIP3   OH240110   8.246   1.777   5.914 -0.2566  0.1072 -0.0005
13390TIP3    H140111   8.151   1.768   5.920 -0.6061  2.0428 -1.5225
13390TIP3    H240112   8.268   1.747   5.826  1.2921 -4.6085  1.6807
13391TIP3   OH240113   5.885   2.200   2.620 -0.3909 -0.1955 -0.6970
13391TIP3    H140114   5.942   2.257   2.671 -1.0826 -0.8928  0.9439
13391TIP3    H240115   5.802   2.248   2.614  0.1822  0.6381 -2.7241
13392TIP3   OH240116   6.384   3.368   5.969 -0.0214 -0.8328 -0.2217
13392TIP3    H140117   6.394   3.415   5.886  1.2706 -0.0423  0.3508
13392TIP3    H240118   6.464   3.386   6.017 -1.5425  0.4188  2.0663
13393TIP3   OH240119   7.078   7.219   4.337 -0.1242 -0.3500  0.0589
13393TIP3    H140120   7.128   7.159   4.392  2.7140  2.0185  0.2781
13393TIP3    H240121   7.129   7.300   4.337 -2.5786  1.3459 -2.0789
13394TIP3   OH240122   5.603   2.250   1.430  0.1832 -0.4413  0.2934
13394TIP3    H140123   5.589   2.162   1.396 -0.3777 -0.2642  0.0517
13394TIP3    H240124   5.693   2.272   1.404 -0.0673 -0.4996 -0.6782
13395TIP3   OH240125   3.091   3.887   3.423 -0.5785 -0.0121  0.5290
13395TIP3    H140126   3.058   3.949   3.488 -0.1158  0.4382  0.3483
13395TIP3    H240127   3.040   3.907   3.344 -1.3624 -0.7718  0.8229
13396TIP3   OH240128   7.089   7.423   2.472  0.4237  0.5941 -0.3003
13396TIP3    H140129   7.023   7.399   2.407  0.6488  0.1039 -0.3508
13396TIP3    H240130   7.064   7.374   2.551  0.1008  1.2510  0.0178
13397TIP3   OH240131   2.392   3.251   3.682  0.4157 -0.5250  0.4796
13397TIP3    H140132   2.383   3.326   3.742  1.5826  0.0752 -0.0542
13397TIP3    H240133   2.308   3.205   3.688 -0.2905  0.7641  0.9038
13398TIP3   OH240134   8.140   2.660   1.087  0.4160 -0.1696  0.3569
13398TIP3    H140135   8.219   2.676   1.036 -0.2623  0.1139 -0.6413
13398TIP3    H240136   8.164   2.591   1.148  1.2804 -0.4521 -0.2876
13399TIP3   OH240137   7.285   4.146   0.359 -0.0301  0.2219 -0.5008
13399TIP3    H140138   7.341   4.223   0.359  0.8793 -0.4206  0.1310
13399TIP3    H240139   7.223   4.161   0.287  0.4524  1.2958 -0.7048
13400TIP3   OH240140   4.843   6.067   4.646  0.5459  0.0587  0.0016
13400TIP3    H140141   4.764   6.114   4.671 -0.0563  0.4613 -2.4237
13400TIP3    H240142   4.897   6.133   4.601  1.1572 -0.7896 -0.5497
13401TIP3   OH240143   1.781   4.850   3.715  0.8162  0.5991  0.1218
13401TIP3    H140144   1.698   4.848   3.762  0.4382  1.3516 -0.4958
13401TIP3    H240145   1.838   4.907   3.768  0.7235  0.6149  0.2039
13402TIP3   OH240146   2.230   1.069   5.193 -0.0546  0.1383  0.1235
13402TIP3    H140147   2.166   1.084   5.123 -1.2432 -0.1609  1.1060
13402TIP3    H240148   2.219   0.976   5.215  0.2211  0.2628  0.7897
13403TIP3   OH240149   4.494   3.919   3.402 -0.1068 -0.2028  0.7989
13403TIP3    H140150   4.517   3.826   3.404 -0.3756 -0.2942 -0.0379
13403TIP3    H240151   4.573   3.963   3.373  0.0330 -0.1601  1.2341
13404TIP3   OH240152   4.811   2.651   2.259 -0.1409 -0.1851 -0.5575
13404TIP3    H140153   4.744   2.700   2.308  0.6261 -0.2321  0.5700
13404TIP3    H240154   4.795   2.559   2.282 -0.2296 -0.2745 -0.9723
13405TIP3   OH240155   0.503   3.384   2.298  0.3181 -0.0331 -0.5132
13405TIP3    H140156   0.566   3.372   2.368 -1.1164 -0.7648  0.6942
13405TIP3    H240157   0.547   3.444   2.237  2.4620 -1.1331 -0.1365
13406TIP3   OH240158   2.852   3.479   5.226 -0.0403  0.3253  0.0530
13406TIP3    H140159   2.937   3.519   5.244  0.7152 -1.3961  0.5144
13406TIP3    H240160   2.819   3.453   5.312 -1.4692  1.7170 -0.0230
13407TIP3   OH240161   1.495   5.808   6.030 -0.1694 -0.0064  0.4582
13407TIP3    H140162   1.572   5.858   6.002 -1.2622  0.0974 -2.7572
13407TIP3    H240163   1.430   5.874   6.052  0.0721 -0.0927  1.4878
13408TIP3   OH240164   8.082   5.652   5.206  0.5127  0.6107  0.2430
13408TIP3    H140165   8.150   5.585   5.200  1.6200  1.5418  1.7618
13408TIP3    H240166   8.091   5.688   5.294 -1.7803  0.9751  0.3922
13409TIP3   OH240167   0.887   2.680   6.760 -0.3144  0.1590  0.0322
13409TIP3    H140168   0.921   2.769   6.772 -0.9840  0.4312 -0.0301
13409TIP3    H240169   0.872   2.648   6.849 -0.5450  0.2978  0.0441
13410TIP3   OH240170   1.665   7.730   4.026 -0.2848  0.1565 -0.7150
13410TIP3    H140171   1.650   7.706   4.118  1.2271 -2.4651 -1.0452
13410TIP3    H240172   1.740   7.789   4.028 -0.3753  0.2586 -0.2441
13411TIP3   OH240173   0.164   1.606   4.832 -0.2246 -0.6994 -0.0321
13411TIP3    H140174   0.238   1.587   4.773  0.9151  1.0518  0.7754
13411TIP3    H240175   0.107   1.663   4.781  0.5757  0.5108  0.3917
13412TIP3   OH240176   3.347   6.249   2.850  0.3918  0.3549  0.0370
13412TIP3    H140177   3.323   6.317   2.787  1.1276 -1.9554 -2.9315
13412TIP3    H240178   3.263   6.209   2.876  0.1752  0.3029 -0.7257
13413TIP3   OH240179   4.252   2.381   6.012 -0.9392 -0.5431 -0.1908
13413TIP3    H140180   4.287   2.430   5.938 -2.8754 -1.0006 -1.4869
13413TIP3    H240181   4.329   2.341   6.052  0.6246  2.6095  0.3229
13414TIP3   OH240182   3.582   5.734   1.382 -0.3867 -0.1137 -0.2040
13414TIP3    H140183   3.650   5.743   1.448 -1.1637  1.8177  0.4068
13414TIP3    H240184   3.574   5.822   1.344 -1.9221 -0.5157 -0.8802
13415TIP3   OH240185   6.782   1.810   1.255 -0.5548  0.0592  0.0868
13415TIP3    H140186   6.792   1.722   1.219  1.3683  0.7370 -1.1929
13415TIP3    H240187   6.745   1.861   1.183 -2.3884  0.1848  1.0631
13416TIP3   OH240188   1.398   1.762   1.805 -0.3894  0.4964  0.4362
13416TIP3    H140189   1.378   1.830   1.741 -0.9351  0.0190  0.0880
13416TIP3    H240190   1.312   1.733   1.837 -0.1079  1.3570  2.0593
13417TIP3   OH240191   6.770   1.013   3.589  0.1359 -0.6315  0.0855
13417TIP3    H140192   6.770   0.936   3.532 -1.1927 -0.2963 -0.3967
13417TIP3    H240193   6.717   0.987   3.664 -0.1255 -0.2555  0.0320
13418TIP3   OH240194   5.594   6.895   1.948 -0.2025 -0.5193  0.3388
13418TIP3    H140195   5.620   6.949   1.874 -0.9720 -0.0790  0.3813
13418TIP3    H240196   5.514   6.850   1.918 -1.0908  0.4176  1.2309
13419TIP3   OH240197   4.298   1.434   2.374 -0.3636  0.8329 -0.4629
13419TIP3    H140198   4.323   1.408   2.285  1.1051  2.1036 -0.4785
13419TIP3    H240199   4.296   1.530   2.370 -2.7233  0.8678  0.2841
13420TIP3   OH240200   5.711   3.971   1.837 -0.1285 -0.7096 -0.4156
13420TIP3    H140201   5.703   4.024   1.758  1.3703  0.5789  0.2567
13420TIP3    H240202   5.774   3.903   1.814  0.0647 -0.5248 -0.4385
13421TIP3   OH240203   4.828   3.045   3.116  0.4022 -0.8304 -0.2256
13421TIP3    H140204   4.848   2.970   3.172 -1.9942 -0.7579  0.8824
13421TIP3    H240205   4.776   3.008   3.044 -1.3195 -0.2315  0.6521
13422TIP3   OH240206   4.311   1.896   3.609 -0.0292  0.0062 -0.2531
13422TIP3    H140207   4.216   1.884   3.607  0.0556 -1.3504  1.4653
13422TIP3    H240208   4.328   1.938   3.693  0.9966 -1.3792  0.2768
13423TIP3   OH240209   2.679   5.393   5.478 -0.3864  0.2355  0.5296
13423TIP3    H140210   2.617   5.457   5.512 -0.1891  0.0633  1.2352
13423TIP3    H240211   2.652   5.310   5.518 -0.3908 -0.0488 -0.0531
13424TIP3   OH240212   3.994   5.963   6.490 -0.9775  0.1804 -0.3606
13424TIP3    H140213   3.972   5.959   6.397  0.9274  1.8351 -0.9681
13424TIP3    H240214   4.005   6.057   6.507  2.5331 -0.2565  0.4877
13425TIP3   OH240215   2.598   4.804   3.553  0.1008  0.3430 -0.0379
13425TIP3    H140216   2.635   4.779   3.469  0.1545 -1.2887  0.4300
13425TIP3    H240217   2.633   4.891   3.570  0.7884  0.3313 -1.2920
13426TIP3   OH240218   6.788   3.439   5.574 -0.6147 -0.1091  0.1198
13426TIP3    H140219   6.733   3.430   5.496 -0.3711  1.5330 -0.2894
13426TIP3    H240220   6.853   3.369   5.565 -0.4836  0.1535 -1.2744
13427TIP3   OH240221   4.331   0.691   4.294 -0.3533 -0.0144  0.0637
13427TIP3    H140222   4.235   0.693   4.292 -0.3363  0.5060 -0.7315
13427TIP3    H240223   4.355   0.660   4.206  0.1669 -2.4537  0.9893
13428TIP3   OH240224   7.535   7.655   1.281  0.6701  0.6548 -0.0709
13428TIP3    H140225   7.441   7.656   1.294  0.7984  0.6483  0.8883
13428TIP3    H240226   7.550   7.581   1.222  0.1719  0.0134  0.5856
13429TIP3   OH240227   6.295   3.720   3.628 -0.6120  0.0025 -0.0378
13429TIP3    H140228   6.341   3.722   3.712  2.1110 -0.5381 -1.3799
13429TIP3    H240229   6.212   3.765   3.644 -0.5337 -0.7430  3.0760
13430TIP3   OH240230   3.842   2.361   1.763  0.1873 -0.3764  0.4446
13430TIP3    H140231   3.785   2.421   1.810 -0.1999  0.2742 -0.8294
13430TIP3    H240232   3.796   2.277   1.766 -0.0364 -0.2417  0.8399
13431TIP3   OH240233   4.724   5.519   1.919  0.0374 -0.7233 -0.2051
13431TIP3    H140234   4.735   5.566   2.002 -1.2182 -1.7234  0.5597
13431TIP3    H240235   4.706   5.588   1.855  3.3180  0.3196 -0.1911
13432TIP3   OH240236   1.464   5.556   2.084 -0.0920  0.1937  0.4653
13432TIP3    H140237   1.459   5.475   2.134 -2.5089 -1.0910 -1.6749
13432TIP3    H240238   1.428   5.623   2.142  0.4442 -0.5358  1.6677
13433TIP3   OH240239   0.102   6.311   4.273  0.3955  0.3531  0.2429
13433TIP3    H140240   0.163   6.372   4.232  0.8527 -0.4686 -0.3188
13433TIP3    H240241   0.146   6.226   4.269 -0.9205 -0.3229 -0.4605
13434TIP3   OH240242   3.885   5.358   5.646 -0.0559 -0.5310  0.5874
13434TIP3    H140243   3.863   5.443   5.609 -1.3426 -1.8407 -1.8708
13434TIP3    H240244   3.933   5.313   5.576  0.3997 -1.9275  1.7503
13435TIP3   OH240245   1.289   1.614   1.052  0.3390 -0.7088  0.0747
13435TIP3    H140246   1.334   1.613   1.136  0.2989 -0.1674  0.1032
13435TIP3    H240247   1.271   1.706   1.035 -0.9827 -0.9209  0.1919
13436TIP3   OH240248   4.257   3.775   1.911  0.8592 -0.5931  0.3094
13436TIP3    H140249   4.263   3.709   1.842 -0.2989 -1.9564  1.4291
13436TIP3    H240250   4.317   3.744   1.979  0.9220 -0.0441  0.5134
13437TIP3   OH240251   2.986   4.661   2.912  0.5270  0.0362 -0.1241
13437TIP3    H140252   2.997   4.569   2.888 -1.0761 -0.7235  1.7568
13437TIP3    H240253   2.932   4.697   2.841  1.7068 -0.2675 -1.2104
13438TIP3   OH240254   1.205   4.107   2.274 -0.5360 -0.1543  0.5306
13438TIP3    H140255   1.295   4.079   2.290 -0.8372 -2.3883 -1.1734
13438TIP3    H240256   1.188   4.174   2.340  2.0633 -0.3134  1.4581
13439TIP3   OH240257   7.477   5.280   2.436 -0.1470 -0.4808 -0.1680
13439TIP3    H140258   7.519   5.324   2.362 -1.1923 -1.9433 -1.6879
13439TIP3    H240259   7.400   5.334   2.456  0.6569  0.4452  0.5315
13440TIP3   OH240260   8.214   1.535   1.807 -0.0892  0.6144 -0.1476
13440TIP3    H140261   8.302   1.564   1.781  1.9595 -2.8078  2.1421
13440TIP3    H240262   8.183   1.603   1.866  1.9260  1.0058  0.5383
13441TIP3   OH240263   0.258   6.843   4.679 -0.3545 -0.5053 -0.2015
13441TIP3    H140264   0.343   6.806   4.657  0.6162  0.7522  1.2789
13441TIP3    H240265   0.250   6.831   4.773 -1.5958 -0.1390 -0.2425
13442TIP3   OH240266   3.610   6.304   4.540 -0.5932  0.6128 -0.0374
13442TIP3    H140267   3.588   6.221   4.497  0.6787 -0.6136  1.5731
13442TIP3    H240268   3.525   6.340   4.567 -1.0992 -0.7814  0.3127
13443TIP3   OH240269   5.028   5.798   2.729 -0.1671  0.0436  0.1394
13443TIP3    H140270   4.939   5.829   2.713  0.4047  1.3163 -0.8282
13443TIP3    H240271   5.041   5.730   2.662  0.2292  1.2642 -1.0828
13444TIP3   OH240272   6.119   5.480   3.418  0.1899  0.3785 -0.0374
13444TIP3    H140273   6.089   5.563   3.381  2.5758  1.2198 -0.2229
13444TIP3    H240274   6.061   5.465   3.493  0.6741  3.0616  0.9695
13445TIP3   OH240275   5.837   7.060   2.107 -0.5252 -0.2281 -0.0915
13445TIP3    H140276   5.798   7.114   2.038  0.6194 -0.4181 -0.9136
13445TIP3    H240277   5.765   7.042   2.167 -1.3062  0.8125 -0.6905
13446TIP3   OH240278   6.835   1.974   6.574 -0.5483 -0.2139  0.2590
13446TIP3    H140279   6.781   1.948   6.649 -1.4281 -1.9245 -0.9112
13446TIP3    H240280   6.780   1.960   6.498  1.6727 -2.5758 -1.0557
13447TIP3   OH240281   4.328   4.300   5.717 -0.3612 -0.5070 -0.0442
13447TIP3    H140282   4.261   4.282   5.783 -0.1382 -1.6455 -0.0989
13447TIP3    H240283   4.410   4.304   5.767 -0.3300 -0.2067 -0.1151
13448TIP3   OH240284   4.336   0.209   5.696 -0.1659  0.6660 -0.1892
13448TIP3    H140285   4.306   0.181   5.782 -1.8680 -0.6891 -1.1576
13448TIP3    H240286   4.422   0.249   5.712  0.4439 -1.2634  1.8762
13449TIP3   OH240287   1.203   3.513   3.618 -0.3372 -0.2723  0.6364
13449TIP3    H140288   1.234   3.446   3.557 -0.2897 -0.3822  0.7821
13449TIP3    H240289   1.266   3.512   3.690 -1.2800 -1.2873  1.4896
13450TIP3   OH240290   5.680   5.265   6.615 -0.2717 -0.1294 -0.1136
13450TIP3    H140291   5.740   5.240   6.545 -0.7540 -0.0478 -0.5602
13450TIP3    H240292   5.678   5.189   6.673  0.1974 -0.1646 -0.1443
13451TIP3   OH240293   0.406   7.128   5.204 -0.4911 -0.1450 -0.3845
13451TIP3    H140294   0.460   7.167   5.134 -2.4540  0.9707 -1.3766
13451TIP3    H240295   0.382   7.202   5.259 -1.2809 -0.5636 -0.1587
13452TIP3   OH240296   4.414   2.685   3.121  0.4866 -0.0465  0.3554
13452TIP3    H140297   4.338   2.631   3.146  0.4120 -0.4686 -0.7082
13452TIP3    H240298   4.486   2.650   3.172  0.0567  0.0891  1.0768
13453TIP3   OH240299   4.757   5.144   6.812  0.1106 -0.3520 -0.4621
13453TIP3    H140300   4.792   5.080   6.874  0.8125  0.2440 -0.2303
13453TIP3    H240301   4.768   5.103   6.726  0.4843 -0.5687 -0.3130
13454TIP3   OH240302   5.434   6.129   3.493 -0.0534  0.1653 -0.2178
13454TIP3    H140303   5.388   6.067   3.436 -0.0495  0.2233 -0.2845
13454TIP3    H240304   5.520   6.140   3.452  0.3250 -0.5856  0.3679
13455TIP3   OH240305   1.506   2.454   0.255  0.3382  0.1353  0.5528
13455TIP3    H140306   1.594   2.427   0.279  1.9281  2.6230 -1.9594
13455TIP3    H240307   1.477   2.388   0.192  2.2851  1.5276 -1.9553
13456TIP3   OH240308   6.785   4.682   1.187  0.2001  0.7625 -0.4616
13456TIP3    H140309   6.821   4.608   1.236  0.7868  1.1064 -0.3699
13456TIP3    H240310   6.700   4.698   1.229 -0.2694 -0.3063 -0.9425
13457TIP3   OH240311   4.113   6.930   5.069  0.6499  0.0177  0.5167
13457TIP3    H140312   4.189   6.974   5.033  1.1639  0.5537  2.1651
13457TIP3    H240313   4.061   7.000   5.109 -0.0272 -0.5037  0.5667
13458TIP3   OH240314   0.541   7.606   6.472  0.1140 -0.1412 -0.4588
13458TIP3    H140315   0.448   7.589   6.488 -0.1222 -0.4184 -1.9927
13458TIP3    H240316   0.570   7.532   6.420  0.8052  0.7352 -1.3443
13459TIP3   OH240317   4.901   2.924   5.993 -0.4312 -0.1403 -0.4608
13459TIP3    H140318   4.884   2.947   6.085 -0.2678  2.9159 -1.0909
13459TIP3    H240319   4.837   2.855   5.973 -1.6007  0.3082  1.4805
13460TIP3   OH240320   8.324   7.838   1.025  0.8203  0.4254  0.3964
13460TIP3    H140321   8.306   7.932   1.026  1.0000  0.4742 -0.2429
13460TIP3    H240322   8.368   7.824   0.941  0.1628 -0.3481  0.1789
13461TIP3   OH240323   4.141   7.557   0.135  0.5504 -0.0255  0.1785
13461TIP3    H140324   4.059   7.566   0.087  0.0964  0.3583  1.0125
13461TIP3    H240325   4.123   7.491   0.202  0.3884  1.2541  1.4499
13462TIP3   OH240326   4.913   4.204   1.994 -0.4267 -0.1240  0.1737
13462TIP3    H140327   4.906   4.236   2.084  1.8156  1.1416 -0.0286
13462TIP3    H240328   4.987   4.252   1.957 -1.0069 -0.9322 -2.2321
13463TIP3   OH240329   7.857   5.425   2.078  0.1113 -0.2141 -0.1898
13463TIP3    H140330   7.812   5.370   2.015  0.7528 -2.0714  0.8842
13463TIP3    H240331   7.940   5.380   2.094 -0.0900  0.0973  2.0409
13464TIP3   OH240332   2.326   1.998   4.891 -0.1686 -0.6529  0.0056
13464TIP3    H140333   2.363   2.054   4.822  1.0445 -1.6449 -0.1991
13464TIP3    H240334   2.323   1.911   4.852  1.5948 -1.4704  1.5032
13465TIP3   OH240335   0.208   2.460   0.600 -0.2975 -0.4694 -0.6797
13465TIP3    H140336   0.271   2.485   0.667 -0.5308 -1.1205 -0.2099
13465TIP3    H240337   0.124   2.494   0.632 -0.7853 -2.5693  0.4205
13466TIP3   OH240338   5.302   4.828   1.859 -0.9612  0.0863  0.7635
13466TIP3    H140339   5.355   4.854   1.784 -1.9906  0.6110  0.2024
13466TIP3    H240340   5.305   4.732   1.858 -0.8676  0.0923  0.1340
13467TIP3   OH240341   1.121   1.401   3.823  0.0505 -0.2512  0.2807
13467TIP3    H140342   1.056   1.391   3.892 -0.9106 -0.3023 -0.6170
13467TIP3    H240343   1.148   1.312   3.802 -1.0704 -0.3853 -0.7089
13468TIP3   OH240344   2.491   1.644   1.481  0.0332  0.8768 -0.0097
13468TIP3    H140345   2.484   1.567   1.424  0.3897  0.3890  0.5868
13468TIP3    H240346   2.546   1.705   1.433  0.1172  0.5737 -0.2987
13469TIP3   OH240347   5.029   3.481   1.851  0.3236  0.2387 -0.4125
13469TIP3    H140348   5.096   3.482   1.919 -0.5875  0.4581  0.4986
13469TIP3    H240349   4.983   3.564   1.860  0.4770  0.4817 -1.6095
13470TIP3   OH240350   1.045   6.979   3.120  0.2421 -0.1019 -0.0272
13470TIP3    H140351   1.137   6.967   3.096  0.8911 -1.4490  2.7500
13470TIP3    H240352   1.047   7.047   3.186 -0.7465 -0.2668  0.1785
13471TIP3   OH240353   6.358   7.386   2.165 -0.2382 -0.5864 -0.1958
13471TIP3    H140354   6.369   7.309   2.220 -1.0050 -0.7977 -0.3315
13471TIP3    H240355   6.266   7.410   2.175  0.3920  1.5165  1.4549
13472TIP3   OH240356   1.372   1.298   1.337  0.2729 -0.1172  0.0730
13472TIP3    H140357   1.429   1.243   1.391 -0.9670 -1.3560  0.1986
13472TIP3    H240358   1.289   1.301   1.385 -1.1035 -1.8068 -1.9580
13473TIP3   OH240359   1.544   1.800   3.531 -0.0395  0.3359  0.1742
13473TIP3    H140360   1.477   1.832   3.471  0.0943  0.7178  0.2250
13473TIP3    H240361   1.575   1.718   3.491 -0.9640 -0.1791  0.4660
13474TIP3   OH240362   1.429   2.061   1.983 -0.5882  0.2001 -0.0196
13474TIP3    H140363   1.422   2.128   2.050  1.6960 -0.2989  0.8104
13474TIP3    H240364   1.355   2.003   1.999 -1.3746  1.3286  0.5915
13475TIP3   OH240365   1.172   3.323   4.286  0.2571  0.3251 -0.2805
13475TIP3    H140366   1.127   3.402   4.256 -0.8614  0.1787  0.9538
13475TIP3    H240367   1.136   3.253   4.232  0.3282  0.4639 -0.5115
13476TIP3   OH240368   6.977   5.297   1.724  0.3475 -0.0806 -0.1225
13476TIP3    H140369   7.044   5.229   1.723  0.6203  0.1875 -0.6556
13476TIP3    H240370   6.921   5.275   1.649 -0.2092 -0.3431  0.3575
13477TIP3   OH240371   1.647   6.937   4.728 -0.0093 -0.6953  0.1777
13477TIP3    H140372   1.635   7.004   4.660 -0.0160 -0.9660 -0.0889
13477TIP3    H240373   1.569   6.944   4.783  0.0237 -0.4357  0.1923
13478TIP3   OH240374   0.319   5.997   1.224  0.1186  0.3445  0.4545
13478TIP3    H140375   0.234   5.969   1.257 -0.2843 -1.0904 -1.5624
13478TIP3    H240376   0.382   5.963   1.288 -0.5752 -2.6815 -0.2731
13479TIP3   OH240377   2.533   0.172   1.220  0.1793  0.6139 -0.9126
13479TIP3    H140378   2.441   0.149   1.228  0.8169 -1.5696  1.2030
13479TIP3    H240379   2.548   0.238   1.288  0.4077  0.0631 -0.4179
13480TIP3   OH240380   1.478   7.021   6.621 -0.2436  0.0131 -1.0550
13480TIP3    H140381   1.539   7.011   6.548  0.4362  0.0042 -0.4906
13480TIP3    H240382   1.503   7.104   6.662  0.0294 -0.4795 -0.2169
13481TIP3   OH240383   4.169   4.498   0.041  0.0015 -0.2363  0.0405
13481TIP3    H140384   4.140   4.553  -0.031  0.7914  1.5912  1.0569
13481TIP3    H240385   4.168   4.409   0.005 -0.2248  0.5400 -2.0048
13482TIP3   OH240386   4.966   3.516   4.981  0.0324 -0.4601  0.5415
13482TIP3    H140387   4.973   3.424   5.005 -1.5654 -0.7650 -0.0271
13482TIP3    H240388   5.048   3.535   4.935  0.8228 -1.2877  1.5330
13483TIP3   OH240389   5.366   2.744   4.195  0.0679  0.0910 -0.1440
13483TIP3    H140390   5.287   2.747   4.248  0.4645  0.5578  0.4353
13483TIP3    H240391   5.357   2.816   4.133  0.9644  1.5238  1.2962
13484TIP3   OH240392   7.198   4.528   5.702 -0.0325 -0.2314  0.3185
13484TIP3    H140393   7.236   4.587   5.768 -2.6123  0.8895  0.9399
13484TIP3    H240394   7.236   4.557   5.619  0.0295  1.2276  0.8274
13485TIP3   OH240395   5.909   3.773   3.191 -0.7595 -0.2484  0.1574
13485TIP3    H140396   5.830   3.823   3.167  1.4895  4.6558  1.6967
13485TIP3    H240397   5.903   3.764   3.286  0.0566 -0.7451  0.1628
13486TIP3   OH240398   5.210   7.438   2.365  0.2788 -0.2573  0.1119
13486TIP3    H140399   5.118   7.412   2.372  0.4948 -1.0409  0.1785
13486TIP3    H240400   5.223   7.502   2.435 -0.3517  0.2720 -0.2505
13487TIP3   OH240401   1.578   1.457   1.200  0.2922  0.8462  0.0512
13487TIP3    H140402   1.501   1.509   1.223  1.1162  2.0470  0.1864
13487TIP3    H240403   1.563   1.372   1.241 -0.7085  1.2503  0.5480
13488TIP3   OH240404   7.785   2.593   0.776 -0.2727  0.1763 -0.5921
13488TIP3    H140405   7.705   2.642   0.794  0.3779  0.8057  0.7210
13488TIP3    H240406   7.848   2.659   0.747 -0.0124 -0.1949 -0.8789
13489TIP3   OH240407   5.161   1.172   4.457 -0.0332 -0.1547 -0.3633
13489TIP3    H140408   5.220   1.119   4.510  1.0947  0.5879 -0.8417
13489TIP3    H240409   5.213   1.198   4.381 -1.0779  0.2539 -0.9653
13490TIP3   OH240410   2.465   0.636   6.040  0.0007  0.1001 -0.7281
13490TIP3    H140411   2.529   0.662   5.974  2.5087  1.2868  1.9954
13490TIP3    H240412   2.498   0.554   6.075  0.6969  1.2253  1.4016
13491TIP3   OH240413   3.168   1.523   1.827 -0.2441 -0.0716  0.1888
13491TIP3    H140414   3.085   1.568   1.809  0.8277  2.1777  0.4556
13491TIP3    H240415   3.205   1.504   1.741 -0.4183  0.1675  0.0603
13492TIP3   OH240416   4.730   4.657   0.617  0.1259  0.2174 -0.0886
13492TIP3    H140417   4.683   4.588   0.570  2.1928 -2.0223  0.9287
13492TIP3    H240418   4.688   4.659   0.703  0.8027 -0.6313  0.2725
13493TIP3   OH240419   6.998   5.879   0.507 -0.1190 -0.2980  0.9229
13493TIP3    H140420   6.957   5.958   0.473 -1.7322  0.2288  3.7792
13493TIP3    H240421   7.074   5.911   0.557 -1.3050 -0.3462  2.8719
13494TIP3   OH240422   7.747   4.342   5.132  0.3545 -0.2888 -0.1221
13494TIP3    H140423   7.733   4.309   5.220  0.5533 -0.0032  0.0206
13494TIP3    H240424   7.661   4.374   5.104  0.3902  0.0681  0.1608
13495TIP3   OH240425   6.973   5.870   1.110  0.3790 -0.3389  0.5860
13495TIP3    H140426   7.017   5.829   1.184 -1.1020 -0.9522  1.1767
13495TIP3    H240427   6.933   5.949   1.145 -1.0810 -1.0858  0.7150
13496TIP3   OH240428   2.552   5.175   6.222  0.0708 -0.0243 -0.2343
13496TIP3    H140429   2.540   5.141   6.133  2.2748  1.6896 -1.3075
13496TIP3    H240430   2.601   5.107   6.268  1.5711  0.2640 -1.3250
13497TIP3   OH240431   3.692   0.917   5.320 -0.2883  0.0917 -0.1623
13497TIP3    H140432   3.773   0.867   5.312 -1.1225 -1.2603 -0.4446
13497TIP3    H240433   3.676   0.951   5.232 -0.2213  0.0636 -0.1850
13498TIP3   OH240434   5.377   2.283   0.268 -0.4273 -0.3691 -0.0736
13498TIP3    H140435   5.363   2.225   0.343 -1.6886 -1.1105 -0.8335
13498TIP3    H240436   5.312   2.353   0.279  2.2426  2.0486  1.7989
13499TIP3   OH240437   1.595   2.799   1.681 -0.3753 -0.2191  0.6199
13499TIP3    H140438   1.578   2.775   1.590  0.0543  0.0588  0.4625
13499TIP3    H240439   1.516   2.772   1.728 -1.4588  1.3946 -0.1438
13500TIP3   OH240440   2.545   1.283   3.943  0.0585  0.4866 -0.3966
13500TIP3    H140441   2.603   1.267   3.869 -0.4825  0.0465 -0.7343
13500TIP3    H240442   2.598   1.266   4.020  0.1619 -0.6739 -0.7097
13501TIP3   OH240443   7.925   3.561   4.197 -0.2914 -0.5431 -0.3041
13501TIP3    H140444   7.920   3.498   4.270 -0.3696 -1.0961 -0.7772
13501TIP3    H240445   7.837   3.598   4.191 -0.1724 -0.1775  0.1555
13502TIP3   OH240446   7.713   5.022   3.102  0.0533 -0.0149  0.5645
13502TIP3    H140447   7.682   5.008   3.192  1.4457 -1.0780  0.9089
13502TIP3    H240448   7.808   5.015   3.108  0.0928 -2.6823 -1.3901
13503TIP3   OH240449   4.870   1.916   6.321 -0.1148  0.0617 -0.3561
13503TIP3    H140450   4.956   1.954   6.306  0.4049 -0.8102  0.3174
13503TIP3    H240451   4.808   1.984   6.295  0.7648  0.4576 -1.4876
13504TIP3   OH240452   7.191   7.147   0.440  0.4248 -0.7798 -0.1601
13504TIP3    H140453   7.154   7.229   0.409  1.9487 -0.1684 -0.4488
13504TIP3    H240454   7.233   7.109   0.363  1.9578 -0.5390  0.5066
13505TIP3   OH240455   6.065   4.613   3.407 -0.3403 -0.7610  0.3729
13505TIP3    H140456   5.971   4.604   3.390 -0.5279  0.0009  0.9538
13505TIP3    H240457   6.093   4.527   3.436 -1.5483 -0.2339  3.4170
13506TIP3   OH240458   1.238   0.798   3.274 -0.2310 -0.5863  0.0024
13506TIP3    H140459   1.177   0.860   3.234  0.9755  1.3603  0.9888
13506TIP3    H240460   1.296   0.772   3.203 -0.9874 -0.9112 -0.5096
13507TIP3   OH240461   6.258   3.136   6.024 -0.1569  0.0948  0.1189
13507TIP3    H140462   6.305   3.200   5.971  0.5333 -0.0699  0.5194
13507TIP3    H240463   6.301   3.053   6.006  0.0891  0.0340  0.9184
13508TIP3   OH240464   6.443   4.223   5.767  0.1043 -0.4830  0.1130
13508TIP3    H140465   6.511   4.259   5.710  1.6414 -0.0432  2.0688
13508TIP3    H240466   6.364   4.272   5.744  0.5645 -0.5847 -1.8295
13509TIP3   OH240467   8.108   0.754   4.218 -0.1606 -0.1632 -0.4895
13509TIP3    H140468   8.144   0.718   4.137  0.1039  0.1189 -0.4956
13509TIP3    H240469   8.121   0.684   4.282  0.1500 -0.1691 -0.5566
13510TIP3   OH240470   1.644   4.294   5.459 -0.0870 -0.4478 -0.4047
13510TIP3    H140471   1.659   4.371   5.405 -0.2009 -0.6705 -0.7535
13510TIP3    H240472   1.658   4.220   5.401  0.4374 -0.7010  0.0330
13511TIP3   OH240473   7.827   6.893   4.457  0.1338 -0.1984 -0.3686
13511TIP3    H140474   7.920   6.904   4.479  0.0018 -0.1845  0.2021
13511TIP3    H240475   7.802   6.813   4.504  0.0908 -0.7323 -1.2785
13512TIP3   OH240476   5.750   5.732   1.546 -0.1876  0.1863  0.0912
13512TIP3    H140477   5.732   5.809   1.601  2.2972  0.6006  0.4179
13512TIP3    H240478   5.837   5.704   1.572 -0.2867 -1.6272 -1.3662
13513TIP3   OH240479   3.405   0.896   1.644 -0.1187 -0.6414  0.4492
13513TIP3    H140480   3.391   0.978   1.597  0.5849  0.0156  1.3601
13513TIP3    H240481   3.345   0.901   1.719  1.2963 -0.0590  1.5870
13514TIP3   OH240482   1.755   0.964   3.521  0.0440  0.6175 -0.0040
13514TIP3    H140483   1.826   1.011   3.564  0.1906  0.2947  0.1093
13514TIP3    H240484   1.693   0.945   3.591 -1.0744  2.5439 -0.4082
13515TIP3   OH240485   4.370   2.511   4.183  0.7166  0.2474 -0.3710
13515TIP3    H140486   4.404   2.595   4.151  0.1868  0.4635 -0.3658
13515TIP3    H240487   4.361   2.457   4.105  0.6271  0.3467 -0.4289
13516TIP3   OH240488   4.411   1.488   2.106  0.3045 -0.3567  0.1993
13516TIP3    H140489   4.427   1.578   2.076 -0.1256 -0.3365  0.0156
13516TIP3    H240490   4.493   1.461   2.145  0.6435 -0.1017 -0.3144
13517TIP3   OH240491   7.694   0.338   0.424  0.0248  0.2538  0.5524
13517TIP3    H140492   7.724   0.393   0.351  2.5426 -0.3019  1.0644
13517TIP3    H240493   7.716   0.388   0.503 -1.0919  0.1110  0.9635
13518TIP3   OH240494   6.580   7.814   1.329  0.0612 -0.0374  0.0169
13518TIP3    H140495   6.561   7.805   1.422  1.9259  1.1285  0.5632
13518TIP3    H240496   6.675   7.827   1.325  0.0886 -0.5045 -2.0860
13519TIP3   OH240497   8.319   3.331   4.636 -0.1554 -0.0359  0.0344
13519TIP3    H140498   8.325   3.339   4.731 -1.8109 -0.9877  0.2554
13519TIP3    H240499   8.335   3.238   4.619 -1.2044 -0.1320 -0.4804
13520TIP3   OH240500   7.662   5.553   4.580  0.4396  0.1027 -0.8379
13520TIP3    H140501   7.648   5.460   4.564  0.6504  0.3184 -2.3852
13520TIP3    H240502   7.573   5.590   4.585  0.3483 -0.2080  0.1183
13521TIP3   OH240503   5.495   2.119   2.401 -0.0228  0.0715  0.0734
13521TIP3    H140504   5.411   2.163   2.393  0.1254  0.3948  0.2510
13521TIP3    H240505   5.478   2.042   2.455 -0.0056  0.6915  0.9802
13522TIP3   OH240506   6.511   5.165   3.041  0.0692 -0.1993  0.0813
13522TIP3    H140507   6.449   5.188   2.972  0.7528  2.9931  0.3896
13522TIP3    H240508   6.470   5.092   3.087 -1.1370 -1.4202 -2.6781
13523TIP3   OH240509   1.307   4.037   6.739 -0.3677 -0.2138 -0.0970
13523TIP3    H140510   1.262   4.120   6.724  1.6483  0.4575 -3.2024
13523TIP3    H240511   1.324   4.002   6.652  2.7947 -1.6777  0.9529
13524TIP3   OH240512   6.956   1.979   0.396 -0.0684 -0.0186  0.1746
13524TIP3    H140513   6.988   2.038   0.465 -2.0481  2.6474 -0.9943
13524TIP3    H240514   6.872   1.947   0.429  0.3373 -1.1197  0.1862
13525TIP3   OH240515   5.742   2.433   6.492  0.2617  0.1899 -0.5395
13525TIP3    H140516   5.708   2.345   6.476 -1.7749  0.7346  0.4481
13525TIP3    H240517   5.802   2.449   6.419 -0.9606 -1.2167 -1.9342
13526TIP3   OH240518   2.952   7.127   2.933  0.6757 -0.7569  0.1278
13526TIP3    H140519   3.027   7.097   2.984  1.1458 -0.2491 -0.2545
13526TIP3    H240520   2.969   7.093   2.845  0.4046 -0.7217  0.0625
13527TIP3   OH240521   3.414   3.351   5.362 -0.3391  0.3475 -0.7668
13527TIP3    H140522   3.497   3.400   5.364  0.2939 -0.6800 -1.0270
13527TIP3    H240523   3.360   3.399   5.299  0.5093  0.3470 -1.5182
13528TIP3   OH240524   6.499   2.696   4.923 -0.1033  0.4715  0.4117
13528TIP3    H140525   6.523   2.616   4.969 -0.4600  0.9489  1.4676
13528TIP3    H240526   6.583   2.737   4.901  0.0765  0.2973  0.7619
13529TIP3   OH240527   1.897   7.034   4.729  0.2228 -0.2578  0.0602
13529TIP3    H140528   1.813   6.993   4.708 -0.8835  0.7687  2.1984
13529TIP3    H240529   1.946   6.965   4.774 -0.8332  0.0713  1.8080
13530TIP3   OH240530   2.656   7.231   5.099  0.4090 -0.2134  0.0034
13530TIP3    H140531   2.567   7.223   5.134  0.5361  0.4119  0.4865
13530TIP3    H240532   2.671   7.148   5.054 -0.4680 -0.2790 -0.1973
13531TIP3   OH240533   0.194   3.662   4.553  0.2991 -0.5484  0.2260
13531TIP3    H140534   0.186   3.640   4.645  0.1801  1.7150  0.8060
13531TIP3    H240535   0.113   3.708   4.532  1.3667  1.1761 -0.3129
13532TIP3   OH240536   0.194   3.246   5.488  0.2085 -0.1778  0.3577
13532TIP3    H140537   0.215   3.260   5.581 -2.1067  0.0393  0.9118
13532TIP3    H240538   0.113   3.295   5.475  0.6697  0.0583 -1.8926
13533TIP3   OH240539   7.327   1.116   1.979 -0.6238 -0.2472  0.2208
13533TIP3    H140540   7.324   1.100   2.073 -1.3580  0.8739  0.4151
13533TIP3    H240541   7.237   1.138   1.956 -0.4391 -0.4469 -0.7394
13534TIP3   OH240542   2.611   5.813   2.713  0.1807 -0.4831 -0.3293
13534TIP3    H140543   2.624   5.835   2.806  0.1898 -1.3846 -0.1068
13534TIP3    H240544   2.570   5.727   2.715  0.0887 -0.4608 -1.1683
13535TIP3   OH240545   7.381   0.046   2.408  0.1044  0.1785  0.5537
13535TIP3    H140546   7.391  -0.049   2.397 -1.3784 -0.0921  1.2341
13535TIP3    H240547   7.470   0.078   2.418  0.5909 -1.2933  1.3458
13536TIP3   OH240548   7.356   6.725   3.984 -0.7111  0.3572 -0.0915
13536TIP3    H140549   7.393   6.763   4.063 -2.7432 -1.8126  2.0766
13536TIP3    H240550   7.358   6.796   3.919  3.5247  1.4275  0.9397
13537TIP3   OH240551   0.059   2.207   2.732 -0.1746  0.2268 -0.1404
13537TIP3    H140552   0.043   2.153   2.810 -0.8570  1.0178  0.2844
13537TIP3    H240553   0.070   2.295   2.767 -0.1806  0.5425 -0.9246
13538TIP3   OH240554   7.480   1.179   0.361  0.1316 -0.0850 -0.0886
13538TIP3    H140555   7.389   1.163   0.388  0.3301 -1.1173 -0.0007
13538TIP3    H240556   7.479   1.270   0.328 -1.0258 -0.2130 -0.4791
13539TIP3   OH240557   1.900   4.273   3.699  0.3231  0.1272  0.0561
13539TIP3    H140558   1.968   4.220   3.657 -0.1567 -0.6556  0.2242
13539TIP3    H240559   1.868   4.217   3.771 -1.0796  0.0994 -0.5504
13540TIP3   OH240560   6.466   3.671   2.900  0.0257  0.0565  0.1017
13540TIP3    H140561   6.463   3.753   2.852  1.5495 -0.0493 -0.2350
13540TIP3    H240562   6.375   3.641   2.903 -0.2333  0.5588 -1.8570
13541TIP3   OH240563   5.121   7.740   0.197 -0.2937 -0.3367 -0.0247
13541TIP3    H140564   5.062   7.761   0.124  0.8464  2.2144 -0.3565
13541TIP3    H240565   5.128   7.822   0.246  1.7647 -0.9663  0.8686
13542TIP3   OH240566   7.514   3.400   4.227 -0.0226  0.1617  0.8071
13542TIP3    H140567   7.574   3.469   4.198  0.5796  0.1272  1.9290
13542TIP3    H240568   7.568   3.341   4.280 -0.4416 -1.3828 -0.3908
13543TIP3   OH240569   4.064   6.422   1.119 -0.0260  0.2446 -0.3768
13543TIP3    H140570   3.991   6.383   1.070 -0.7812 -0.0438  0.9071
13543TIP3    H240571   4.116   6.467   1.053 -0.1826 -1.3345 -1.6617
13544TIP3   OH240572   2.627   2.400   2.387  0.7243 -0.0348  0.3506
13544TIP3    H140573   2.563   2.457   2.344  0.2547 -1.2576 -0.6318
13544TIP3    H240574   2.685   2.372   2.316  0.3005 -1.6032  0.5993
13545TIP3   OH240575   4.520   7.054   2.899 -0.6133  0.8008  0.5436
13545TIP3    H140576   4.521   7.007   2.982 -2.1959  0.2452  0.2928
13545TIP3    H240577   4.467   7.132   2.916 -0.3806  1.0294  0.2316
13546TIP3   OH240578   0.498   0.885   0.620 -0.6560  0.0524  0.0900
13546TIP3    H140579   0.433   0.869   0.688 -1.1404  0.1434 -0.3433
13546TIP3    H240580   0.579   0.846   0.653 -1.2386 -1.2175  0.0646
13547TIP3   OH240581   5.134   7.901   4.118 -0.8328  0.2470 -0.1246
13547TIP3    H140582   5.070   7.951   4.067 -1.5184 -0.3864  0.0993
13547TIP3    H240583   5.157   7.827   4.061  0.5890  1.0773 -0.6782
13548TIP3   OH240584   3.860   3.788   0.644 -0.1131  0.0343 -0.7313
13548TIP3    H140585   3.919   3.831   0.583  1.0234  2.8012  2.0251
13548TIP3    H240586   3.905   3.708   0.669  0.3783 -0.0684 -1.9080
13549TIP3   OH240587   6.413   6.894   0.344  0.3469 -0.6418 -0.5196
13549TIP3    H140588   6.324   6.899   0.309 -0.1685 -0.2726  0.7823
13549TIP3    H240589   6.446   6.983   0.335  1.0686 -1.0354 -2.1398
13550TIP3   OH240590   7.035   0.884   0.387  0.1658 -0.1885 -0.2958
13550TIP3    H140591   7.010   0.927   0.469  0.6565 -0.4158 -0.0238
13550TIP3    H240592   7.119   0.842   0.407  0.8348  0.6581 -1.2087
13551TIP3   OH240593   5.916   5.527   4.408  0.1150  0.8667 -0.2279
13551TIP3    H140594   5.852   5.543   4.338 -0.7912 -0.2621  0.3100
13551TIP3    H240595   5.928   5.612   4.450 -0.4594  1.2491 -0.8207
13552TIP3   OH240596   1.624   4.693   1.044 -0.2438  0.6668 -0.5071
13552TIP3    H140597   1.535   4.708   1.075 -0.2170  0.8896 -0.5337
13552TIP3    H240598   1.646   4.772   0.994 -0.3778  0.2113 -1.3115
13553TIP3   OH240599   1.645   0.809   0.152  0.4485 -0.0472 -0.3983
13553TIP3    H140600   1.604   0.888   0.117 -0.6875 -0.1999  0.5373
13553TIP3    H240601   1.575   0.744   0.155  1.1554 -0.8365 -0.3138
13554TIP3   OH240602   5.792   2.795   1.227  0.3716 -0.2509 -0.3657
13554TIP3    H140603   5.710   2.748   1.240  0.7319 -0.4399  1.4765
13554TIP3    H240604   5.771   2.860   1.160 -0.7069 -1.6015 -1.4015
13555TIP3   OH240605   2.935   0.341   2.305 -0.5840  0.3420  0.1840
13555TIP3    H140606   3.000   0.272   2.321 -3.5031 -2.7538 -0.1628
13555TIP3    H240607   2.974   0.395   2.236  0.9396 -2.4562 -1.3261
13556TIP3   OH240608   3.155   0.600   2.428  0.0010 -0.0322  0.1103
13556TIP3    H140609   3.073   0.591   2.476  0.0803  0.0129  0.2536
13556TIP3    H240610   3.221   0.560   2.485 -0.0100 -0.5948 -0.2553
13557TIP3   OH240611   5.897   2.112   6.736  0.2728  0.1634  0.4564
13557TIP3    H140612   5.972   2.114   6.676  0.5859  0.9754  0.8475
13557TIP3    H240613   5.886   2.020   6.758 -0.6053 -0.3176 -1.7608
13558TIP3   OH240614   2.015   2.493   3.107 -0.2693 -0.6604  0.7090
13558TIP3    H140615   2.032   2.454   3.021 -1.9528 -0.3460  0.2114
13558TIP3    H240616   2.101   2.496   3.148  0.4035 -1.8823 -0.5070
13559TIP3   OH240617   6.867   1.367   0.013  0.0737  0.1381  0.4425
13559TIP3    H140618   6.858   1.422  -0.065 -0.0733  1.8068  1.5827
13559TIP3    H240619   6.936   1.408   0.063 -1.2839  0.3892  2.2008
13560TIP3   OH240620   2.611   6.248   2.314 -0.1485  0.0395 -0.1496
13560TIP3    H140621   2.690   6.279   2.269 -0.9801  1.1262 -0.8850
13560TIP3    H240622   2.539   6.277   2.259 -1.0702 -1.2726  0.3230
13561TIP3   OH240623   6.270   1.993   1.590  0.1328  0.4130  0.1272
13561TIP3    H140624   6.307   1.991   1.502 -0.3544 -0.4023 -0.0763
13561TIP3    H240625   6.192   2.049   1.582 -0.4899 -0.4824 -0.2140
13562TIP3   OH240626   3.804   5.593   1.791 -0.1262  0.0070 -0.1448
13562TIP3    H140627   3.727   5.605   1.846  0.2214  1.5420  0.0592
13562TIP3    H240628   3.878   5.596   1.852  0.1395 -0.9472 -0.3972
13563TIP3   OH240629   0.673   0.714   5.884  0.1636  0.2122  0.1213
13563TIP3    H140630   0.726   0.694   5.961  0.9182  1.6384 -0.0036
13563TIP3    H240631   0.603   0.770   5.916 -1.4541 -1.7721  0.3127
13564TIP3   OH240632   7.419   4.607   2.543  0.4573 -0.6514  0.0893
13564TIP3    H140633   7.503   4.651   2.548  0.9668 -1.4732 -0.9575
13564TIP3    H240634   7.438   4.522   2.504 -0.8866 -0.7901 -0.3232
13565TIP3   OH240635   3.547   1.840   5.182 -0.3783 -0.2719  0.2571
13565TIP3    H140636   3.635   1.877   5.183 -0.7987  0.7485  1.1799
13565TIP3    H240637   3.494   1.906   5.137 -0.8776 -0.3628  0.7041
13566TIP3   OH240638   1.536   1.494   1.560 -0.0844  0.5268  0.4626
13566TIP3    H140639   1.500   1.461   1.643 -1.5771  0.6693 -0.1020
13566TIP3    H240640   1.618   1.535   1.584 -0.0540 -0.2372  1.7474
13567TIP3   OH240641   3.069   0.706   0.191  0.2310 -0.3075  0.1026
13567TIP3    H140642   3.147   0.738   0.237 -1.4374  2.3022  1.2833
13567TIP3    H240643   3.073   0.749   0.105 -0.1860  0.2781  0.3736
13568TIP3   OH240644   3.386   6.253   3.318  0.4405  0.4947 -0.4170
13568TIP3    H140645   3.460   6.211   3.275  1.0448  1.4555 -0.3516
13568TIP3    H240646   3.350   6.312   3.251 -0.8353 -0.5926 -0.7450
13569TIP3   OH240647   6.739   4.227   6.090  0.2635 -0.5388  0.6696
13569TIP3    H140648   6.814   4.199   6.038  0.2580 -0.1009  0.4160
13569TIP3    H240649   6.724   4.155   6.152  1.8415  0.0196  1.7563
13570TIP3   OH240650   7.083   4.313   0.878  0.3704  0.0617  0.1709
13570TIP3    H140651   7.153   4.323   0.943  1.4830  1.2666 -1.1514
13570TIP3    H240652   7.129   4.287   0.798 -0.9334 -1.0357 -0.2570
13571TIP3   OH240653   0.642   1.070   1.096  0.5010  0.6879  0.0841
13571TIP3    H140654   0.727   1.115   1.094  0.4554  0.8639 -2.9857
13571TIP3    H240655   0.598   1.098   1.015 -2.1316 -0.1156  1.1305
13572TIP3   OH240656   3.098   0.025   4.622 -0.3190  0.3677 -0.2172
13572TIP3    H140657   3.164   0.080   4.581 -1.2518  1.9552  0.3403
13572TIP3    H240658   3.134   0.003   4.708  0.4446 -0.6788 -0.7877
13573TIP3   OH240659   4.735   5.112   3.689  0.6548  0.1530  0.1884
13573TIP3    H140660   4.798   5.042   3.673  0.0261 -0.7920  1.6793
13573TIP3    H240661   4.753   5.141   3.778 -1.2062 -0.3857  0.7918
13574TIP3   OH240662   2.704   6.369   5.150 -0.0184  0.1229  0.1046
13574TIP3    H140663   2.615   6.398   5.133  0.2424  0.3043 -1.0101
13574TIP3    H240664   2.753   6.451   5.162  0.1542  0.0550 -0.1272
13575TIP3   OH240665   4.330   4.707   4.821  0.1909 -0.1458  0.1811
13575TIP3    H140666   4.311   4.614   4.836 -2.1612  0.0279 -1.1953
13575TIP3    H240667   4.421   4.709   4.791  1.0826 -1.6912  2.4753
13576TIP3   OH240668   0.332   1.349   5.048  0.0033  0.1061  0.1570
13576TIP3    H140669   0.276   1.381   4.977 -0.2108 -0.7097 -0.0446
13576TIP3    H240670   0.357   1.261   5.022  0.2436 -0.0586  0.9083
13577TIP3   OH240671   6.650   6.086   0.427  0.3428  0.0911  0.3581
13577TIP3    H140672   6.578   6.149   0.433 -0.4128 -0.4945 -1.6333
13577TIP3    H240673   6.619   6.010   0.476 -0.1506  0.0739  0.0331
13578TIP3   OH240674   6.649   5.899   2.096  1.1139  0.5127  0.6198
13578TIP3    H140675   6.718   5.848   2.138  0.3919  0.1787  1.4121
13578TIP3    H240676   6.673   5.990   2.112  2.9813  0.5178 -1.7005
13579TIP3   OH240677   6.901   1.282   0.985  0.7212  0.0628 -0.0939
13579TIP3    H140678   6.886   1.202   0.934  0.6221  1.4290 -2.2914
13579TIP3    H240679   6.814   1.320   0.997  1.0865  2.3298 -3.3978
13580TIP3   OH240680   5.623   6.577   6.682 -0.5172  0.1658 -0.4365
13580TIP3    H140681   5.554   6.520   6.715  1.3216 -1.0377  1.6838
13580TIP3    H240682   5.676   6.521   6.626  0.9067 -0.1117  1.1019
13581TIP3   OH240683   2.147   2.444   4.373  0.1383 -0.0044 -0.1159
13581TIP3    H140684   2.191   2.477   4.295  0.8723  0.9899  0.6942
13581TIP3    H240685   2.187   2.492   4.446 -1.1200 -0.2985  0.8042
13582TIP3   OH240686   0.836   2.591   0.768 -0.2380 -0.2036  0.1570
13582TIP3    H140687   0.883   2.674   0.766  1.0521 -0.8760  1.0782
13582TIP3    H240688   0.837   2.561   0.677  1.6127 -0.4313  0.2156
13583TIP3   OH240689   2.258   5.917   5.920  0.0356 -0.2188 -0.0219
13583TIP3    H140690   2.165   5.941   5.918  0.6979  2.6361 -0.5177
13583TIP3    H240691   2.259   5.829   5.957 -2.7079  0.5454  2.2123
13584TIP3   OH240692   5.369   3.571   1.842 -0.2386  0.2138  0.0434
13584TIP3    H140693   5.354   3.491   1.793  0.4190 -0.3346  0.7132
13584TIP3    H240694   5.332   3.553   1.929 -1.0455  1.0280 -0.1172
13585TIP3   OH240695   0.004   3.830   4.810 -0.1921 -0.5109 -0.2284
13585TIP3    H140696   0.078   3.855   4.754  0.4323  0.6647  1.0271
13585TIP3    H240697  -0.058   3.903   4.802  0.3457  0.1638  1.2938
13586TIP3   OH240698   2.930   3.759   2.613  0.9558 -0.2016  0.0684
13586TIP3    H140699   2.847   3.722   2.641  0.4091  1.3810  0.6724
13586TIP3    H240700   2.941   3.837   2.668  1.8410  0.7522 -1.3942
13587TIP3   OH240701   6.903   7.835   1.584  0.4140 -0.1442  0.0668
13587TIP3    H140702   6.972   7.774   1.610 -2.7011 -4.2666 -0.3058
13587TIP3    H240703   6.869   7.868   1.667  1.0358 -0.2996  0.3915
13588TIP3   OH240704   2.934   0.439   5.215  0.1359 -0.1886 -0.4849
13588TIP3    H140705   2.996   0.471   5.150 -0.4366  0.6569 -0.6333
13588TIP3    H240706   2.968   0.471   5.299  0.3496 -0.4496 -0.4697
13589TIP3   OH240707   5.255   2.286   2.946  0.1537 -0.1648  0.2371
13589TIP3    H140708   5.274   2.232   2.870  0.8939  1.2945 -0.6656
13589TIP3    H240709   5.324   2.352   2.947  0.3069 -0.2702  2.3367
13590TIP3   OH240710   2.741   0.787   0.576 -0.0589 -0.1834 -0.2546
13590TIP3    H140711   2.743   0.732   0.654  2.4302  1.0319  0.6148
13590TIP3    H240712   2.806   0.749   0.517  0.4344  0.8102 -0.3686
13591TIP3   OH240713   7.410   2.865   4.909 -0.4134  0.4050 -0.0918
13591TIP3    H140714   7.407   2.775   4.876  1.9520 -0.2271  1.1816
13591TIP3    H240715   7.472   2.910   4.851  0.3777  0.4835  0.7938
13592TIP3   OH240716   8.431   6.232   5.898  0.4503  0.9291  0.1609
13592TIP3    H140717   8.356   6.182   5.866  1.1990 -0.9790  1.2341
13592TIP3    H240718   8.422   6.318   5.856 -1.9759  0.5687 -0.2052
13593TIP3   OH240719  -0.033   2.037   6.723 -0.0002  0.2501 -0.9137
13593TIP3    H140720   0.019   2.116   6.737 -0.8898  0.4341  2.2954
13593TIP3    H240721   0.019   1.966   6.760 -0.8486  0.0033 -0.1544
13594TIP3   OH240722   4.189   7.366   5.030  0.1568  0.3658  0.5184
13594TIP3    H140723   4.285   7.365   5.029  0.2147 -0.6915  2.1505
13594TIP3    H240724   4.166   7.314   5.107 -1.7315  0.9173  0.3724
13595TIP3   OH240725   0.799   6.096   3.706  0.0529 -0.0496  0.2674
13595TIP3    H140726   0.768   6.058   3.624  0.8379  1.0901 -0.6027
13595TIP3    H240727   0.831   6.021   3.757 -2.1675 -0.9918  0.3570
13596TIP3   OH240728   2.231   7.369   4.513 -0.2893 -0.3030 -0.6989
13596TIP3    H140729   2.269   7.305   4.453  1.4667 -0.0429  0.0895
13596TIP3    H240730   2.259   7.341   4.600 -2.5492 -0.5059  0.0246
13597TIP3   OH240731   4.511   4.185   5.159  0.8543 -0.0615 -0.0689
13597TIP3    H140732   4.431   4.132   5.167  1.4180 -0.7249  1.5019
13597TIP3    H240733   4.543   4.166   5.070  0.3873 -1.4164  0.0237
13598TIP3   OH240734   7.926   1.339   1.308  0.2244  0.4463  0.6179
13598TIP3    H140735   7.914   1.325   1.402 -0.0395 -0.9574  0.4005
13598TIP3    H240736   7.859   1.284   1.268  2.3692 -1.4759 -0.4782
13599TIP3   OH240737   2.619   7.076   1.577  0.4270  0.5994 -0.0651
13599TIP3    H140738   2.626   7.137   1.504  2.5193  2.7359  1.7348
13599TIP3    H240739   2.544   7.107   1.627  1.9694  2.3959  1.2918
13600TIP3   OH240740   4.856   4.555   6.482 -0.2417  0.2261  0.2585
13600TIP3    H140741   4.787   4.573   6.418  0.0424  1.9646  0.3837
13600TIP3    H240742   4.866   4.638   6.529  0.4442 -0.6404  1.6936
13601TIP3   OH240743   4.096   3.218   4.480 -0.3428  0.3688  0.0108
13601TIP3    H140744   4.170   3.157   4.487  0.2621  1.1473  0.6378
13601TIP3    H240745   4.027   3.179   4.533  0.3659  0.6741  1.2044
13602TIP3   OH240746   1.958   4.476   5.192  0.6668 -0.2359  0.6368
13602TIP3    H140747   2.014   4.399   5.181  0.0043 -0.6300 -0.1145
13602TIP3    H240748   2.016   4.550   5.175  0.8221 -0.6636 -0.8868
13603TIP3   OH240749   4.386   6.895   4.083  0.1787  0.0597  0.2184
13603TIP3    H140750   4.382   6.901   4.179 -0.1743 -0.9233  0.2736
13603TIP3    H240751   4.298   6.917   4.054  0.3891  0.7589  0.0825
13604TIP3   OH240752   7.336   7.440   4.233  0.0793 -0.0930  0.0810
13604TIP3    H140753   7.322   7.501   4.305  1.0692  1.6267 -1.1068
13604TIP3    H240754   7.369   7.360   4.274  0.5881  0.8307  1.5228
13605TIP3   OH240755   7.776   1.230   2.145 -0.7237 -0.8730 -0.1634
13605TIP3    H140756   7.701   1.183   2.107 -1.0154 -0.3210 -0.2762
13605TIP3    H240757   7.738   1.308   2.185 -0.0106  0.5278 -2.0471
13606TIP3   OH240758   5.269   5.216   4.257  0.9330 -0.0017  0.0062
13606TIP3    H140759   5.284   5.158   4.183  0.6465 -0.7156  0.4961
13606TIP3    H240760   5.353   5.260   4.271  0.6084  1.2406 -1.6376
13607TIP3   OH240761   0.817   6.868   4.684  0.0617  0.1171 -0.2702
13607TIP3    H140762   0.907   6.835   4.678  0.3426  0.7960  0.0210
13607TIP3    H240763   0.820   6.930   4.758 -1.2167 -1.6411  1.3522
13608TIP3   OH240764   1.028   2.092   4.873 -0.1263 -0.7466 -0.3881
13608TIP3    H140765   1.100   2.070   4.813  0.7895  1.5679 -0.2528
13608TIP3    H240766   1.059   2.064   4.959 -0.3191 -1.7054 -0.6261
13609TIP3   OH240767   0.422   4.135   1.374  0.3382  0.4910 -0.1235
13609TIP3    H140768   0.357   4.075   1.410 -0.3611  2.6430  2.5444
13609TIP3    H240769   0.497   4.128   1.434  1.6798 -0.2027 -1.7942
13610TIP3   OH240770   4.532   3.053   0.991 -0.2948  0.3912  0.7641
13610TIP3    H140771   4.468   2.988   1.021  2.2952 -1.3844  2.8427
13610TIP3    H240772   4.595   3.003   0.940  0.2441  1.8534 -0.0699
13611TIP3   OH240773   2.570   2.992   6.122 -0.4768 -0.2682 -0.1641
13611TIP3    H140774   2.482   2.955   6.123 -0.4411 -0.3498  0.6958
13611TIP3    H240775   2.625   2.923   6.083 -0.5896 -0.6930  0.4292
13612TIP3   OH240776   0.790   4.329   0.531  0.0285 -0.9472 -0.1903
13612TIP3    H140777   0.720   4.395   0.531 -0.0800 -1.0512  0.3118
13612TIP3    H240778   0.834   4.340   0.447 -0.6214 -0.9072 -0.5344
13613TIP3   OH240779   1.556   3.799   3.279 -0.0222 -0.1372  0.0228
13613TIP3    H140780   1.512   3.882   3.261  1.5211  0.8353  0.5124
13613TIP3    H240781   1.495   3.732   3.248 -2.4898  1.0297  1.9731
13614TIP3   OH240782   3.486   0.684   3.610  0.6979  0.5602 -0.1255
13614TIP3    H140783   3.399   0.713   3.583  0.8796 -0.0638 -1.4438
13614TIP3    H240784   3.521   0.638   3.534  2.1522  0.7214  0.4164
13615TIP3   OH240785   5.777   7.887   1.824 -0.0251 -0.7129 -0.1014
13615TIP3    H140786   5.853   7.930   1.864  1.1742 -0.6662 -2.3034
13615TIP3    H240787   5.715   7.958   1.807  0.0169 -0.5444  0.4350
13616TIP3   OH240788   7.481   1.337   2.233 -0.1149  0.6843  0.2632
13616TIP3    H140789   7.526   1.422   2.235  1.0891  0.0718  0.0471
13616TIP3    H240790   7.527   1.284   2.298  0.4436 -0.4038 -0.9612
13617TIP3   OH240791   7.237   2.302   6.665  0.1504 -0.1039  0.1512
13617TIP3    H140792   7.238   2.215   6.705  0.8563 -0.5342 -0.7689
13617TIP3    H240793   7.148   2.312   6.632 -0.0442 -0.3101  0.6081
13618TIP3   OH240794   2.201   2.349   5.755  0.4327  0.0177 -0.1998
13618TIP3    H140795   2.196   2.445   5.750 -2.1018 -0.0648 -0.1008
13618TIP3    H240796   2.235   2.332   5.843 -1.5990  0.8454  0.8120
13619TIP3   OH240797   1.605   1.424   6.850  0.3894 -0.1443  0.0421
13619TIP3    H140798   1.605   1.391   6.760  1.0833 -0.6362  0.2136
13619TIP3    H240799   1.697   1.448   6.866  0.5104 -1.1914  1.0206
13620TIP3   OH240800   4.322   2.545   3.534  0.1952 -0.2056 -0.4766
13620TIP3    H140801   4.293   2.636   3.524 -0.6380 -0.2706  1.0172
13620TIP3    H240802   4.395   2.549   3.596  0.4672 -0.4976 -0.7766
13621TIP3   OH240803   3.097   3.986   1.076  0.7122 -0.3322 -0.6247
13621TIP3    H140804   3.078   4.013   0.986  0.5595 -0.7268 -0.7134
13621TIP3    H240805   3.072   3.894   1.079 -0.3526 -0.0477  0.1304
13622TIP3   OH240806   1.026   4.376   5.053 -0.1694 -0.2354 -0.2149
13622TIP3    H140807   0.992   4.438   5.118 -1.6882  0.7313 -1.8692
13622TIP3    H240808   1.120   4.396   5.047 -0.0589 -0.1169  1.3868
13623TIP3   OH240809   7.611   5.196   1.989  0.2990  0.4126  0.0027
13623TIP3    H140810   7.667   5.258   1.942 -1.3037  1.1587 -1.0036
13623TIP3    H240811   7.660   5.114   1.988  1.2931  0.9878 -0.9946
13624TIP3   OH240812   5.091   5.034   5.006 -0.2834  0.1060 -0.0580
13624TIP3    H140813   5.078   4.995   5.093 -1.9486 -1.6750 -1.0515
13624TIP3    H240814   5.006   5.069   4.982 -0.5019 -1.4899 -1.8894
13625TIP3   OH240815   4.523   3.128   1.263  0.4484  0.6096 -0.0169
13625TIP3    H140816   4.542   3.104   1.173 -1.7365  0.7684 -0.5767
13625TIP3    H240817   4.428   3.117   1.272  0.5791  0.7305  2.2259
13626TIP3   OH240818   7.833   0.115   0.235  0.3122  0.0228  0.3848
13626TIP3    H140819   7.833   0.177   0.308  0.2112  1.0168 -0.4470
13626TIP3    H240820   7.753   0.063   0.248 -1.2602  2.0812 -0.5700
13627TIP3   OH240821   5.870   6.194   3.145  0.4144  0.0754 -0.4298
13627TIP3    H140822   5.914   6.194   3.060  0.2220 -2.4554 -0.5934
13627TIP3    H240823   5.939   6.176   3.209 -0.1249 -3.3237 -0.6320
13628TIP3   OH240824   0.090   7.373   3.585  0.1385  0.2285 -0.5373
13628TIP3    H140825   0.022   7.353   3.650  0.9164  1.2438  0.6490
13628TIP3    H240826   0.114   7.289   3.547 -1.0974 -0.2532 -0.2838
13629TIP3   OH240827   2.971   4.861   3.481  0.7299  0.0675 -0.1460
13629TIP3    H140828   3.047   4.886   3.429 -0.5007 -1.3208 -2.8184
13629TIP3    H240829   2.911   4.936   3.474  0.4556 -0.2219 -1.0256
13630TIP3   OH240830   7.411   3.320   2.181  0.3015  0.0210 -0.3821
13630TIP3    H140831   7.334   3.291   2.230  0.6542  1.4977  1.1345
13630TIP3    H240832   7.396   3.289   2.092 -1.7235 -0.3162  0.0310
13631TIP3   OH240833   8.151   6.912   0.816 -0.6791  0.3251  0.4406
13631TIP3    H140834   8.196   6.985   0.859 -0.0182  0.2339 -0.0841
13631TIP3    H240835   8.208   6.837   0.832 -0.3369  0.3243 -0.7271
13632TIP3   OH240836   0.797   6.442   2.416 -0.4618  0.1885  0.2477
13632TIP3    H140837   0.817   6.528   2.381  0.1183  0.1151  0.3906
13632TIP3    H240838   0.702   6.434   2.408 -0.8751  1.8358  2.5112
13633TIP3   OH240839   7.758   7.237   4.212  0.1726 -0.4210 -0.1448
13633TIP3    H140840   7.832   7.194   4.255 -0.5568 -1.0643  0.4988
13633TIP3    H240841   7.777   7.331   4.221  0.8212 -0.5748  0.1721
13634TIP3   OH240842   0.595   0.577   0.448  0.4065 -0.2448 -0.1497
13634TIP3    H140843   0.518   0.630   0.468  0.2724  0.0338 -1.3266
13634TIP3    H240844   0.559   0.491   0.427  0.4532 -0.2386 -0.2543
13635TIP3   OH240845   0.572   6.273   5.544  0.2785 -0.7460 -0.2114
13635TIP3    H140846   0.538   6.188   5.518  1.3078 -1.1078 -0.4216
13635TIP3    H240847   0.553   6.331   5.470  1.4571 -1.3044 -0.9650
13636TIP3   OH240848   2.027   7.330   0.161  0.2722  0.1376  0.2660
13636TIP3    H140849   1.991   7.341   0.073 -1.3727  3.1216  1.1681
13636TIP3    H240850   2.105   7.385   0.161 -0.0402  0.5847  0.8139
13637TIP3   OH240851   6.619   6.215   5.588  0.2468 -0.1746 -0.3973
13637TIP3    H140852   6.703   6.193   5.629  0.0450  0.0764  0.1685
13637TIP3    H240853   6.598   6.302   5.621  0.3873  0.3106 -1.5705
13638TIP3   OH240854   5.912   7.757   3.594  0.4563  0.3589  0.1101
13638TIP3    H140855   5.970   7.830   3.570 -0.0751  0.4700 -0.9040
13638TIP3    H240856   5.856   7.792   3.663  1.4877  0.2998  0.9903
13639TIP3   OH240857   6.763   4.123   0.031  0.1305  0.7777  0.0307
13639TIP3    H140858   6.794   4.203  -0.012  0.2090  0.6821 -0.0900
13639TIP3    H240859   6.770   4.143   0.125 -0.3426  1.1015 -0.0020
13640TIP3   OH240860   0.459   4.780   3.975 -1.1887  0.2697 -0.2943
13640TIP3    H140861   0.463   4.837   4.051  0.2030 -0.0241 -0.1155
13640TIP3    H240862   0.513   4.824   3.909 -0.9089 -0.3574 -0.4905
13641TIP3   OH240863   4.553   6.246   3.470  0.1223 -0.4683 -0.4377
13641TIP3    H140864   4.464   6.281   3.462  0.6749  1.9642  2.2954
13641TIP3    H240865   4.607   6.309   3.422  0.6012 -0.4243  0.1450
13642TIP3   OH240866   3.987   1.362   4.006 -0.1766  0.0509  0.2282
13642TIP3    H140867   3.986   1.405   3.921  0.4046 -0.5275 -0.0780
13642TIP3    H240868   4.075   1.376   4.039 -1.2532  3.1861  2.2859
13643TIP3   OH240869   3.520   7.451   0.496  0.6253  0.0306  0.1995
13643TIP3    H140870   3.452   7.487   0.553 -0.9872  1.1070 -2.2584
13643TIP3    H240871   3.532   7.361   0.528 -1.5561 -0.0186  1.0465
13644TIP3   OH240872   8.275   1.998   5.029  0.0843 -0.2484  0.3219
13644TIP3    H140873   8.251   2.091   5.035  0.8387 -0.0203 -0.0773
13644TIP3    H240874   8.351   1.989   5.086  0.9290 -0.2938 -0.7949
13645TIP3   OH240875   6.778   1.065   3.291  0.3375  0.0173 -0.4380
13645TIP3    H140876   6.867   1.062   3.324  0.1371  0.1721  0.1354
13645TIP3    H240877   6.732   0.995   3.337 -0.1185  0.6889  0.1585
13646TIP3   OH240878   4.800   4.209   6.346  0.7772 -0.7173  0.3280
13646TIP3    H140879   4.870   4.266   6.313  0.6057 -0.9871 -0.5364
13646TIP3    H240880   4.846   4.136   6.387  1.0256 -1.0962 -0.5916
13647TIP3   OH240881   2.082   2.130   6.885 -0.5115  0.2239 -0.1180
13647TIP3    H140882   2.174   2.105   6.889 -0.3916  0.8000  0.9583
13647TIP3    H240883   2.061   2.130   6.791  0.3044 -0.8613 -0.3106
13648TIP3   OH240884   5.298   6.377   2.706  0.3456  0.0963  1.0597
13648TIP3    H140885   5.359   6.447   2.683  0.4849 -0.4471 -0.3237
13648TIP3    H240886   5.214   6.405   2.667  0.6263 -0.9198 -0.3726
13649TIP3   OH240887   5.890   2.912   1.776 -0.1119 -0.6743 -0.1386
13649TIP3    H140888   5.825   2.853   1.738  1.4563 -2.1205 -0.6820
13649TIP3    H240889   5.959   2.917   1.711  0.7433  0.1061  0.8041
13650TIP3   OH240890   5.848   3.989   1.157 -0.0593 -0.1731  0.5192
13650TIP3    H140891   5.755   3.970   1.157 -0.4555  1.1161 -2.8801
13650TIP3    H240892   5.854   4.083   1.141  1.7898 -0.3644 -0.1767
13651TIP3   OH240893   2.325   0.201   1.548  0.1518 -0.2101 -0.3928
13651TIP3    H140894   2.419   0.214   1.536  0.2278  1.4063  1.4042
13651TIP3    H240895   2.319   0.151   1.630 -0.5468  0.1997 -0.1873
13652TIP3   OH240896   3.541   3.232   5.596  0.1976  0.3262  0.1238
13652TIP3    H140897   3.637   3.226   5.599  0.1414 -0.3265  1.0200
13652TIP3    H240898   3.521   3.250   5.504  1.1964  0.8693 -0.0041
13653TIP3   OH240899   0.734   0.492   0.703 -0.3350  0.1869  0.4762
13653TIP3    H140900   0.719   0.564   0.641  0.0366 -0.3364 -0.2407
13653TIP3    H240901   0.816   0.452   0.673  1.0538  1.2476  2.6037
13654TIP3   OH240902   2.351   1.180   0.621  0.6123  0.0739 -0.3000
13654TIP3    H140903   2.395   1.097   0.637  1.2224  0.2384 -1.0413
13654TIP3    H240904   2.287   1.161   0.552 -3.0383 -0.9793  3.0028
13655TIP3   OH240905   2.174   6.777   0.133 -0.1173  0.0474  0.7380
13655TIP3    H140906   2.156   6.684   0.145  1.0473 -0.7087 -2.2620
13655TIP3    H240907   2.105   6.808   0.074  0.5737  0.5418  0.1513
13656TIP3   OH240908   6.943   0.964   4.102 -0.3195  0.1552 -0.0846
13656TIP3    H140909   6.848   0.955   4.090 -0.2193 -0.8186 -0.2303
13656TIP3    H240910   6.965   0.897   4.167  0.4607 -0.5448 -1.0367
13657TIP3   OH240911   4.320   0.718   1.874 -0.0700  0.3515 -0.0457
13657TIP3    H140912   4.364   0.637   1.846  0.8555  0.5242  0.8418
13657TIP3    H240913   4.392   0.776   1.900 -0.7856  1.0360  0.4478
13658TIP3   OH240914   6.336   2.137   4.639  0.2566  0.0159 -0.3225
13658TIP3    H140915   6.335   2.203   4.569  2.8392  0.1396 -0.3620
13658TIP3    H240916   6.308   2.184   4.717  0.5883  0.7719 -0.6472
13659TIP3   OH240917   7.452   6.187   4.364  0.0253  0.2365 -0.6381
13659TIP3    H140918   7.440   6.131   4.288 -1.1167 -1.2537  0.5794
13659TIP3    H240919   7.547   6.196   4.372  0.3166 -2.2317 -0.4419
13660TIP3   OH240920   5.509   6.968   2.514 -0.3771  0.5072  0.0612
13660TIP3    H140921   5.538   6.991   2.603 -1.0223  0.3511  0.3189
13660TIP3    H240922   5.482   7.051   2.476 -2.1628  0.2968  0.7891
13661TIP3   OH240923   7.849   1.144   3.362  0.9008  0.2136  0.1788
13661TIP3    H140924   7.794   1.067   3.377  0.9329  0.0108 -0.7139
13661TIP3    H240925   7.929   1.127   3.411  0.6862 -0.0727  0.4280
13662TIP3   OH240926   0.449   4.466   3.412  0.0026  0.4515 -0.3374
13662TIP3    H140927   0.383   4.445   3.346  0.9052 -1.0628 -0.8156
13662TIP3    H240928   0.473   4.557   3.395  0.6355 -0.0832 -2.4861
13663TIP3   OH240929   1.501   0.986   2.375  0.1498 -0.1785 -0.4382
13663TIP3    H140930   1.575   1.029   2.419 -0.6167  1.2215 -0.4416
13663TIP3    H240931   1.490   1.036   2.294 -0.9160 -0.2425 -0.3378
13664TIP3   OH240932   7.642   1.018   0.795 -0.0947 -0.5857 -0.0403
13664TIP3    H140933   7.676   1.106   0.783  0.6737 -0.8874 -0.1058
13664TIP3    H240934   7.568   1.012   0.735 -0.8024  0.3558  0.7059
13665TIP3   OH240935   5.008   1.960   5.616 -0.1526 -0.1437 -0.7430
13665TIP3    H140936   5.084   2.018   5.621  0.2864 -0.8185  1.3793
13665TIP3    H240937   4.933   2.016   5.635  0.0760  0.0502 -0.4169
13666TIP3   OH240938   4.222   6.250   4.178 -0.2665  0.1728 -0.1520
13666TIP3    H140939   4.129   6.232   4.193 -0.3728  0.7785 -0.0272
13666TIP3    H240940   4.253   6.177   4.125 -0.4433 -0.8146  1.0764
13667TIP3   OH240941   5.463   4.811   0.307  1.1694  0.2095 -0.4276
13667TIP3    H140942   5.402   4.823   0.380  2.0105 -1.1635  0.5466
13667TIP3    H240943   5.412   4.832   0.229 -0.4555 -0.6097  0.3737
13668TIP3   OH240944   3.070   4.668   2.273 -0.2506  0.0883 -0.1920
13668TIP3    H140945   3.066   4.750   2.223  0.7926 -0.2120 -0.8020
13668TIP3    H240946   2.991   4.669   2.327 -0.0028  1.7453  0.1930
13669TIP3   OH240947   3.007   2.666   2.073  0.0085 -0.7308 -0.2524
13669TIP3    H140948   2.973   2.577   2.067 -0.5684 -0.7835  2.4383
13669TIP3    H240949   3.039   2.673   2.163  1.7234  1.2308 -0.9345
13670TIP3   OH240950   8.245   5.926   1.814  0.2014 -0.0435 -0.1883
13670TIP3    H140951   8.330   5.889   1.789  0.6281  1.2237 -0.6654
13670TIP3    H240952   8.206   5.956   1.732 -0.4897 -0.1410  0.0923
13671TIP3   OH240953   1.041   4.579   0.960 -0.2216  0.1877  0.0643
13671TIP3    H140954   1.134   4.578   0.936 -0.5264 -1.1206 -1.2246
13671TIP3    H240955   1.033   4.651   1.022  1.4932  0.8688 -0.4420
13672TIP3   OH240956   4.836   2.367   0.372 -0.4956 -0.6237  0.1985
13672TIP3    H140957   4.821   2.359   0.278 -0.5992 -1.7902  0.3055
13672TIP3    H240958   4.870   2.282   0.399  2.9567  0.7139  0.6244
13673TIP3   OH240959   6.991   2.008   4.421  0.3991 -0.3835 -0.7901
13673TIP3    H140960   7.016   2.021   4.513 -1.0999  0.7375 -0.4995
13673TIP3    H240961   7.029   2.083   4.375  0.8392 -0.7521 -1.0359
13674TIP3   OH240962   7.098   6.536   0.971  0.4997  0.0407 -0.2524
13674TIP3    H140963   7.160   6.586   1.024 -0.3109  0.3816  0.3811
13674TIP3    H240964   7.073   6.462   1.026 -0.6610  0.6200  0.0208
13675TIP3   OH240965   8.181   0.280   0.226  0.1168  0.9120 -0.5354
13675TIP3    H140966   8.239   0.355   0.241  0.4032  0.5317  0.3510
13675TIP3    H240967   8.152   0.254   0.314 -1.0514  0.8173 -0.9282
13676TIP3   OH240968   0.853   3.506   5.594  0.2190  0.2342 -0.3343
13676TIP3    H140969   0.832   3.439   5.529 -1.0479 -0.2824  0.5705
13676TIP3    H240970   0.919   3.467   5.650  0.9023  0.4747 -0.9585
13677TIP3   OH240971   5.317   2.061   4.380 -0.2453 -0.3230  0.9753
13677TIP3    H140972   5.322   1.967   4.362 -2.7204 -0.1906 -0.8609
13677TIP3    H240973   5.289   2.066   4.472 -0.9943 -1.4105  0.8253
13678TIP3   OH240974   5.294   7.201   5.676 -0.9017  0.2635 -0.0168
13678TIP3    H140975   5.336   7.281   5.644 -0.3718  0.2529  0.6336
13678TIP3    H240976   5.217   7.232   5.723  0.0258  0.5100  1.4048
13679TIP3   OH240977   4.423   6.836   1.867 -0.0513 -0.3879  0.0569
13679TIP3    H140978   4.344   6.857   1.918  0.1229 -1.4297  0.7982
13679TIP3    H240979   4.397   6.849   1.776 -0.8659 -0.0306  0.3299
13680TIP3   OH240980   1.281   3.826   2.232 -0.1067 -0.3418  0.5316
13680TIP3    H140981   1.268   3.920   2.222 -0.8640 -0.3137  1.6042
13680TIP3    H240982   1.197   3.788   2.207  0.4754 -0.8042 -0.7525
13681TIP3   OH240983   1.453   1.973   6.144 -0.0344  0.2449 -0.1643
13681TIP3    H140984   1.446   2.052   6.199 -1.5482 -0.2263  0.3733
13681TIP3    H240985   1.487   2.006   6.061 -2.0744  1.7868 -0.4879
13682TIP3   OH240986   4.545   6.362   0.909 -0.1913  0.6242  0.1553
13682TIP3    H140987   4.629   6.316   0.907  0.4001  1.4848  2.3190
13682TIP3    H240988   4.514   6.351   0.999 -1.8810  1.2616 -0.3135
13683TIP3   OH240989   7.214   2.948   6.204 -0.3522  0.0759  0.1853
13683TIP3    H140990   7.189   3.026   6.253 -0.7486 -0.5188  0.9682
13683TIP3    H240991   7.139   2.930   6.147 -0.0868  0.5020 -0.2985
13684TIP3   OH240992   1.148   5.205   4.751  0.2402 -0.1695 -0.1474
13684TIP3    H140993   1.213   5.273   4.770  0.2865 -0.7668  2.0082
13684TIP3    H240994   1.070   5.232   4.798  0.4687 -1.9239  1.3354
13685TIP3   OH240995   2.702   7.889   1.198  0.3587  0.0519 -0.1473
13685TIP3    H140996   2.759   7.964   1.179 -0.2592 -0.3664 -4.6764
13685TIP3    H240997   2.614   7.926   1.199  0.1763 -0.3691 -0.6415
13686TIP3   OH240998   4.770   1.256   5.943  0.5240 -0.2496  0.2040
13686TIP3    H140999   4.860   1.255   5.908  0.9004  0.1947  1.1224
13686TIP3    H241000   4.778   1.302   6.026 -0.6759  0.3356  0.0061
13687TIP3   OH241001   2.879   6.472   0.030 -0.2611  0.1279  1.0038
13687TIP3    H141002   2.888   6.555  -0.017 -0.7072  0.0633  0.8050
13687TIP3    H241003   2.865   6.498   0.121 -3.5155  0.4104  0.5506
13688TIP3   OH241004   3.736   7.634   4.898  0.0528 -0.0152 -0.3469
13688TIP3    H141005   3.804   7.570   4.877 -0.0223  0.3389 -1.7709
13688TIP3    H241006   3.727   7.687   4.819 -0.7391  0.9948  0.3805
13689TIP3   OH241007   1.152   7.654   1.135 -0.0449  0.6856 -0.1173
13689TIP3    H141008   1.122   7.711   1.207  0.1302  0.0515  0.4684
13689TIP3    H241009   1.223   7.703   1.094  0.6565  0.5478  0.8997
13690TIP3   OH241010   0.325   7.053   1.646 -0.4843  0.1641  0.7846
13690TIP3    H141011   0.382   6.977   1.660  0.8713  0.8616 -0.6602
13690TIP3    H241012   0.352   7.088   1.562 -2.0272  1.4674  0.7815
13691TIP3   OH241013   0.155   5.972   6.319 -0.1267 -0.0012  0.1084
13691TIP3    H141014   0.186   5.935   6.237  1.0897  0.6981  0.2253
13691TIP3    H241015   0.158   5.899   6.381 -3.9807 -1.3624 -1.0763
13692TIP3   OH241016   2.081   1.286   3.565  0.5962 -0.7329  0.2079
13692TIP3    H141017   2.131   1.340   3.503 -1.2014  0.1430 -0.5701
13692TIP3    H241018   2.045   1.215   3.512  1.1418 -1.4468  0.7826
13693TIP3   OH241019   3.621   5.002   3.914 -0.4211  0.3058  0.2641
13693TIP3    H141020   3.576   4.918   3.920 -0.1355  0.0276 -1.2185
13693TIP3    H241021   3.695   4.994   3.974 -0.8012 -0.2272  0.6739
13694TIP3   OH241022   6.081   3.854   2.813 -0.3685  0.0919  0.2385
13694TIP3    H141023   6.102   3.928   2.757  2.3162 -0.6283  0.1560
13694TIP3    H241024   6.009   3.809   2.768  0.5203  0.5257 -1.7100
13695TIP3   OH241025   5.505   4.535   2.365 -0.2530  0.4437 -0.0918
13695TIP3    H141026   5.499   4.630   2.378 -0.9038  0.4092 -0.1226
13695TIP3    H241027   5.416   4.503   2.380 -0.2794 -0.0296 -1.1582
13696TIP3   OH241028   1.736   4.515   4.589  0.2986 -0.2762 -0.0810
13696TIP3    H141029   1.715   4.491   4.679 -2.2175  1.1318 -0.2118
13696TIP3    H241030   1.712   4.438   4.537 -2.3683  0.3406  0.0815
13697TIP3   OH241031   1.913   5.350   3.437  0.4857  0.0742 -0.0035
13697TIP3    H141032   1.878   5.390   3.358  1.1130 -0.7987 -0.7345
13697TIP3    H241033   1.872   5.399   3.509  0.0809  1.0113 -0.8590
13698TIP3   OH241034   5.252   1.174   5.473  0.0754  0.1838  0.1495
13698TIP3    H141035   5.257   1.166   5.378  1.1228  1.4481  0.0639
13698TIP3    H241036   5.294   1.095   5.506  1.0833  0.4306 -0.4754
13699TIP3   OH241037   4.436   0.956   2.253  0.3283 -0.5053  0.1502
13699TIP3    H141038   4.381   1.034   2.259  1.3361  0.1595  1.1673
13699TIP3    H241039   4.376   0.886   2.227 -0.6950  0.4930 -0.2463
13700TIP3   OH241040   1.810   4.025   5.790  0.2864  0.1768  0.0845
13700TIP3    H141041   1.805   3.978   5.707  0.5129  1.0111 -0.4163
13700TIP3    H241042   1.758   4.104   5.776 -0.1501  0.0512  0.9337
13701TIP3   OH241043   0.129   5.963   3.578 -0.2726  0.5449  0.1636
13701TIP3    H141044   0.127   5.868   3.582  0.7283  0.3747 -1.9388
13701TIP3    H241045   0.040   5.989   3.554 -0.0334 -0.0511 -1.4669
13702TIP3   OH241046   6.887   2.832   5.352  0.2970 -0.3651 -0.1539
13702TIP3    H141047   6.865   2.907   5.408 -0.3052 -0.0317 -0.8248
13702TIP3    H241048   6.833   2.761   5.384 -1.5282  0.3305 -1.5102
13703TIP3   OH241049   2.781   3.564   4.969  0.0664 -0.5363 -0.1487
13703TIP3    H141050   2.767   3.527   5.056 -0.8708 -1.2713 -0.5882
13703TIP3    H241051   2.797   3.487   4.913  0.7142 -0.0713 -0.6193
13704TIP3   OH241052   4.533   7.432   5.767  0.6472 -0.1246 -0.5463
13704TIP3    H141053   4.623   7.417   5.739  0.3232 -0.2616 -1.5522
13704TIP3    H241054   4.540   7.454   5.860  2.1602  3.8831 -1.3937
13705TIP3   OH241055   6.552   5.240   6.376  0.4973  0.2905  0.1047
13705TIP3    H141056   6.635   5.233   6.424  0.8342  0.1043 -0.4947
13705TIP3    H241057   6.485   5.214   6.440  0.9544 -0.1230  0.4223
13706TIP3   OH241058   1.346   1.151   3.152 -0.1581 -0.3855  0.6238
13706TIP3    H141059   1.389   1.223   3.107  0.3318 -0.1489  1.4455
13706TIP3    H241060   1.411   1.081   3.154 -0.1040 -0.3251  1.1257
13707TIP3   OH241061   0.311   0.817   3.299 -0.3120 -0.2715  0.1916
13707TIP3    H141062   0.328   0.748   3.235 -1.5671  0.4491 -0.9857
13707TIP3    H241063   0.220   0.803   3.325 -0.4010  0.5976  0.3750
13708TIP3   OH241064   7.540   1.056   5.290  0.1489  0.2230  0.6712
13708TIP3    H141065   7.629   1.027   5.314 -0.4258 -0.6224  1.9018
13708TIP3    H241066   7.526   1.136   5.340 -0.1409 -0.1844  1.2457
13709TIP3   OH241067   2.525   7.691   0.512  0.3522 -0.1541 -0.2490
13709TIP3    H141068   2.483   7.764   0.557  1.5701 -0.7017  1.8913
13709TIP3    H241069   2.456   7.626   0.503  0.0396  0.0087  0.7950
13710TIP3   OH241070   0.021   4.187   6.086 -0.3465  0.5064 -0.1343
13710TIP3    H141071   0.005   4.270   6.041 -1.5243 -0.1896 -1.0515
13710TIP3    H241072   0.116   4.174   6.081 -0.1908  1.6300 -0.2496
13711TIP3   OH241073   7.598   3.167   6.186 -0.1626  0.4908 -0.5248
13711TIP3    H141074   7.599   3.073   6.165 -2.2724  0.2564  0.2431
13711TIP3    H241075   7.506   3.190   6.191  0.2866  2.1600  1.2591
13712TIP3   OH241076   6.191   3.578   0.904 -0.0376  0.0845  0.5117
13712TIP3    H141077   6.223   3.667   0.888 -0.5881 -0.0538 -1.6537
13712TIP3    H241078   6.263   3.521   0.876 -0.1515 -0.1769  0.7447
13713TIP3   OH241079   4.442   4.327   4.310 -0.2247  0.1034  0.1376
13713TIP3    H141080   4.463   4.386   4.382 -0.7243 -0.0331  0.3961
13713TIP3    H241081   4.447   4.382   4.231 -0.5805  0.4629  0.3649
13714TIP3   OH241082   6.416   1.537   0.464 -0.2559  0.3949  0.3369
13714TIP3    H141083   6.425   1.444   0.484  3.3191  0.7505  0.9041
13714TIP3    H241084   6.448   1.546   0.374 -0.2382  1.1466  0.4125
13715TIP3   OH241085   1.262   0.510   0.025 -0.0238  0.8910  0.1029
13715TIP3    H141086   1.170   0.484   0.020 -0.4374  2.1826  0.6436
13715TIP3    H241087   1.266   0.592  -0.023  1.2596 -0.1219 -1.6014
13716TIP3   OH241088   5.294   3.571   0.686 -0.3522  0.1216 -0.3860
13716TIP3    H141089   5.306   3.532   0.773  1.3471  2.2394  0.4232
13716TIP3    H241090   5.296   3.497   0.626 -1.2874 -1.3821  1.3326
13717TIP3   OH241091   5.078   1.713   5.146 -0.2665  0.2246 -0.5597
13717TIP3    H141092   5.049   1.706   5.055 -0.5864  2.6595 -0.7097
13717TIP3    H241093   4.999   1.704   5.198 -0.4496  1.0884 -0.6699
13718TIP3   OH241094   5.079   4.265   4.211  0.7019  0.1365 -0.2283
13718TIP3    H141095   5.019   4.297   4.278  1.1540  0.0248  0.2376
13718TIP3    H241096   5.047   4.177   4.190  0.9909 -0.1312  0.3942
13719TIP3   OH241097   6.372   6.606   1.739 -0.6901 -0.4792 -0.7713
13719TIP3    H141098   6.440   6.672   1.721 -1.4503  0.4511 -0.3327
13719TIP3    H241099   6.300   6.629   1.681 -1.3125 -0.3615  0.0192
13720TIP3   OH241100   5.704   5.923   1.733  0.4600  0.3783 -0.3213
13720TIP3    H141101   5.626   5.975   1.714 -0.6521 -0.0424  2.6352
13720TIP3    H241102   5.751   5.975   1.798  0.4939 -1.2526  0.9970
13721TIP3   OH241103   7.605   3.994   3.429  0.1220 -0.1649  0.0025
13721TIP3    H141104   7.649   3.999   3.514  0.6605  0.9026 -0.3304
13721TIP3    H241105   7.580   4.084   3.409  0.3924 -0.3305 -1.1663
13722TIP3   OH241106   3.346   3.271   6.039 -0.4533  0.1157  1.0425
13722TIP3    H141107   3.393   3.312   5.966 -2.0084  1.6159  0.8258
13722TIP3    H241108   3.380   3.315   6.117  0.9338 -1.2233  1.2410
13723TIP3   OH241109   2.680   5.217   0.217  0.2062 -0.0974 -0.1605
13723TIP3    H141110   2.615   5.154   0.249  0.2170 -0.6558 -1.1713
13723TIP3    H241111   2.710   5.179   0.134  1.7131  0.2281  0.2100
13724TIP3   OH241112   1.469   2.444   6.463  0.1368  0.3236  0.6974
13724TIP3    H141113   1.492   2.463   6.554  0.3759  0.6539  0.5702
13724TIP3    H241114   1.428   2.525   6.432 -0.5823 -0.0197  0.7152
13725TIP3   OH241115   7.688   0.885   3.114  1.1354 -0.0620 -0.4888
13725TIP3    H141116   7.753   0.955   3.108  1.4001 -0.0294  1.8949
13725TIP3    H241117   7.729   0.819   3.171 -0.0222 -1.1081 -0.8192
13726TIP3   OH241118   1.771   7.396   1.446  0.1911 -0.1855 -0.0076
13726TIP3    H141119   1.829   7.366   1.376  0.1477 -1.1592  0.3562
13726TIP3    H241120   1.829   7.428   1.514  0.3439 -1.4782  0.5006
13727TIP3   OH241121   7.863   6.194   6.333 -0.2795  0.6577  0.1070
13727TIP3    H141122   7.897   6.271   6.380 -0.6210  1.7637 -1.3912
13727TIP3    H241123   7.847   6.130   6.402  0.5674  1.7193  1.3445
13728TIP3   OH241124   1.279   4.529   3.029 -0.0789  0.6673 -0.1086
13728TIP3    H141125   1.200   4.583   3.040  0.3972  1.2801  0.3189
13728TIP3    H241126   1.318   4.526   3.116  1.3739  1.9196 -0.6824
13729TIP3   OH241127   5.963   0.518   0.566  0.1878  0.6060  0.2728
13729TIP3    H141128   5.943   0.518   0.472 -0.3241  0.6205  0.3782
13729TIP3    H241129   6.050   0.480   0.572  0.2587  0.6871 -0.2191
13730TIP3   OH241130   6.121   0.639   1.041  0.0212  0.4826  0.2888
13730TIP3    H141131   6.125   0.565   1.101  1.3731  0.1473 -0.1685
13730TIP3    H241132   6.072   0.607   0.965 -1.0987  0.6926  0.9149
13731TIP3   OH241133   1.421   5.957   6.573 -0.1932 -0.9836 -0.0023
13731TIP3    H141134   1.471   5.978   6.495 -0.9912 -1.5764 -0.6895
13731TIP3    H241135   1.337   5.925   6.540 -1.0286 -0.0513  1.1094
13732TIP3   OH241136   4.975   1.662   1.366  0.6659 -0.1207  0.6132
13732TIP3    H141137   5.024   1.620   1.437  0.4946 -0.5616  0.4729
13732TIP3    H241138   4.970   1.596   1.298 -2.8805 -1.3365  1.8337
13733TIP3   OH241139   1.277   4.092   4.739 -0.3662  0.3752  0.1239
13733TIP3    H141140   1.217   4.063   4.808 -0.3941  1.1492  0.4395
13733TIP3    H241141   1.238   4.060   4.658 -1.4609  1.2654  0.2802
13734TIP3   OH241142   2.476   5.011   5.205  0.6233 -0.0388 -0.3624
13734TIP3    H141143   2.532   5.088   5.203 -0.1811  0.5421 -0.8653
13734TIP3    H241144   2.405   5.034   5.266  0.8425 -0.7069  0.1550
13735TIP3   OH241145   7.955   7.361   0.887 -0.3221  0.2770  0.8782
13735TIP3    H141146   7.935   7.308   0.965 -0.0380 -0.5338  0.4122
13735TIP3    H241147   8.024   7.312   0.843  0.5561  1.4883  0.8803
13736TIP3   OH241148   8.244   5.043   4.619  0.1875  0.1655 -0.6292
13736TIP3    H141149   8.225   5.100   4.694 -1.6716 -1.1322 -0.0478
13736TIP3    H241150   8.243   5.102   4.544  1.4082  1.3868  0.2660
13737TIP3   OH241151   1.111   0.466   4.771  0.3517 -0.1787  0.0919
13737TIP3    H141152   1.027   0.442   4.811  0.9548 -0.4762  1.2236
13737TIP3    H241153   1.110   0.423   4.686 -0.8689  0.2698 -0.1425
13738TIP3   OH241154   0.435   1.861   2.087 -0.5227  0.5443  0.3547
13738TIP3    H141155   0.389   1.920   2.145 -0.3632  0.9599  0.0609
13738TIP3    H241156   0.369   1.796   2.061 -0.2247 -0.6140  2.2538
13739TIP3   OH241157   2.819   5.045   5.591  0.3412  0.2804  0.0810
13739TIP3    H141158   2.811   4.985   5.665  0.4258 -0.9546 -0.8633
13739TIP3    H241159   2.747   5.106   5.602 -1.2323 -1.4328 -0.1496
13740TIP3   OH241160   1.981   3.197   4.579  0.0408 -0.6953 -0.4716
13740TIP3    H141161   1.946   3.280   4.547 -2.2535 -1.3644  0.1429
13740TIP3    H241162   1.953   3.132   4.514 -2.1862 -1.6209  1.2517
13741TIP3   OH241163   8.136   3.641   1.980  0.1417 -0.2177  0.0868
13741TIP3    H141164   8.209   3.683   1.935  0.0475 -0.7379 -0.5641
13741TIP3    H241165   8.178   3.588   2.048  0.2923  0.4566  0.5317
13742TIP3   OH241166   6.640   2.774   6.553  0.7885  0.0961 -0.3109
13742TIP3    H141167   6.600   2.700   6.506  1.1664 -0.6973  0.5899
13742TIP3    H241168   6.595   2.851   6.518  1.2291 -0.4342 -2.1552
13743TIP3   OH241169   1.353   3.037   4.840  0.0097 -0.4447  0.4411
13743TIP3    H141170   1.313   3.037   4.753 -1.0784 -0.2997  0.9309
13743TIP3    H241171   1.441   3.002   4.825  0.9042  2.2118 -1.1741
13744TIP3   OH241172   2.004   7.749   0.404  0.0153 -0.0420 -0.6520
13744TIP3    H141173   1.941   7.751   0.476  0.7645 -1.5273  0.0860
13744TIP3    H241174   1.957   7.787   0.330 -1.8734 -1.3979 -0.2156
13745TIP3   OH241175   0.444   5.341   4.283 -0.5448  0.7951  0.2549
13745TIP3    H141176   0.357   5.305   4.300 -0.8590  2.6525  3.1384
13745TIP3    H241177   0.501   5.264   4.274 -2.4876 -0.4822 -2.4759
13746TIP3   OH241178   4.019   4.419   2.227  0.5776 -0.0834  0.4294
13746TIP3    H141179   4.110   4.447   2.232  0.5514 -0.0247  0.5687
13746TIP3    H241180   3.976   4.462   2.300  0.8968 -1.8518  1.7146
13747TIP3   OH241181   2.049   4.128   1.576  0.3645 -0.4981 -0.5199
13747TIP3    H141182   2.022   4.153   1.488 -0.3360 -0.0762 -0.1942
13747TIP3    H241183   2.132   4.174   1.590 -1.2341  2.3368  0.3331
13748TIP3   OH241184   1.805   6.169   1.134 -0.3070  0.5455 -0.2768
13748TIP3    H141185   1.759   6.188   1.216  0.0492  0.7094 -0.1114
13748TIP3    H241186   1.776   6.081   1.110 -3.2060  1.8004 -1.8774
13749TIP3   OH241187   5.896   5.101   1.234 -0.6578 -0.0139  0.8055
13749TIP3    H141188   5.819   5.080   1.286 -0.4238  0.7433  1.4849
13749TIP3    H241189   5.912   5.194   1.251 -0.5931  0.2628 -0.6595
13750TIP3   OH241190   8.216   5.916   3.937  0.0123 -0.2407  0.2959
13750TIP3    H141191   8.174   5.913   3.851  1.2777 -0.5369 -0.3363
13750TIP3    H241192   8.282   5.847   3.934 -0.1549 -0.4792  1.6388
13751TIP3   OH241193   6.424   4.670   2.488 -0.5511  0.5279  0.6845
13751TIP3    H141194   6.423   4.576   2.468 -0.4817  0.7518 -0.4513
13751TIP3    H241195   6.407   4.713   2.404  0.2231  1.5596  1.0347
13752TIP3   OH241196   1.352   7.306   6.674  0.1879  0.3012 -0.5119
13752TIP3    H141197   1.437   7.346   6.656  1.3051 -1.3362  0.8650
13752TIP3    H241198   1.339   7.317   6.768 -0.1083 -1.3041 -0.3306
13753TIP3   OH241199   8.321   0.260   5.474 -0.0183 -0.1172  0.4967
13753TIP3    H141200   8.324   0.166   5.455 -0.4595  0.0373 -0.3784
13753TIP3    H241201   8.411   0.283   5.495 -0.0501 -0.9042  1.5932
13754TIP3   OH241202   4.739   2.200   3.599  0.1120 -0.1972  0.2611
13754TIP3    H141203   4.747   2.116   3.554 -0.0908  0.7659 -1.7013
13754TIP3    H241204   4.649   2.201   3.633 -0.2705 -0.3225 -0.7135
13755TIP3   OH241205   6.871   4.806   6.124 -0.1729  0.0938  0.1041
13755TIP3    H141206   6.870   4.789   6.218  2.6273  0.3522  0.2639
13755TIP3    H241207   6.823   4.888   6.114 -2.5804 -1.1081  0.9331
13756TIP3   OH241208   2.473   1.422   1.302  0.1078 -0.6957 -0.3002
13756TIP3    H141209   2.405   1.421   1.234  0.1538  0.7833 -0.4101
13756TIP3    H241210   2.466   1.337   1.344 -1.8375 -0.5930 -0.3043
13757TIP3   OH241211   8.189   6.136   5.817 -0.1595  0.3049 -0.1054
13757TIP3    H141212   8.183   6.041   5.822  1.6269  0.1871  0.6424
13757TIP3    H241213   8.134   6.160   5.742 -0.5611 -1.3026 -0.3613
13758TIP3   OH241214   2.635   0.411   4.005 -0.3408  0.0514 -0.4071
13758TIP3    H141215   2.686   0.453   3.936 -0.2697 -0.6000 -0.7652
13758TIP3    H241216   2.557   0.378   3.960  0.3295 -1.5684 -0.4803
13759TIP3   OH241217   3.328   7.704   4.466 -0.0865  0.2137 -0.1454
13759TIP3    H141218   3.399   7.643   4.445  0.1613  0.9031 -1.4225
13759TIP3    H241219   3.268   7.698   4.392 -1.4993 -0.5188  1.0263
13760TIP3   OH241220   3.467   4.757   3.881  0.2955  0.0511  0.2727
13760TIP3    H141221   3.377   4.731   3.861  0.6088 -1.7640  1.0288
13760TIP3    H241222   3.468   4.768   3.976  0.3088  2.5057  0.0380
13761TIP3   OH241223   5.492   0.076   2.833 -0.5346  0.4151  0.9945
13761TIP3    H141224   5.445   0.014   2.777 -0.1892 -0.1472  1.3269
13761TIP3    H241225   5.541   0.022   2.894 -0.4800  1.0199  1.4997
13762TIP3   OH241226   3.862   3.986   5.716 -0.1101 -0.0089 -0.0230
13762TIP3    H141227   3.952   3.957   5.727 -0.4070 -0.2861  2.3379
13762TIP3    H241228   3.867   4.057   5.652  1.4210 -1.5040 -1.6619
13763TIP3   OH241229   5.012   4.730   4.012  0.1212 -0.5135  0.1305
13763TIP3    H141230   5.077   4.719   3.944  0.0055  0.0278 -0.0763
13763TIP3    H241231   4.936   4.681   3.981 -0.1591  0.2660 -0.4497
13764TIP3   OH241232   4.288   3.547   4.685  0.3457  0.0724 -0.3541
13764TIP3    H141233   4.267   3.518   4.597 -0.7114  0.5608 -0.2830
13764TIP3    H241234   4.373   3.591   4.677  1.0913 -1.3987 -0.7804
13765TIP3   OH241235   1.371   6.658   0.995 -0.0164 -0.6230 -0.3538
13765TIP3    H141236   1.440   6.647   1.060  0.5690 -0.9287 -1.0156
13765TIP3    H241237   1.393   6.740   0.951 -0.3064 -0.5148 -0.3008
13766TIP3   OH241238   5.319   1.297   1.797  0.1390  0.5374 -0.4057
13766TIP3    H141239   5.293   1.206   1.781  0.2074  0.2972  0.8116
13766TIP3    H241240   5.265   1.325   1.870  1.5587  0.8162  0.5653
13767TIP3   OH241241   1.792   2.774   0.635  0.2596 -0.3392  0.0874
13767TIP3    H141242   1.736   2.701   0.661  0.5447 -0.1655  1.2832
13767TIP3    H241243   1.738   2.827   0.577 -0.4085 -0.8061  0.2705
13768TIP3   OH241244   6.628   1.145   0.844  0.3790  0.4510  0.3599
13768TIP3    H141245   6.664   1.203   0.776 -0.6459 -1.1319 -1.6477
13768TIP3    H241246   6.533   1.159   0.839  0.0803 -1.5869 -0.4014
13769TIP3   OH241247   4.449   4.679   6.545  0.2210  0.1754 -0.1491
13769TIP3    H141248   4.460   4.602   6.601  0.8996 -0.6447 -1.3681
13769TIP3    H241249   4.518   4.739   6.574 -0.1047  0.2108  0.5888
13770TIP3   OH241250   1.170   4.015   4.509 -0.0409 -0.5349 -0.2417
13770TIP3    H141251   1.160   4.086   4.446  0.1605  0.5596  0.9214
13770TIP3    H241252   1.204   3.942   4.457  3.2183  1.2626 -0.8868
13771TIP3   OH241253   1.815   5.034   6.618  0.4042  0.5108  0.2087
13771TIP3    H141254   1.883   5.083   6.572  1.3349 -0.5377  0.4114
13771TIP3    H241255   1.864   4.970   6.670 -0.7862 -2.5401 -2.1421
13772TIP3   OH241256   4.579   5.070   2.315 -0.2392  0.4890  0.3300
13772TIP3    H141257   4.655   5.019   2.342  0.3212  0.8364 -0.5101
13772TIP3    H241258   4.581   5.148   2.370 -0.1580  0.3555  0.5146
13773TIP3   OH241259   6.027   3.287   5.995  0.2394 -0.5404  0.1205
13773TIP3    H141260   6.117   3.267   6.023  0.0229  0.6329  1.7695
13773TIP3    H241261   5.986   3.201   5.985  1.4187 -1.0835 -0.2515
13774TIP3   OH241262   3.598   1.318   1.185 -0.3123 -0.0595  0.4796
13774TIP3    H141263   3.562   1.360   1.107 -2.8112 -2.2705  0.3099
13774TIP3    H241264   3.681   1.364   1.200 -1.1035  2.3715 -1.7453
13775TIP3   OH241265   8.163   6.092   0.680 -0.0668  0.6118 -0.1260
13775TIP3    H141266   8.180   6.026   0.748 -2.0334 -0.4316 -0.5698
13775TIP3    H241267   8.250   6.127   0.659  0.9925 -1.4299  0.5240
13776TIP3   OH241268   0.940   7.091   0.411  0.2038  0.3909  0.7254
13776TIP3    H141269   0.979   7.021   0.359 -0.3703  1.0021 -0.5757
13776TIP3    H241270   0.934   7.054   0.500 -1.7679 -1.9487 -0.2366
13777TIP3   OH241271   0.548   2.068   5.590  0.4203  0.6426 -0.2972
13777TIP3    H141272   0.633   2.104   5.617  0.6794  0.0602 -0.3204
13777TIP3    H241273   0.558   2.049   5.497  0.4046  0.1928 -0.2100
13778TIP3   OH241274   2.973   0.339   0.486  0.4991 -0.1774  0.0199
13778TIP3    H141275   2.954   0.307   0.398  0.1637  1.0622 -0.3760
13778TIP3    H241276   2.919   0.284   0.543 -2.2811  1.4181 -0.8588
13779TIP3   OH241277   0.998   1.016   3.276  0.1653  0.0199 -0.9831
13779TIP3    H141278   0.933   1.015   3.347 -0.1241  0.3184 -1.2421
13779TIP3    H241279   1.027   1.107   3.273 -0.4474  0.2018 -1.8125
13780TIP3   OH241280   4.530   0.829   0.848  0.5106  0.4835  0.0724
13780TIP3    H141281   4.622   0.855   0.857  0.2169  1.8968 -0.7260
13780TIP3    H241282   4.524   0.746   0.895  2.1623  0.4357  0.2579
13781TIP3   OH241283   3.464   1.236   3.235  0.0572  0.4468 -0.5458
13781TIP3    H141284   3.420   1.196   3.160  0.0839  0.9660 -0.8429
13781TIP3    H241285   3.392   1.269   3.290  0.0194 -0.3120 -0.1148
13782TIP3   OH241286   4.110   2.202   1.642  0.6250  0.3330 -0.1945
13782TIP3    H141287   4.198   2.166   1.650  0.4407  0.1750  1.4641
13782TIP3    H241288   4.064   2.171   1.720 -0.6453  1.1218 -0.5922
13783TIP3   OH241289   6.796   5.679   1.919  0.1630 -0.5974  0.0204
13783TIP3    H141290   6.731   5.749   1.914  0.8084 -0.0705 -1.5652
13783TIP3    H241291   6.744   5.598   1.916 -0.4738 -0.1871 -0.1730
13784TIP3   OH241292   5.964   4.253   1.010  0.4995  0.3194  0.2134
13784TIP3    H141293   6.048   4.290   0.984  0.4684  0.2503  0.0122
13784TIP3    H241294   5.941   4.300   1.090  0.2940  0.9949 -0.2228
13785TIP3   OH241295   1.844   4.919   2.431  0.8013 -0.0648  0.1069
13785TIP3    H141296   1.884   4.836   2.458  1.0135 -0.4137 -1.2108
13785TIP3    H241297   1.794   4.947   2.508  0.5034 -1.5440  0.4863
13786TIP3   OH241298   5.093   6.433   3.295 -0.2934  0.0228 -0.3576
13786TIP3    H141299   5.125   6.507   3.347  0.7940 -0.7184  0.0820
13786TIP3    H241300   5.020   6.397   3.345  0.1665 -0.1294  0.2204
13787TIP3   OH241301   6.760   0.503   2.806  0.1371  0.0836  0.2169
13787TIP3    H141302   6.741   0.550   2.887  1.4700  0.2032  0.4834
13787TIP3    H241303   6.854   0.481   2.812  0.3556  0.4338 -1.4582
13788TIP3   OH241304   0.927   5.403   4.642 -0.3208  0.4846 -0.5201
13788TIP3    H141305   0.843   5.436   4.610  0.9968  2.4951 -2.1298
13788TIP3    H241306   0.944   5.454   4.721  0.0472  1.1349 -1.0120
13789TIP3   OH241307   1.149   1.612   2.583  0.3402 -0.1533 -0.4864
13789TIP3    H141308   1.102   1.534   2.613  0.6226 -0.9642 -2.0334
13789TIP3    H241309   1.083   1.663   2.536 -0.0165  0.9335  1.1197
13790TIP3   OH241310   8.147   2.019   6.599  0.0617  0.1231  0.3485
13790TIP3    H141311   8.218   2.022   6.663 -0.3192 -0.2937  0.8027
13790TIP3    H241312   8.191   2.012   6.515  0.5617 -1.1558  0.6917
13791TIP3   OH241313   4.103   6.404   0.175  0.7553  0.6743 -0.1080
13791TIP3    H141314   4.051   6.449   0.109 -1.3822 -0.2528  0.8226
13791TIP3    H241315   4.143   6.330   0.129 -0.3278  0.3117 -0.4888
13792TIP3   OH241316   6.191   6.146   4.843  0.1803  0.0929 -0.7447
13792TIP3    H141317   6.235   6.093   4.909  1.8200  2.3040  0.0900
13792TIP3    H241318   6.255   6.155   4.772 -0.7549 -0.4762 -1.7054
13793TIP3   OH241319   1.461   0.823   5.974 -0.1594  0.0181  0.3518
13793TIP3    H141320   1.523   0.876   5.924  0.3299 -0.4830  0.4089
13793TIP3    H241321   1.504   0.737   5.982 -0.7100 -0.2340  0.6900
13794TIP3   OH241322   5.768   7.051   3.273  0.0800  0.1558  0.0231
13794TIP3    H141323   5.715   7.122   3.310 -0.5599  0.6207 -1.6595
13794TIP3    H241324   5.791   6.996   3.348 -1.4830  0.7986  1.0353
13795TIP3   OH241325   0.190   0.526   4.273 -0.0845  0.9554  0.3869
13795TIP3    H141326   0.147   0.443   4.250 -0.5282  1.7062 -1.7887
13795TIP3    H241327   0.119   0.580   4.308  0.4526  0.0604  3.1056
13796TIP3   OH241328   2.569   4.445   4.194  0.7705  0.4428  0.2635
13796TIP3    H141329   2.492   4.425   4.141  0.8624 -0.9866  0.6232
13796TIP3    H241330   2.561   4.538   4.214 -1.8902 -0.0309  1.8904
13797TIP3   OH241331   2.689   0.995   6.760  0.1492  0.1227  0.4307
13797TIP3    H141332   2.631   0.958   6.826  0.2824  1.1798  1.1672
13797TIP3    H241333   2.774   1.002   6.804  0.5274 -0.2355 -0.2299
13798TIP3   OH241334   3.970   5.283   1.780 -0.2660 -0.0524 -0.1265
13798TIP3    H141335   4.049   5.232   1.797 -0.6461 -0.3179  0.9192
13798TIP3    H241336   4.002   5.367   1.747  0.4443 -0.2195  0.1185
13799TIP3   OH241337   5.142   7.093   3.645  0.0622 -0.8182 -0.4053
13799TIP3    H141338   5.228   7.132   3.660  0.9256 -1.6393 -2.7169
13799TIP3    H241339   5.132   7.029   3.715  0.0678  1.1430  1.5023
13800TIP3   OH241340   7.525   4.318   3.921 -0.4853 -0.1552  0.1555
13800TIP3    H141341   7.501   4.271   4.000 -0.6483 -0.5723 -0.1386
13800TIP3    H241342   7.452   4.377   3.905  0.8414  2.1581  1.9926
13801TIP3   OH241343   1.513   3.152   1.669  0.3300 -0.5761 -0.0625
13801TIP3    H141344   1.551   3.106   1.594 -0.6624  0.3814 -1.1729
13801TIP3    H241345   1.564   3.233   1.675  2.1222 -1.7364  1.9349
13802TIP3   OH241346   4.216   6.209   5.039  0.3987  0.7199  0.1834
13802TIP3    H141347   4.122   6.191   5.035  0.1688  0.5666  3.3950
13802TIP3    H241348   4.227   6.291   4.992 -0.9598 -0.2366 -1.9637
13803TIP3   OH241349   1.461   7.092   1.235 -0.2172  0.3069 -0.3784
13803TIP3    H141350   1.386   7.132   1.190 -1.0284  0.4038  1.0143
13803TIP3    H241351   1.428   7.008   1.267  0.2660  0.3573  0.2660
13804TIP3   OH241352   2.472   4.105   2.107 -0.0853  0.2447 -0.3401
13804TIP3    H141353   2.379   4.102   2.131 -0.2683  0.5514 -0.9851
13804TIP3    H241354   2.511   4.031   2.154 -1.1717 -1.5624 -2.1467
13805TIP3   OH241355   1.203   0.540   5.799  0.3265  0.5838  0.0237
13805TIP3    H141356   1.145   0.563   5.871 -2.0824 -1.4318 -1.1364
13805TIP3    H241357   1.212   0.621   5.749 -1.6427  0.9472  0.1703
13806TIP3   OH241358   5.056   2.019   3.086 -0.4964  0.0649 -0.1861
13806TIP3    H141359   5.020   1.977   3.165  1.2194 -0.2489  0.4714
13806TIP3    H241360   5.144   1.981   3.077 -0.8989 -0.4196 -2.6610
13807TIP3   OH241361   3.986   3.921   6.075  0.4070  0.6758 -0.5090
13807TIP3    H141362   3.936   3.841   6.093  0.7945  0.2337 -1.3836
13807TIP3    H241363   3.925   3.976   6.025  0.1694  0.9022  0.0207
13808TIP3   OH241364   0.444   5.655   2.683 -0.5503  0.3343  0.5550
13808TIP3    H141365   0.447   5.620   2.594  0.8356  0.3865  0.5592
13808TIP3    H241366   0.438   5.577   2.739  3.6110 -0.1459  0.6240
13809TIP3   OH241367   3.554   3.412   2.249  0.0010  0.7445  0.0402
13809TIP3    H141368   3.621   3.480   2.241  1.2292 -0.4502 -0.2815
13809TIP3    H241369   3.501   3.439   2.325  1.2898  1.3743  0.7489
13810TIP3   OH241370   0.826   7.487   3.369  0.1049  1.0612  0.0390
13810TIP3    H141371   0.847   7.477   3.276  1.3941 -0.3673  0.4344
13810TIP3    H241372   0.784   7.404   3.393  0.1881  1.2341  0.8224
13811TIP3   OH241373   3.316   6.576   3.853  0.4833 -0.5443 -0.0007
13811TIP3    H141374   3.248   6.513   3.874 -0.0677  0.4308  1.3141
13811TIP3    H241375   3.389   6.553   3.911  0.4000 -0.1823  0.2516
13812TIP3   OH241376   5.728   6.186   1.567 -0.3224  0.0969  0.0374
13812TIP3    H141377   5.670   6.138   1.626 -0.4172  1.1220  0.8086
13812TIP3    H241378   5.816   6.172   1.602 -0.2339 -0.3413 -0.3423
13813TIP3   OH241379   6.878   1.959   2.628  0.2319 -0.0300 -0.3293
13813TIP3    H141380   6.923   2.002   2.555 -0.0034  1.4639  0.3591
13813TIP3    H241381   6.810   1.906   2.587  0.5505  0.2523 -1.2346
13814TIP3   OH241382   4.296   4.965   3.299  0.7444  0.1195  0.1754
13814TIP3    H141383   4.229   4.937   3.237  1.4358 -0.7813 -0.2003
13814TIP3    H241384   4.301   5.060   3.288 -0.0535  0.1277 -0.2026
13815TIP3   OH241385   4.711   4.351   1.829  0.3859 -0.0630 -0.0538
13815TIP3    H141386   4.772   4.285   1.860  1.0962  0.1822 -0.8769
13815TIP3    H241387   4.766   4.428   1.810 -0.3091  0.4988  0.1437
13816TIP3   OH241388   7.944   7.050   6.860  0.2959 -0.0528  0.0084
13816TIP3    H141389   7.924   7.101   6.782  1.7621  2.8055  1.3529
13816TIP3    H241390   7.861   7.009   6.884 -0.6760  0.7403 -1.8012
13817TIP3   OH241391   0.375   0.578   2.453 -0.3430  0.0829  0.4994
13817TIP3    H141392   0.358   0.566   2.547 -1.0980  1.2137  0.5203
13817TIP3    H241393   0.440   0.649   2.449 -0.6351  0.3318  0.1516
13818TIP3   OH241394   5.392   2.248   6.491  0.3875  0.4307 -0.2776
13818TIP3    H141395   5.358   2.337   6.483  1.2107  0.8154  0.3491
13818TIP3    H241396   5.485   2.259   6.512  0.9077 -0.5772 -1.8160
13819TIP3   OH241397   8.213   6.315   5.514  0.6361 -0.2720 -1.0666
13819TIP3    H141398   8.193   6.393   5.462  0.8503  1.2611  1.0233
13819TIP3    H241399   8.244   6.349   5.597 -0.8255 -2.6111  0.5515
13820TIP3   OH241400   2.576   6.290   5.510 -0.0675 -0.3551  0.5794
13820TIP3    H141401   2.539   6.367   5.467  0.2837 -0.1998  0.5550
13820TIP3    H241402   2.636   6.253   5.445  1.1866  0.4108  1.2555
13821TIP3   OH241403   3.612   6.363   5.200  0.6980  0.0117  0.3586
13821TIP3    H141404   3.607   6.313   5.118  1.0754  0.3567  0.1237
13821TIP3    H241405   3.680   6.428   5.184 -0.2732  1.0724  0.4009
13822TIP3   OH241406   6.872   7.354   3.504  0.1838 -0.1072 -0.0378
13822TIP3    H141407   6.915   7.392   3.581 -0.3476 -1.9804  1.2556
13822TIP3    H241408   6.779   7.371   3.517  0.1899  0.6302 -0.9041
13823TIP3   OH241409   1.898   5.457   2.014  0.0237  0.3772  0.3028
13823TIP3    H141410   1.928   5.515   2.084 -1.7660  1.1017  0.5412
13823TIP3    H241411   1.802   5.460   2.021 -0.2233  0.7515 -2.3946
13824TIP3   OH241412   7.421   4.168   0.860 -0.0861  0.0706  0.1820
13824TIP3    H141413   7.509   4.129   0.857 -0.1927 -0.1576 -0.0438
13824TIP3    H241414   7.369   4.113   0.801 -0.6614 -0.4838  1.1900
13825TIP3   OH241415   4.984   0.723   3.653  0.2016  0.0632  0.6156
13825TIP3    H141416   4.916   0.785   3.680 -0.4632 -0.3973  0.0353
13825TIP3    H241417   5.049   0.777   3.607  0.1003  0.4647  0.9398
13826TIP3   OH241418   5.164   5.167   2.252 -0.1127 -0.4187  0.4746
13826TIP3    H141419   5.257   5.189   2.259 -0.3380  1.0019 -0.5754
13826TIP3    H241420   5.119   5.247   2.280 -0.9677  0.4074 -2.8332
13827TIP3   OH241421   8.040   5.599   2.621 -0.1423 -0.1683  0.2011
13827TIP3    H141422   8.093   5.677   2.639  1.6306 -0.8444 -1.6615
13827TIP3    H241423   7.951   5.632   2.609  0.6693  1.6959 -1.1802
13828TIP3   OH241424   1.032   4.979   2.712  0.0626 -0.2216 -0.5391
13828TIP3    H141425   0.990   5.044   2.655 -1.8489 -0.0630  0.9512
13828TIP3    H241426   0.998   4.895   2.682  0.5890 -0.3332 -0.8493
13829TIP3   OH241427   2.940   2.689   4.574 -0.1673 -0.4522  0.4412
13829TIP3    H141428   2.986   2.676   4.491  0.3846  1.1310  0.4601
13829TIP3    H241429   3.002   2.739   4.628 -1.5110  0.8693  0.8265
13830TIP3   OH241430   7.651   2.917   6.084  0.3194  0.3433  0.1601
13830TIP3    H141431   7.598   2.864   6.144 -0.2437  0.6049 -0.1014
13830TIP3    H241432   7.740   2.885   6.097  0.0845 -0.1857  0.5183
13831TIP3   OH241433   5.976   1.701   5.141 -0.0056 -0.1795 -0.5531
13831TIP3    H141434   6.031   1.698   5.062 -0.1889 -0.9320 -0.6566
13831TIP3    H241435   5.923   1.780   5.129  0.8273  0.3894 -0.5964
13832TIP3   OH241436   7.986   1.633   5.909  0.0430 -0.1140  0.0499
13832TIP3    H141437   7.960   1.598   5.994  2.5254 -2.0770  0.1279
13832TIP3    H241438   7.950   1.571   5.846 -0.0830  0.2094 -0.1992
13833TIP3   OH241439   6.897   3.020   4.523  0.2505  0.2689 -0.0819
13833TIP3    H141440   6.818   3.051   4.478 -0.6174  1.7520  2.2292
13833TIP3    H241441   6.967   3.075   4.490  0.0488 -0.0650 -1.0928
13834TIP3   OH241442   2.736   0.568   3.778 -0.4877  0.4606 -0.7250
13834TIP3    H141443   2.733   0.663   3.774  0.2820  0.4765 -1.1324
13834TIP3    H241444   2.828   0.547   3.791 -0.5143 -0.2533 -1.5561
13835TIP3   OH241445   4.020   1.888   5.341 -0.0234 -0.7014 -0.5419
13835TIP3    H141446   4.098   1.834   5.328  0.6225  0.0289  0.2520
13835TIP3    H241447   4.030   1.926   5.428 -2.5575 -2.6722  0.7252
13836TIP3   OH241448   7.231   0.522   0.897  0.8518  0.2403 -0.1446
13836TIP3    H141449   7.249   0.600   0.949 -0.7250  0.1497  0.6105
13836TIP3    H241450   7.171   0.470   0.951 -0.7300  0.0653 -1.9377
13837TIP3   OH241451   2.171   0.580   1.879  0.2511 -0.3681 -0.4023
13837TIP3    H141452   2.225   0.616   1.809 -1.4750  1.7620 -0.7406
13837TIP3    H241453   2.113   0.652   1.905 -1.0681 -1.9290  1.2955
13838TIP3   OH241454   0.433   3.349   0.097  0.3169 -0.0653  0.6422
13838TIP3    H141455   0.483   3.346   0.016  1.4719  0.3615  1.3181
13838TIP3    H241456   0.423   3.442   0.116  0.7709 -0.1678  1.4151
13839TIP3   OH241457   6.280   6.648   5.368 -0.3542  0.0930  0.4148
13839TIP3    H141458   6.310   6.604   5.448  1.4494  0.8987  0.2310
13839TIP3    H241459   6.185   6.655   5.379 -0.2829 -0.8157  1.9724
13840TIP3   OH241460   3.341   1.599   0.776 -0.0804 -0.2314 -0.0433
13840TIP3    H141461   3.255   1.570   0.806  1.2212 -0.9513  3.4776
13840TIP3    H241462   3.352   1.686   0.815  1.1905 -0.6234  0.5382
13841TIP3   OH241463   6.863   1.569   1.138 -0.6885 -0.2574  0.9146
13841TIP3    H141464   6.833   1.481   1.163  0.6103 -0.6040  1.3423
13841TIP3    H241465   6.959   1.564   1.144 -0.5732  1.0355  0.4088
13842TIP3   OH241466   8.151   4.399   5.359 -0.9010 -0.3606  0.4588
13842TIP3    H141467   8.096   4.420   5.284 -1.9504 -0.6726  1.1154
13842TIP3    H241468   8.215   4.470   5.363 -1.2689  0.0244 -0.3048
13843TIP3   OH241469   7.781   6.253   3.643  0.1077 -0.0854 -0.0566
13843TIP3    H141470   7.858   6.293   3.602 -1.0928  1.2427 -1.1213
13843TIP3    H241471   7.715   6.323   3.643 -0.9522 -1.0273  1.3084
13844TIP3   OH241472   5.707   1.885   4.234  0.0244  0.6070 -0.2618
13844TIP3    H141473   5.616   1.908   4.215 -0.9787 -0.7456  2.4343
13844TIP3    H241474   5.712   1.791   4.217 -0.2649 -0.1545  3.1245
13845TIP3   OH241475   7.210   5.230   0.595  0.0483 -0.0659 -0.3297
13845TIP3    H141476   7.127   5.190   0.568 -0.1232  0.5905 -0.7941
13845TIP3    H241477   7.261   5.157   0.630 -0.6537 -0.5135 -0.2047
13846TIP3   OH241478   7.458   3.685   6.136  0.1185  0.1447 -0.1008
13846TIP3    H141479   7.523   3.696   6.067 -0.0878 -2.5596 -0.8191
13846TIP3    H241480   7.374   3.700   6.092  0.1058  2.0262  0.4636
13847TIP3   OH241481   5.039   3.255   5.039 -0.2271 -0.0653  0.1998
13847TIP3    H141482   5.034   3.165   5.071 -0.0515 -0.1867 -0.1130
13847TIP3    H241483   5.129   3.282   5.058  0.2933 -0.5928 -1.3812
13848TIP3   OH241484   5.290   6.270   3.173  0.5209  0.2606 -0.5485
13848TIP3    H141485   5.241   6.340   3.214  0.2808 -0.1666 -0.0945
13848TIP3    H241486   5.317   6.214   3.246 -0.3325 -0.7803 -1.0081
13849TIP3   OH241487   2.506   1.250   2.589  0.1492 -0.1435 -0.8436
13849TIP3    H141488   2.592   1.275   2.556 -0.1872 -0.5286 -2.0984
13849TIP3    H241489   2.481   1.174   2.536 -0.4197 -0.8346  0.3722
13850TIP3   OH241490   7.281   2.188   6.245  0.2558 -0.0086 -0.0348
13850TIP3    H141491   7.215   2.217   6.182 -0.9858 -1.5684  0.5072
13850TIP3    H241492   7.232   2.140   6.312  1.8952 -0.9453  0.5565
13851TIP3   OH241493   4.978   1.386   4.824  0.4667 -0.8990  0.1853
13851TIP3    H141494   5.026   1.344   4.752 -0.0010 -1.9491  0.4624
13851TIP3    H241495   4.928   1.314   4.864 -0.4021 -0.0575  0.6464
13852TIP3   OH241496   6.894   5.400   0.027 -0.1479  0.2433 -0.0951
13852TIP3    H141497   6.862   5.436   0.110  0.0513 -0.1583  0.1605
13852TIP3    H241498   6.988   5.388   0.041  0.3172  2.1995 -1.1118
13853TIP3   OH241499   3.480   1.398   4.474 -0.5421  0.1138  0.2606
13853TIP3    H141500   3.512   1.425   4.561 -2.4950  0.4851  0.9146
13853TIP3    H241501   3.448   1.309   4.487 -0.0365 -0.1628 -0.3294
13854TIP3   OH241502   4.196   5.495   4.102  0.1863 -0.2446 -0.2018
13854TIP3    H141503   4.159   5.538   4.180  0.1974 -0.0426 -0.3081
13854TIP3    H241504   4.280   5.539   4.089  1.0661 -1.5589  0.7969
13855TIP3   OH241505   6.288   2.638   4.748 -0.3343 -0.2328 -0.1466
13855TIP3    H141506   6.227   2.626   4.821 -0.4207  0.5600 -0.0757
13855TIP3    H241507   6.373   2.651   4.791 -0.2710 -0.4365 -0.2116
13856TIP3   OH241508   4.643   6.100   2.028 -0.2252  0.0419  0.6845
13856TIP3    H141509   4.695   6.178   2.009  3.1701 -1.4295  2.9486
13856TIP3    H241510   4.579   6.129   2.093 -0.0644  1.2593  0.3156
13857TIP3   OH241511   1.724   2.785   6.754  0.0388  0.4479 -0.1968
13857TIP3    H141512   1.762   2.793   6.841 -0.6286  1.3992  0.0310
13857TIP3    H241513   1.770   2.712   6.713  1.2344  0.7917  0.4998
13858TIP3   OH241514   7.572   0.300   6.400 -0.3613 -0.2633 -0.0537
13858TIP3    H141515   7.611   0.249   6.471 -0.7641 -2.4677 -1.3485
13858TIP3    H241516   7.604   0.389   6.415  2.8201 -1.4021  0.6067
13859TIP3   OH241517   7.420   2.632   6.049  0.0967 -0.2336  1.0823
13859TIP3    H141518   7.510   2.634   6.014  0.0676  0.2037  1.0350
13859TIP3    H241519   7.365   2.626   5.971  0.1071 -1.3799  1.1368
13860TIP3   OH241520   0.794   3.433   1.125  0.0779  0.0789  0.0494
13860TIP3    H141521   0.765   3.343   1.114 -0.5364  0.3792 -0.8993
13860TIP3    H241522   0.819   3.439   1.217 -1.1244 -0.7025  0.4548
13861TIP3   OH241523   5.779   4.605   3.323 -0.4341 -0.2137  0.7717
13861TIP3    H141524   5.758   4.687   3.368  0.8085  0.3248  0.4121
13861TIP3    H241525   5.770   4.626   3.230  3.4756  0.6940  0.4307
13862TIP3   OH241526   5.695   5.047   2.068 -0.6028 -0.2932 -0.2903
13862TIP3    H141527   5.762   5.015   2.129  0.1862 -0.1274 -1.0552
13862TIP3    H241528   5.635   4.973   2.058 -0.0980 -0.7236 -0.2098
13863TIP3   OH241529   5.791   6.673   3.529  0.6498 -0.3150 -0.2220
13863TIP3    H141530   5.755   6.586   3.513  0.4315 -0.7070  1.9764
13863TIP3    H241531   5.886   6.659   3.534  0.7091 -0.2076 -1.0486
13864TIP3   OH241532   4.614   7.285   0.091 -0.8184 -0.1868  0.0545
13864TIP3    H141533   4.653   7.199   0.099 -0.1553  0.0439 -0.5559
13864TIP3    H241534   4.519   7.269   0.093 -0.7099 -0.7564  1.4672
13865TIP3   OH241535   3.900   2.252   5.056 -0.2807  0.3369 -0.0594
13865TIP3    H141536   3.923   2.289   5.141 -2.6195  0.6925  0.5062
13865TIP3    H241537   3.901   2.157   5.070 -0.1697  0.3786  0.2214
13866TIP3   OH241538   2.108   3.255   4.312 -0.1866 -0.3684 -0.2008
13866TIP3    H141539   2.166   3.235   4.386 -2.1222 -1.1598  1.1836
13866TIP3    H241540   2.084   3.169   4.276  0.3671 -0.0092 -1.5003
13867TIP3   OH241541   6.155   6.339   6.810 -0.1078  0.0489  0.3769
13867TIP3    H141542   6.207   6.414   6.839  0.2999 -0.2855  0.5268
13867TIP3    H241543   6.103   6.373   6.737 -1.0228  0.8451  1.3784
13868TIP3   OH241544   6.917   7.055   5.108  0.0695 -0.0801  0.1066
13868TIP3    H141545   6.882   7.132   5.063  3.0953  1.0129 -0.6536
13868TIP3    H241546   6.912   7.077   5.201  1.8585  1.6352 -0.1236
13869TIP3   OH241547   2.746   6.056   0.639 -0.2950 -0.3543 -1.1002
13869TIP3    H141548   2.798   6.026   0.714 -0.7386  0.2517 -0.5421
13869TIP3    H241549   2.800   6.034   0.563  1.1747  0.9674 -0.4984
13870TIP3   OH241550   1.429   4.307   2.583  0.2004 -0.2422 -0.1415
13870TIP3    H141551   1.517   4.319   2.618  0.0541 -0.1400  0.1872
13870TIP3    H241552   1.384   4.252   2.647  0.6182 -1.9640 -1.2433
13871TIP3   OH241553   5.510   2.734   2.407 -0.0480 -0.2622  0.2338
13871TIP3    H141554   5.597   2.695   2.415 -0.5462 -1.4470  0.0909
13871TIP3    H241555   5.521   2.825   2.435  1.3558 -0.2365 -0.3487
13872TIP3   OH241556  -0.004   5.347   1.217 -0.1376 -0.2990 -0.6053
13872TIP3    H141557   0.041   5.263   1.206 -1.2684 -0.8195 -1.4636
13872TIP3    H241558   0.064   5.407   1.247  1.0905 -1.1143 -1.6270
13873TIP3   OH241559   7.179   6.635   2.476 -0.7328  0.5323 -0.4896
13873TIP3    H141560   7.143   6.587   2.550  2.0071 -1.1623 -0.1354
13873TIP3    H241561   7.102   6.672   2.431 -2.8868 -2.7274  0.2236
13874TIP3   OH241562   7.193   6.823   0.830  0.3844  0.3562 -0.1229
13874TIP3    H141563   7.154   6.873   0.759  0.9519  1.1586  0.1244
13874TIP3    H241564   7.212   6.737   0.791 -1.5027 -0.0290 -0.2774
13875TIP3   OH241565   4.467   0.830   6.687 -0.5424 -0.1204 -0.2657
13875TIP3    H141566   4.488   0.745   6.648  0.1231 -0.3529  0.5686
13875TIP3    H241567   4.509   0.894   6.630  1.1789 -0.4985  0.5151
13876TIP3   OH241568   0.804   7.314   0.331  0.0141 -0.3554 -0.0300
13876TIP3    H141569   0.733   7.314   0.396  0.3315  1.3586  0.3662
13876TIP3    H241570   0.861   7.242   0.358  0.2805  0.4863  1.7702
13877TIP3   OH241571   7.866   4.870   5.189 -0.8112 -0.3570  0.1833
13877TIP3    H141572   7.862   4.860   5.093  0.1881 -2.0276  0.2797
13877TIP3    H241573   7.806   4.804   5.222 -1.2630  0.3150  0.7279
13878TIP3   OH241574   1.816   5.253   2.624 -0.1176 -0.0754 -0.5861
13878TIP3    H141575   1.748   5.193   2.653  0.5312 -0.8254 -0.5692
13878TIP3    H241576   1.788   5.281   2.537 -1.0097  0.5211 -0.1093
13879TIP3   OH241577   4.239   1.959   6.214  0.0696  0.3854 -0.3822
13879TIP3    H141578   4.305   1.963   6.283 -1.0455  0.2068  0.7349
13879TIP3    H241579   4.192   2.042   6.221 -1.2340 -0.3789  0.3239
13880TIP3   OH241580   0.680   3.595   4.146 -0.0787 -0.7593 -0.2990
13880TIP3    H141581   0.733   3.535   4.198 -0.3914 -1.0481 -0.3122
13880TIP3    H241582   0.732   3.610   4.067  1.2511  1.1066  0.8453
13881TIP3   OH241583   3.359   6.468   6.347  0.2564 -0.0526  0.1714
13881TIP3    H141584   3.346   6.377   6.376 -0.3755  0.5639  1.9668
13881TIP3    H241585   3.451   6.486   6.366  0.7167 -0.6555 -1.3182
13882TIP3   OH241586   0.563   7.134   2.305  0.0381 -0.9324 -0.4371
13882TIP3    H141587   0.469   7.150   2.292 -0.2762 -2.2525  0.0428
13882TIP3    H241588   0.605   7.177   2.231 -0.7715  1.2028  0.2568
13883TIP3   OH241589   2.929   6.726   1.031 -0.1482  0.4321  0.7139
13883TIP3    H141590   2.861   6.661   1.051 -0.3415  0.6642  0.8135
13883TIP3    H241591   2.882   6.795   0.984  0.0121  0.6073  0.8114
13884TIP3   OH241592   3.902   6.879   2.013  0.6152  0.2740 -0.5025
13884TIP3    H141593   3.861   6.962   2.036  0.8473  0.1011  0.5874
13884TIP3    H241594   3.833   6.828   1.972  0.6674  1.2841 -1.9031
13885TIP3   OH241595   0.928   7.799   4.900 -0.3346 -0.4767  0.0118
13885TIP3    H141596   0.905   7.808   4.807 -0.1184 -1.0141 -0.0935
13885TIP3    H241597   0.850   7.828   4.947 -0.3444  0.0747 -0.3337
13886TIP3   OH241598   7.406   5.511   1.581 -0.4460 -0.5197  0.1368
13886TIP3    H141599   7.424   5.443   1.645  1.1421  1.8213  2.3862
13886TIP3    H241600   7.430   5.593   1.625 -2.0303  1.5289 -2.4501
13887TIP3   OH241601   3.364   3.972   2.165 -0.6979 -0.0808  0.0122
13887TIP3    H141602   3.433   3.913   2.135 -1.4700 -2.6593  2.7906
13887TIP3    H241603   3.290   3.954   2.107 -0.2678 -0.2609 -0.4882
13888TIP3   OH241604   5.012   5.218   3.628  0.3784 -0.4707  0.2051
13888TIP3    H141605   4.956   5.155   3.583 -0.1267 -0.6809  1.0969
13888TIP3    H241606   5.069   5.254   3.559 -0.9990 -0.0801 -0.7738
13889TIP3   OH241607   6.538   6.222   2.121 -0.0301 -0.0248 -0.0145
13889TIP3    H141608   6.465   6.249   2.065  0.4650  0.5249 -0.4064
13889TIP3    H241609   6.503   6.148   2.171 -0.1216 -1.3557 -1.9422
13890TIP3   OH241610   8.068   0.340   3.933  0.2142  0.1189  0.2154
13890TIP3    H141611   8.019   0.259   3.921 -1.2381  1.2838 -2.2419
13890TIP3    H241612   8.006   0.410   3.912  2.2815  1.7428 -0.8491
13891TIP3   OH241613   7.715   2.957   2.828 -0.8215 -0.3401 -0.2855
13891TIP3    H141614   7.747   2.991   2.744 -2.5736 -0.3964 -1.0019
13891TIP3    H241615   7.736   3.027   2.891  1.4352 -0.7156 -0.5080
13892TIP3   OH241616   2.177   0.827   6.512  0.3315 -0.0867  0.0233
13892TIP3    H141617   2.100   0.861   6.466  0.7774  1.4740  0.3726
13892TIP3    H241618   2.143   0.797   6.596  0.0341  0.1869  0.0015
13893TIP3   OH241619   5.975   4.362   3.220 -0.3535 -0.3072 -0.2737
13893TIP3    H141620   6.054   4.413   3.200 -1.0807  0.3961 -1.5184
13893TIP3    H241621   5.930   4.413   3.288  0.5747 -1.0711  0.9590
13894TIP3   OH241622   0.565   4.713   0.905 -0.1887 -0.5456  0.2753
13894TIP3    H141623   0.483   4.665   0.914 -0.2137 -0.2297  1.9909
13894TIP3    H241624   0.607   4.705   0.991 -0.4976  3.0246  0.9032
13895TIP3   OH241625   1.071   6.850   2.040  0.4341  0.3376 -0.3468
13895TIP3    H141626   1.064   6.773   1.983  1.0425 -0.1790  0.2503
13895TIP3    H241627   1.083   6.924   1.980  1.5071 -0.2456 -0.8831
13896TIP3   OH241628   0.869   7.567   0.256  0.1692  0.7952 -0.1588
13896TIP3    H141629   0.877   7.475   0.281 -0.5390  0.8073  0.1402
13896TIP3    H241630   0.775   7.579   0.241  0.4879  0.8681 -2.5336
13897TIP3   OH241631   5.911   3.024   6.014 -0.3640 -0.0743  0.0357
13897TIP3    H141632   5.926   2.930   6.029 -0.0676 -0.0334 -0.0065
13897TIP3    H241633   5.895   3.031   5.920  0.4546  0.0255 -0.1068
13898TIP3   OH241634   2.059   7.189   6.809 -0.1349  0.2040  0.1174
13898TIP3    H141635   2.093   7.102   6.789  0.9592  0.7456 -0.4071
13898TIP3    H241636   1.968   7.186   6.779  0.1714 -0.4455 -0.7757
13899TIP3   OH241637   4.073   2.046   2.661 -0.3060  0.4862  0.0717
13899TIP3    H141638   3.986   2.020   2.693  0.7602 -0.9092  2.0086
13899TIP3    H241639   4.127   2.054   2.740  1.3739  1.2203 -1.0917
13900TIP3   OH241640   5.783   6.513   0.698 -0.5242  0.0494 -0.5749
13900TIP3    H141641   5.866   6.546   0.734  0.1539 -0.4391 -1.6479
13900TIP3    H241642   5.765   6.435   0.749  0.3906 -0.5952 -1.2122
13901TIP3   OH241643   7.782   1.217   0.445 -0.2743  0.2043  0.0150
13901TIP3    H141644   7.817   1.201   0.533 -0.1014 -1.8716 -0.3759
13901TIP3    H241645   7.699   1.170   0.443 -0.0812 -0.1066 -1.0615
13902TIP3   OH241646   1.612   3.238   2.144  0.0732 -0.2325 -0.2076
13902TIP3    H141647   1.562   3.208   2.069  0.8274 -0.1175 -0.7700
13902TIP3    H241648   1.614   3.334   2.135 -1.4863 -0.0380  1.0368
13903TIP3   OH241649   7.909   2.994   0.196  0.2429  0.3051  0.5200
13903TIP3    H141650   7.912   3.050   0.274  0.5473 -0.6786  1.2440
13903TIP3    H241651   7.832   2.938   0.210 -0.1334  0.6247 -0.2511
13904TIP3   OH241652   0.377   0.730   0.423 -0.4261  0.4152  0.1313
13904TIP3    H141653   0.418   0.796   0.479  0.0430 -0.1219  0.4308
13904TIP3    H241654   0.317   0.780   0.368  0.3245  1.1656 -0.0274
13905TIP3   OH241655   5.736   6.586   4.227 -0.1317  0.4910 -0.3168
13905TIP3    H141656   5.700   6.634   4.301 -0.8110  1.1831 -1.0611
13905TIP3    H241657   5.801   6.527   4.264 -3.0754 -1.9979  1.3475
13906TIP3   OH241658   3.614   7.222   3.240 -0.2013 -0.1431 -0.2439
13906TIP3    H141659   3.604   7.136   3.281 -0.1861 -0.0921 -0.1345
13906TIP3    H241660   3.698   7.255   3.273 -0.5678  0.2484  0.3194
13907TIP3   OH241661   6.223   5.757   2.973 -0.1320  0.2572  0.0579
13907TIP3    H141662   6.287   5.827   2.962  0.1709  0.2875  1.8159
13907TIP3    H241663   6.275   5.680   2.995 -0.6436  0.2161  1.2032
13908TIP3   OH241664   1.237   6.918   3.484 -0.0341  0.3163 -0.6987
13908TIP3    H141665   1.219   6.874   3.400  1.7438 -0.9415 -0.4911
13908TIP3    H241666   1.313   6.973   3.466 -0.7755  1.4805 -0.3390
13909TIP3   OH241667   3.601   2.933   1.654 -0.3555 -0.1336 -0.2573
13909TIP3    H141668   3.668   2.898   1.595 -0.4157  1.5098 -1.3634
13909TIP3    H241669   3.651   2.977   1.723 -0.2045  2.2412 -1.7832
13910TIP3   OH241670   2.411   0.706   6.614 -0.5695 -0.0022  0.1386
13910TIP3    H141671   2.360   0.781   6.583 -0.6911 -0.5263 -1.0015
13910TIP3    H241672   2.482   0.697   6.551  1.0534  0.7885  1.7830
13911TIP3   OH241673   5.193   7.134   1.483 -0.4812  0.1031 -0.1497
13911TIP3    H141674   5.284   7.154   1.506  0.0077 -3.0928  1.1399
13911TIP3    H241675   5.195   7.117   1.389  0.3310 -0.2710 -0.0685
13912TIP3   OH241676   7.111   2.908   4.812  0.3938  0.0434 -0.0827
13912TIP3    H141677   7.134   2.824   4.851 -2.5737 -0.9567 -0.3193
13912TIP3    H241678   7.111   2.892   4.718 -0.1616  0.3033 -0.1302
13913TIP3   OH241679   6.910   5.802   3.074 -0.0077 -0.2741  0.8278
13913TIP3    H141680   6.897   5.818   3.168 -1.3175  1.0513  0.4479
13913TIP3    H241681   6.826   5.823   3.034  1.0809  1.0278 -0.8718
13914TIP3   OH241682   5.030   4.795   2.697 -0.1719 -0.6430 -0.1145
13914TIP3    H141683   5.033   4.889   2.713  0.9106 -0.7994  0.6644
13914TIP3    H241684   4.948   4.782   2.649 -0.5510  0.6307  0.1469
13915TIP3   OH241685   0.147   0.126   4.656 -0.2814 -0.3780 -0.1704
13915TIP3    H141686   0.052   0.118   4.668 -0.5555  0.1627 -1.7873
13915TIP3    H241687   0.180   0.148   4.744 -1.4011 -2.3185  0.8200
13916TIP3   OH241688   3.296   6.215   4.609 -0.2913 -0.1219 -0.3719
13916TIP3    H141689   3.270   6.301   4.577 -3.0678 -0.8173 -0.1858
13916TIP3    H241690   3.229   6.192   4.674 -0.5646 -3.0955 -1.5605
13917TIP3   OH241691   3.962   1.208   4.504 -0.0871  0.3230  0.3251
13917TIP3    H141692   3.911   1.231   4.582  0.3997 -0.9718  1.0483
13917TIP3    H241693   4.003   1.125   4.526  0.4638  0.1851 -1.1402
13918TIP3   OH241694   7.341   6.161   4.631 -0.1753 -0.3790  0.2884
13918TIP3    H141695   7.376   6.195   4.549 -2.9409  1.1033 -0.4117
13918TIP3    H241696   7.248   6.147   4.614 -0.8709  0.0021  3.1766
13919TIP3   OH241697   3.596   2.960   1.290  0.2521 -0.0879 -0.4139
13919TIP3    H141698   3.681   3.001   1.272  0.6779 -0.7776 -0.0259
13919TIP3    H241699   3.539   3.034   1.313  1.2486  0.2369  1.2001
13920TIP3   OH241700   3.976   7.398   0.306  1.0180  0.0302 -0.1523
13920TIP3    H141701   3.893   7.445   0.309  0.9958  0.2179 -2.2156
13920TIP3    H241702   3.951   7.305   0.309  1.0470 -0.0160  3.5970
13921TIP3   OH241703   6.894   4.781   4.665  0.3287  0.6848  0.1751
13921TIP3    H141704   6.871   4.694   4.630  0.7123  0.5792  0.1856
13921TIP3    H241705   6.832   4.794   4.737 -1.2236  1.3901 -1.2063
13922TIP3   OH241706   1.732   1.169   2.154 -0.5130 -0.3862 -0.3118
13922TIP3    H141707   1.728   1.081   2.117 -1.5090 -0.7905  0.7066
13922TIP3    H241708   1.825   1.185   2.168 -0.1909 -0.6303 -1.9767
13923TIP3   OH241709   3.470   4.316   5.256  0.1112  0.7670 -0.1130
13923TIP3    H141710   3.479   4.399   5.303  0.9252  0.0501  1.0601
13923TIP3    H241711   3.490   4.338   5.165  0.4918  1.8161  0.2039
13924TIP3   OH241712   3.616   2.835   5.292  0.1000  0.0310 -0.7385
13924TIP3    H141713   3.536   2.860   5.339 -1.0163 -0.6453 -2.1730
13924TIP3    H241714   3.653   2.763   5.343 -0.2118  0.3357 -0.0694
13925TIP3   OH241715   1.125   6.383   0.030  0.0570  0.3735 -0.0528
13925TIP3    H141716   1.166   6.449   0.086 -0.4989  0.8360 -0.1872
13925TIP3    H241717   1.145   6.300   0.073 -0.1823  0.7092  0.7218
13926TIP3   OH241718   3.808   1.947   5.198  0.2494 -0.5406  0.1031
13926TIP3    H141719   3.887   1.932   5.250 -0.7484 -0.0676  1.8228
13926TIP3    H241720   3.771   2.028   5.233 -0.9426 -0.6926 -0.7518
13927TIP3   OH241721   4.642   5.388   3.552  0.5728  0.2420 -0.5536
13927TIP3    H141722   4.560   5.423   3.517  0.5910  1.6582  0.6743
13927TIP3    H241723   4.616   5.334   3.626  0.6871 -0.3531 -0.9435
13928TIP3   OH241724   3.735   6.719   3.324 -0.1981 -0.0751  0.8798
13928TIP3    H141725   3.666   6.665   3.285  0.1760 -0.5961  0.9254
13928TIP3    H241726   3.764   6.669   3.400 -0.7114  0.7857  1.6688
13929TIP3   OH241727   2.822   1.140   1.948  0.1241  0.2357  0.1208
13929TIP3    H141728   2.861   1.219   1.983 -0.4796 -0.0483  1.4958
13929TIP3    H241729   2.873   1.068   1.986 -0.7338 -0.0875  0.6989
13930TIP3   OH241730   0.506   6.651   4.937  0.5541  0.1810  0.0958
13930TIP3    H141731   0.580   6.711   4.933 -0.1280  1.1570  1.2998
13930TIP3    H241732   0.429   6.706   4.921 -0.0606 -0.4279  0.8592
13931TIP3   OH241733   4.619   0.997   1.594  0.2412 -0.5965 -0.9387
13931TIP3    H141734   4.549   1.032   1.649  0.7223 -3.5304  1.8049
13931TIP3    H241735   4.699   1.037   1.628  0.3152 -0.5346 -1.1831
13932TIP3   OH241736   7.225   0.029   4.747 -0.2006  0.1924  0.2803
13932TIP3    H141737   7.153   0.018   4.685  0.5136  1.3350 -0.8020
13932TIP3    H241738   7.277   0.100   4.711  1.0000 -0.0194  1.5050
13933TIP3   OH241739   3.158   6.243   2.076  0.3167 -0.1420 -1.0319
13933TIP3    H141740   3.180   6.192   1.998  0.6273  0.1474 -1.1362
13933TIP3    H241741   3.197   6.329   2.059  0.4425 -0.1008 -0.5282
13934TIP3   OH241742   2.031   6.762   6.099 -0.4202 -0.4415  0.0220
13934TIP3    H141743   1.973   6.737   6.027  0.1208 -1.5466 -0.0507
13934TIP3    H241744   1.974   6.807   6.161 -0.7252  1.4392 -1.5277
13935TIP3   OH241745   3.404   4.845   4.545 -0.1401 -0.2453  0.4719
13935TIP3    H141746   3.384   4.897   4.467  1.8809  0.9818  0.6964
13935TIP3    H241747   3.322   4.801   4.566 -0.5962 -1.1664 -2.7056
13936TIP3   OH241748   2.492   5.959   0.803 -0.7614  0.5928  0.0907
13936TIP3    H141749   2.542   6.008   0.739 -1.5013 -1.4615 -2.2214
13936TIP3    H241750   2.446   6.025   0.854 -0.3583  2.3164 -1.6719
13937TIP3   OH241751   5.525   4.418   6.530  0.4687 -0.0806  0.6554
13937TIP3    H141752   5.458   4.399   6.465 -0.5069  0.0895  1.5717
13937TIP3    H241753   5.488   4.489   6.582  2.1267  1.2847  0.0872
13938TIP3   OH241754   2.178   3.321   1.403  0.0518 -0.3135  0.1844
13938TIP3    H141755   2.161   3.232   1.371  0.2631 -0.4120  0.3344
13938TIP3    H241756   2.097   3.347   1.446 -0.1021 -0.3284 -0.1014
13939TIP3   OH241757   3.005   5.075   6.364  0.2559 -0.0810 -0.3464
13939TIP3    H141758   3.012   5.111   6.276  0.4153 -0.7993 -0.6345
13939TIP3    H241759   2.966   4.988   6.352  1.3372 -0.6616  0.1668
13940TIP3   OH241760   0.465   2.052   5.871  0.0177 -0.0266  0.0369
13940TIP3    H141761   0.447   2.036   5.778  0.4645  1.5916 -0.3689
13940TIP3    H241762   0.560   2.038   5.880  0.4346  2.1634 -0.3452
13941TIP3   OH241763   4.530   5.149   4.464  0.0684  0.0930 -0.5710
13941TIP3    H141764   4.517   5.220   4.401  0.7217  0.4819 -0.2712
13941TIP3    H241765   4.496   5.183   4.547 -0.7460 -0.4008 -0.6891
13942TIP3   OH241766   5.845   5.797   2.131 -0.0715  0.2356 -0.4818
13942TIP3    H141767   5.776   5.788   2.065 -0.9939  2.8642 -0.0328
13942TIP3    H241768   5.815   5.743   2.205 -1.9095  1.5679 -0.1750
13943TIP3   OH241769   1.076   1.411   1.153  0.3225  0.2629  0.2298
13943TIP3    H141770   1.097   1.479   1.089  0.8894 -0.6051 -0.5150
13943TIP3    H241771   1.132   1.431   1.228  0.8487  0.3352 -0.1739
13944TIP3   OH241772   7.561   5.955   2.137  0.3767 -0.0002 -0.3704
13944TIP3    H141773   7.626   6.018   2.168  1.1488 -1.2646  0.7112
13944TIP3    H241774   7.604   5.909   2.065  0.0809  0.2221 -0.6932
13945TIP3   OH241775   6.641   7.454   1.494  0.0626 -0.6441 -0.3199
13945TIP3    H141776   6.723   7.440   1.541 -0.8743 -1.5038  1.1456
13945TIP3    H241777   6.624   7.548   1.502  0.4139 -0.6235  0.1941
13946TIP3   OH241778   3.569   2.357   4.149 -0.5183  0.2202  0.2995
13946TIP3    H141779   3.606   2.378   4.063  0.4729 -0.8355  0.4485
13946TIP3    H241780   3.552   2.263   4.147 -1.7595  0.4135  0.7978
13947TIP3   OH241781   7.483   0.543   0.384 -0.0117 -0.1901 -0.7685
13947TIP3    H141782   7.410   0.484   0.365  2.0148 -2.6201 -1.7325
13947TIP3    H241783   7.501   0.530   0.477 -0.1900 -0.3668 -0.7572
13948TIP3   OH241784   5.220   5.198   5.292  0.6806  0.4993  0.4889
13948TIP3    H141785   5.251   5.152   5.214  2.3903  0.6827  1.0212
13948TIP3    H241786   5.249   5.288   5.279 -0.2247  0.8347  0.7284
13949TIP3   OH241787   1.084   2.954   3.157 -0.2268 -0.2269 -0.4878
13949TIP3    H141788   1.146   2.882   3.168  2.0252  1.5401 -0.8999
13949TIP3    H241789   1.050   2.943   3.068  1.2959  0.0799 -1.1311
13950TIP3   OH241790   3.289   2.170   0.124 -0.0643 -0.0253  0.2412
13950TIP3    H141791   3.201   2.151   0.094  0.0692  0.7072 -0.6672
13950TIP3    H241792   3.318   2.243   0.069  1.7377 -1.3399 -0.6812
13951TIP3   OH241793   4.546   6.947   0.326  0.7000 -0.0619  0.6402
13951TIP3    H141794   4.603   7.007   0.279 -0.0034  0.8026  0.8648
13951TIP3    H241795   4.572   6.955   0.418  0.7223 -0.2332  0.6493
13952TIP3   OH241796   4.026   2.540   1.708 -0.4219  0.8494 -0.1126
13952TIP3    H141797   4.097   2.496   1.662  0.0469  0.5122  0.8981
13952TIP3    H241798   3.954   2.478   1.707 -0.0832  0.4364  0.4595
13953TIP3   OH241799   5.304   7.820   5.852  0.1411 -1.1187 -0.2348
13953TIP3    H141800   5.376   7.881   5.836 -0.8374 -0.3267 -1.8421
13953TIP3    H241801   5.240   7.872   5.900  1.4001 -2.3943  3.1264
13954TIP3   OH241802   3.738   0.681   2.433  0.1418  0.4366  0.0269
13954TIP3    H141803   3.825   0.658   2.399  0.9105 -0.1730  2.2346
13954TIP3    H241804   3.730   0.775   2.416  1.2874  0.5252 -0.1292
13955TIP3   OH241805   0.182   4.336   3.867  0.5301 -0.2008 -0.8498
13955TIP3    H141806   0.123   4.261   3.864  1.2903 -0.8716  0.4237
13955TIP3    H241807   0.203   4.346   3.959  1.2097  0.9846 -1.1201
13956TIP3   OH241808   7.662   0.760   6.328 -0.0545  0.0540  0.7914
13956TIP3    H141809   7.614   0.708   6.392 -2.0677  0.5996 -0.1907
13956TIP3    H241810   7.702   0.830   6.379 -1.3289  0.2825  1.5047
13957TIP3   OH241811   7.735   3.251   4.301 -0.5402 -0.3279  0.1134
13957TIP3    H141812   7.818   3.256   4.348 -0.1955  0.4721 -0.5536
13957TIP3    H241813   7.744   3.175   4.243  0.1165  0.3333 -0.6686
13958TIP3   OH241814   0.765   0.458   1.472 -0.1606 -0.4196  0.1481
13958TIP3    H141815   0.807   0.516   1.408 -0.2181  0.7379  1.1258
13958TIP3    H241816   0.761   0.510   1.552 -1.4642 -1.3015  0.6807
13959TIP3   OH241817   7.252   2.116   5.774 -0.1912  0.0865 -0.5839
13959TIP3    H141818   7.175   2.119   5.717 -1.2094 -0.7515  0.6926
13959TIP3    H241819   7.264   2.206   5.803 -0.5875  0.2508 -0.9173
13960TIP3   OH241820   1.734   2.443   5.967 -0.0592 -0.0589 -0.0136
13960TIP3    H141821   1.699   2.364   6.009  0.4933 -0.5368 -0.4396
13960TIP3    H241822   1.779   2.410   5.889 -1.3383  0.8189 -1.1849
13961TIP3   OH241823   0.817   3.171   4.679 -0.2563  0.3055  0.6741
13961TIP3    H141824   0.811   3.098   4.618  0.1447 -0.1030  1.1093
13961TIP3    H241825   0.770   3.242   4.637  0.8664  0.3404 -0.5613
13962TIP3   OH241826  -0.014   4.056   0.958 -0.4223  0.5031 -0.2295
13962TIP3    H141827   0.025   4.109   1.028 -1.2066  0.8558 -0.0348
13962TIP3    H241828  -0.009   4.112   0.880 -2.7074  1.6015  0.3132
13963TIP3   OH241829   3.528   1.019   2.717 -0.5257  0.2034  0.6175
13963TIP3    H141830   3.598   0.955   2.728 -2.5455 -2.1151  0.9806
13963TIP3    H241831   3.557   1.075   2.645  1.4980 -0.8979  0.5257
13964TIP3   OH241832   4.686   6.968   3.148  0.1041  0.0363  0.2663
13964TIP3    H141833   4.634   6.902   3.193 -1.4850 -2.5257 -4.5656
13964TIP3    H241834   4.775   6.935   3.151 -0.3803 -1.4173 -0.4912
13965TIP3   OH241835   7.157   7.733   0.500 -0.1961  0.3598 -0.0991
13965TIP3    H141836   7.074   7.780   0.492 -0.9557 -0.7825  0.7211
13965TIP3    H241837   7.162   7.678   0.422 -0.5323 -0.0322  0.1495
13966TIP3   OH241838   1.453   1.346   2.291 -0.4235 -0.4832 -0.5228
13966TIP3    H141839   1.375   1.332   2.344 -1.1286 -0.0630 -1.4300
13966TIP3    H241840   1.435   1.299   2.209  0.7169 -1.2632 -0.3587
13967TIP3   OH241841   0.276   1.442   0.136 -0.1975  0.0564 -0.0366
13967TIP3    H141842   0.346   1.494   0.098 -0.6332  1.2678  0.7486
13967TIP3    H241843   0.278   1.463   0.229 -2.6457  1.4817 -0.2048
13968TIP3   OH241844   1.004   3.018   1.459  0.1693  0.4834  0.2037
13968TIP3    H141845   0.935   2.963   1.496  0.6064  0.3566  0.8417
13968TIP3    H241846   1.084   2.990   1.503  0.9761 -0.6541 -1.8408
13969TIP3   OH241847   0.047   5.678   1.309 -0.0646 -0.5212  0.5918
13969TIP3    H141848  -0.029   5.669   1.366  0.3889  1.7336  1.6673
13969TIP3    H241849   0.097   5.750   1.346  0.5645  0.7100 -2.3277
13970TIP3   OH241850   5.926   0.619   5.846  0.1165  0.4108  0.1037
13970TIP3    H141851   5.991   0.550   5.834 -0.3019  0.3483 -2.3166
13970TIP3    H241852   5.918   0.628   5.940  0.4762 -2.5809  0.5262
13971TIP3   OH241853   0.580   1.468   0.997 -0.3170 -0.2562  0.0156
13971TIP3    H141854   0.592   1.408   1.071  0.2346  0.7123  0.7375
13971TIP3    H241855   0.516   1.532   1.028  0.8440  0.8894  0.1483
13972TIP3   OH241856   1.411   3.107   5.555  0.3594 -0.4336 -0.2037
13972TIP3    H141857   1.459   3.128   5.635 -2.9472  1.0571  1.6156
13972TIP3    H241858   1.364   3.026   5.576  0.6535 -0.8774 -1.2267
13973TIP3   OH241859   3.431   7.763   1.701 -0.0362 -0.4141 -0.3368
13973TIP3    H141860   3.484   7.730   1.628 -0.3426  1.0103 -1.2365
13973TIP3    H241861   3.466   7.851   1.718 -0.8047 -0.2386  0.3868
13974TIP3   OH241862   4.326   2.211   6.500 -0.1592  0.3394  0.0124
13974TIP3    H141863   4.324   2.289   6.444  0.9637  0.5387  0.2108
13974TIP3    H241864   4.346   2.246   6.587  0.5938 -0.1779  0.0590
13975TIP3   OH241865   3.676   3.215   2.858 -0.3192 -0.0831 -0.4372
13975TIP3    H141866   3.733   3.172   2.794 -0.1367 -1.5099  0.6442
13975TIP3    H241867   3.687   3.164   2.938 -2.3353  0.2425  0.0930
13976TIP3   OH241868   5.502   6.911   4.892 -0.2638  0.1641 -0.2042
13976TIP3    H141869   5.581   6.964   4.891 -0.4096  0.4009 -1.8450
13976TIP3    H241870   5.469   6.915   4.802 -2.9074  1.2332  0.6877
13977TIP3   OH241871   0.467   2.266   3.126 -0.1547  0.0214  0.0721
13977TIP3    H141872   0.542   2.267   3.186  1.1580 -1.6789 -1.4539
13977TIP3    H241873   0.415   2.191   3.153 -0.0427 -0.2092 -0.3497
13978TIP3   OH241874   0.228   2.154   6.210  0.0211 -0.6089  0.1298
13978TIP3    H141875   0.293   2.221   6.190 -0.8250 -0.1313 -1.2068
13978TIP3    H241876   0.240   2.088   6.143 -0.3778 -0.8844  0.3268
13979TIP3   OH241877   8.082   1.584   4.216  0.5634 -0.0033  0.1054
13979TIP3    H141878   8.074   1.490   4.233 -1.7987  0.4902  2.2813
13979TIP3    H241879   8.035   1.598   4.134 -0.6974 -0.5027  0.7207
13980TIP3   OH241880   6.191   5.307   6.169  0.3228 -0.1790  0.5502
13980TIP3    H141881   6.278   5.347   6.172  0.6299 -0.6977 -0.8329
13980TIP3    H241882   6.183   5.274   6.080 -1.2544 -0.2447  0.6893
13981TIP3   OH241883   8.161   0.102   1.422 -0.3692 -0.8966  0.3454
13981TIP3    H141884   8.087   0.071   1.474 -1.6183  0.4909 -0.5240
13981TIP3    H241885   8.197   0.175   1.472 -1.0398 -0.1082 -0.2967
13982TIP3   OH241886   8.353   0.699   0.935 -0.1614 -0.1783 -0.0170
13982TIP3    H141887   8.353   0.791   0.961  0.6121  0.1041 -0.9639
13982TIP3    H241888   8.371   0.700   0.841 -2.9375 -1.1522 -0.6742
13983TIP3   OH241889   3.731   5.850   4.183  0.9418  0.0517  0.1815
13983TIP3    H141890   3.669   5.864   4.113  0.6140 -1.7195  0.0635
13983TIP3    H241891   3.792   5.785   4.148  0.2313 -1.5807  1.7929
13984TIP3   OH241892   3.661   3.323   3.357 -0.1962 -0.1983  0.0409
13984TIP3    H141893   3.578   3.282   3.383 -0.5216  1.4942  1.8371
13984TIP3    H241894   3.727   3.280   3.412  0.1325 -1.3732 -1.2179
13985TIP3   OH241895   3.819   4.520   1.466  0.3020 -0.3282 -0.1981
13985TIP3    H141896   3.787   4.476   1.545 -1.4406  1.9904  0.4984
13985TIP3    H241897   3.773   4.476   1.394 -0.7504 -0.2423  0.3989
13986TIP3   OH241898   0.901   3.760   1.978  0.1129 -0.0049 -0.0961
13986TIP3    H141899   0.901   3.776   1.883 -0.6356 -0.9696 -0.2774
13986TIP3    H241900   0.832   3.695   1.991  0.2846  0.0320  1.1060
13987TIP3   OH241901   6.631   4.662   6.015  0.0959 -0.1555 -0.8358
13987TIP3    H141902   6.586   4.744   6.033 -0.0722 -0.4954  0.3410
13987TIP3    H241903   6.720   4.676   6.047 -0.0371 -0.5532 -0.2772
13988TIP3   OH241904   3.495   0.182   6.134  0.1337 -0.3233 -0.7618
13988TIP3    H141905   3.408   0.220   6.143  0.6106  0.6893 -0.2522
13988TIP3    H241906   3.553   0.257   6.123  1.0717 -0.9144 -0.0532
13989TIP3   OH241907   4.331   5.986   6.622  0.2443 -0.4924  0.2337
13989TIP3    H141908   4.267   5.924   6.656 -0.4864  0.3409  0.4207
13989TIP3    H241909   4.369   6.027   6.699 -0.2516  0.2443  0.0993
13990TIP3   OH241910   6.879   0.705   3.733 -0.2122 -0.6863 -0.1496
13990TIP3    H141911   6.793   0.734   3.763 -0.2436  0.5073 -1.3094
13990TIP3    H241912   6.863   0.671   3.644  0.8243  1.6516 -1.3072
13991TIP3   OH241913   4.304   5.978   5.945  0.6150  0.2029  0.4348
13991TIP3    H141914   4.313   5.929   6.027 -1.1188  0.4475  0.8239
13991TIP3    H241915   4.259   5.917   5.886 -1.1298  1.0903  0.7730
13992TIP3   OH241916   4.089   3.482   6.594 -0.0297  0.3554  0.0743
13992TIP3    H141917   4.034   3.436   6.657  0.9710  0.4737  1.0748
13992TIP3    H241918   4.128   3.412   6.540 -1.8573  0.3236 -1.2929
13993TIP3   OH241919   6.233   1.659   0.905  0.3471  0.0316 -0.3063
13993TIP3    H141920   6.321   1.686   0.929 -0.7081  3.9715 -0.1662
13993TIP3    H241921   6.204   1.725   0.842 -2.6060 -0.9741 -0.1599
13994TIP3   OH241922   7.077   0.155   3.342 -0.3096 -0.0290  0.4005
13994TIP3    H141923   7.165   0.183   3.367 -0.3137 -1.0288  1.6479
13994TIP3    H241924   7.025   0.235   3.342  0.5262  0.5232 -0.0146
13995TIP3   OH241925   4.985   6.975   1.167 -0.1790 -0.1957 -0.6361
13995TIP3    H141926   4.993   6.901   1.107  0.2661 -0.0707 -0.7383
13995TIP3    H241927   4.961   7.049   1.110 -0.4125 -0.2170 -0.5654
13996TIP3   OH241928   7.906   6.057   6.061 -0.3823 -0.2228  0.1216
13996TIP3    H141929   7.863   6.106   6.132 -1.1969 -0.1301 -0.4273
13996TIP3    H241930   7.991   6.033   6.097 -0.9632 -0.5807  1.3180
13997TIP3   OH241931   7.671   6.096   5.851  0.1478 -0.0775  0.2704
13997TIP3    H141932   7.682   6.166   5.787 -2.6280  0.7810  0.6004
13997TIP3    H241933   7.718   6.022   5.813  1.9291  1.5000 -0.7958
13998TIP3   OH241934   4.086   3.205   3.507 -0.9779  0.3577  0.0195
13998TIP3    H141935   4.020   3.146   3.471  0.6546 -1.3518 -0.3460
13998TIP3    H241936   4.142   3.149   3.561 -0.4484  1.9496  1.1903
13999TIP3   OH241937   5.099   0.894   3.927  0.1111  0.5571 -0.0739
13999TIP3    H141938   5.192   0.906   3.909  0.4159 -1.4964 -0.0901
13999TIP3    H241939   5.075   0.969   3.981  1.9870  0.6686  0.6730
14000TIP3   OH241940   5.860   6.217   1.196  0.0226 -0.4167 -0.0215
14000TIP3    H141941   5.862   6.272   1.118  1.1956  0.0538  0.3289
14000TIP3    H241942   5.854   6.278   1.269  0.7398 -0.7699  0.3439
14001TIP3   OH241943   6.237   0.392   0.567 -0.2434 -0.1989  0.4586
14001TIP3    H141944   6.294   0.399   0.491 -0.8716  1.6283  0.0946
14001TIP3    H241945   6.217   0.299   0.575  0.9532 -0.5817 -0.7577
14002TIP3   OH241946   7.787   4.977   1.981  0.4907 -0.0394 -1.1735
14002TIP3    H141947   7.824   5.038   1.917 -0.8423  0.5290 -1.4348
14002TIP3    H241948   7.761   4.901   1.929  1.1478 -0.3794 -1.0116
14003TIP3   OH241949   4.499   7.376   6.710  0.0008 -0.4080  0.3939
14003TIP3    H141950   4.484   7.309   6.643 -0.7148 -0.2669  0.4026
14003TIP3    H241951   4.565   7.433   6.672  0.7862 -1.2348  0.4784
14004TIP3   OH241952   5.612   0.657   2.988  0.0418  0.2510 -0.1611
14004TIP3    H141953   5.566   0.612   3.059 -0.7322  2.5805  0.8969
14004TIP3    H241954   5.705   0.639   3.005 -0.1344  0.6477  1.3872
14005TIP3   OH241955   0.877   6.445   0.228  0.0910 -0.1837  0.2245
14005TIP3    H141956   0.825   6.525   0.217 -0.0963 -0.0685  1.7721
14005TIP3    H241957   0.960   6.475   0.263  0.2791 -0.6014  0.1432
14006TIP3   OH241958   2.056   7.562   3.635  0.4785 -0.4381  0.0838
14006TIP3    H141959   2.132   7.595   3.684 -0.6000 -0.4182  1.8157
14006TIP3    H241960   1.982   7.578   3.693 -0.9859  0.2577 -1.8827
14007TIP3   OH241961   2.716   0.613   1.004 -0.2256 -0.2108 -0.3689
14007TIP3    H141962   2.699   0.568   1.087  2.0868 -0.6428 -0.0570
14007TIP3    H241963   2.667   0.562   0.940  1.3594 -2.5838  0.1507
14008TIP3   OH241964   1.859   1.571   2.494  0.2658 -0.3685  0.7185
14008TIP3    H141965   1.867   1.477   2.478  2.1572  0.0846 -1.6088
14008TIP3    H241966   1.942   1.597   2.533  0.1093  0.4711  0.5230
14009TIP3   OH241967   0.749   4.317   3.554 -0.2421 -0.1209 -0.1645
14009TIP3    H141968   0.743   4.324   3.649 -0.6173  2.7626 -0.3024
14009TIP3    H241969   0.684   4.251   3.531  0.9270 -2.0147  1.6353
14010TIP3   OH241970   5.039   6.745   3.583 -0.0123  0.1458  0.2954
14010TIP3    H141971   5.116   6.714   3.630 -0.2300 -0.6220  0.1667
14010TIP3    H241972   4.981   6.778   3.651 -0.0513 -0.3562  0.5097
14011TIP3   OH241973   7.183   1.629   4.107  0.1556  0.1456 -0.0232
14011TIP3    H141974   7.146   1.572   4.040  0.8037  1.6693 -1.7542
14011TIP3    H241975   7.112   1.687   4.132  0.2334  0.3315 -0.2376
14012TIP3   OH241976   1.157   6.035   5.187  0.9690 -0.0081 -0.0877
14012TIP3    H141977   1.072   6.078   5.197  1.6528  2.2316 -2.5876
14012TIP3    H241978   1.136   5.942   5.176 -1.2537  0.5426 -1.2600
14013TIP3   OH241979   2.111   4.867   5.670 -0.1765  0.1826  0.1652
14013TIP3    H141980   2.168   4.812   5.615 -0.8353 -0.1297 -0.2173
14013TIP3    H241981   2.039   4.892   5.612  0.7728  2.5973 -0.0752
14014TIP3   OH241982   1.666   1.541   3.895  0.2513 -0.3656  0.1286
14014TIP3    H141983   1.710   1.474   3.843  0.1920 -0.3046  0.0015
14014TIP3    H241984   1.582   1.554   3.852  0.2663 -0.2028  0.1476
14015TIP3   OH241985   4.930   2.634   0.073 -0.2676 -0.4948  0.3195
14015TIP3    H141986   5.003   2.689   0.044 -1.8806  0.8072 -1.4681
14015TIP3    H241987   4.953   2.546   0.044 -0.0322  0.1462 -1.5743
14016TIP3   OH241988   5.081   4.098   5.351  0.0716 -0.2811  0.1741
14016TIP3    H141989   5.169   4.071   5.326 -0.0628  0.1117 -0.7759
14016TIP3    H241990   5.089   4.192   5.369  0.1967 -0.5801  1.8210
14017TIP3   OH241991   0.816   6.651   3.472  0.0823 -0.6045 -0.3661
14017TIP3    H141992   0.907   6.666   3.500 -0.3318  0.1144  0.6499
14017TIP3    H241993   0.794   6.730   3.422 -0.8493  0.5120  1.7098
14018TIP3   OH241994   2.116   3.995   6.593 -0.6220  0.7603 -0.3042
14018TIP3    H141995   2.117   4.056   6.667 -1.1650  0.0095  0.3388
14018TIP3    H241996   2.207   3.964   6.587 -0.9904 -0.8881  1.5418
14019TIP3   OH241997   3.663   5.682   0.405  0.4855 -0.2447 -0.1745
14019TIP3    H141998   3.676   5.643   0.318  0.4725  0.4507 -0.4889
14019TIP3    H241999   3.591   5.632   0.443  1.0206 -1.0909 -0.2350
14020TIP3   OH242000   7.747   0.042   3.266 -0.4123  0.2732  0.2623
14020TIP3    H142001   7.803   0.086   3.331  1.3834 -0.7005 -0.5662
14020TIP3    H242002   7.778   0.075   3.182 -2.2333  0.9641 -0.1869
14021TIP3   OH242003   5.021   0.349   0.448  0.8940  0.1510  0.1088
14021TIP3    H142004   4.940   0.310   0.480  1.8308 -0.9143  1.3455
14021TIP3    H242005   5.011   0.352   0.353 -0.0793 -1.1977  0.1328
14022TIP3   OH242006   3.294   1.273   2.775  0.1251 -0.0240  0.2118
14022TIP3    H142007   3.310   1.218   2.852  0.2075 -0.6477 -0.2448
14022TIP3    H242008   3.287   1.211   2.702 -0.6165  0.5153 -0.1804
14023TIP3   OH242009   3.644   6.516   6.431  0.1356 -0.2802  0.1669
14023TIP3    H142010   3.655   6.462   6.509  0.1945  0.7648  0.9026
14023TIP3    H242011   3.625   6.604   6.464  0.7161  0.3124 -0.9818
14024TIP3   OH242012   6.709   5.728   6.595 -0.5756 -0.1019 -0.0257
14024TIP3    H142013   6.762   5.742   6.516  0.8193 -2.9492  0.2772
14024TIP3    H242014   6.625   5.697   6.561 -1.0260  1.4983 -0.4327
14025TIP3   OH242015   2.775   7.415   0.422  0.3320  0.1831 -0.2068
14025TIP3    H142016   2.684   7.392   0.402 -0.0481  0.3554  1.2340
14025TIP3    H242017   2.820   7.408   0.338 -1.1384  0.7442 -1.0854
14026TIP3   OH242018   7.874   1.309   4.179  0.2329  0.0726  0.5694
14026TIP3    H142019   7.944   1.252   4.210  2.4076  3.0189  1.5299
14026TIP3    H242020   7.898   1.330   4.089 -0.5888 -0.5159  0.2003
14027TIP3   OH242021   6.269   6.960   0.853  0.6007  0.3340  0.1706
14027TIP3    H142022   6.174   6.949   0.853  0.4391  1.6114 -0.5419
14027TIP3    H242023   6.298   6.917   0.773  0.5669  0.4023  0.1217
14028TIP3   OH242024   8.202   4.792   1.498 -0.5318  0.2766  0.0871
14028TIP3    H142025   8.211   4.842   1.417  1.4956 -0.1010  0.0358
14028TIP3    H242026   8.283   4.742   1.506  0.5737  2.2513  3.6408
14029TIP3   OH242027   5.295   3.308   5.032  0.5243  0.2283  0.4031
14029TIP3    H142028   5.340   3.293   5.115  0.2775  1.1933  0.7286
14029TIP3    H242029   5.366   3.315   4.968  0.6646 -2.0776  0.2264
14030TIP3   OH242030   6.327   7.886   1.521 -0.0364 -0.3125  0.4787
14030TIP3    H142031   6.326   7.929   1.436 -3.0124  0.4870  0.8055
14030TIP3    H242032   6.349   7.956   1.583 -0.2059 -0.3296  0.5608
14031TIP3   OH242033   7.234   5.333   2.911 -0.2103  0.6749  0.7668
14031TIP3    H142034   7.139   5.330   2.898 -0.1199  0.0465  0.2246
14031TIP3    H242035   7.268   5.374   2.831  0.2023 -1.6503 -0.3242
14032TIP3   OH242036   7.671   5.937   6.369 -0.4451 -0.3662  0.3547
14032TIP3    H142037   7.690   5.972   6.456 -1.8558  0.0843  0.5179
14032TIP3    H242038   7.583   5.970   6.349  0.2576  0.3980 -1.6824
14033TIP3   OH242039   3.353   1.558   4.172 -0.0543  0.2572  0.2944
14033TIP3    H142040   3.438   1.573   4.131  0.0407 -0.2199  0.3109
14033TIP3    H242041   3.361   1.598   4.259 -0.5506  2.0439 -0.4498
14034TIP3   OH242042   1.577   5.155   6.673  0.0165 -0.0272  0.0276
14034TIP3    H142043   1.593   5.178   6.764 -0.8414 -0.7225  0.3545
14034TIP3    H242044   1.657   5.111   6.645  0.1513 -0.1146  0.5436
14035TIP3   OH242045   3.892   4.305   1.722  0.1289 -0.2698  0.1991
14035TIP3    H142046   3.807   4.347   1.734 -0.4817 -1.3815 -0.0659
14035TIP3    H242047   3.934   4.309   1.808  0.2895  1.2532  0.0790
14036TIP3   OH242048   7.783   7.512   1.219  0.1737 -0.1314 -0.1415
14036TIP3    H142049   7.726   7.467   1.157 -1.4274  0.4248  0.8609
14036TIP3    H242050   7.814   7.589   1.172 -1.8652  0.8497  0.0395
14037TIP3   OH242051   5.066   5.394   3.959  0.0165  0.6343 -0.1802
14037TIP3    H142052   5.089   5.303   3.975 -2.8251  0.0078  0.7950
14037TIP3    H242053   5.089   5.439   4.041 -2.4368 -0.0743  0.9685
14038TIP3   OH242054   8.008   1.071   1.488  0.2925 -0.3541 -0.7047
14038TIP3    H142055   7.918   1.095   1.508  0.4498  0.8615 -1.3454
14038TIP3    H242056   8.054   1.078   1.571 -0.1571 -0.7888 -0.4147
14039TIP3   OH242057   5.749   4.221   0.076 -0.6815  0.0767 -0.2291
14039TIP3    H142058   5.769   4.290   0.139  0.6673  1.7966 -2.3783
14039TIP3    H242059   5.812   4.235   0.005 -1.8122 -2.0274 -1.7478
14040TIP3   OH242060   4.674   2.184   3.008 -0.3385  0.1562  0.1812
14040TIP3    H142061   4.757   2.139   2.994 -0.4172 -0.2114  0.8403
14040TIP3    H242062   4.658   2.177   3.102 -0.8891  0.6266  0.1336
14041TIP3   OH242063   5.444   6.634   2.082 -0.2192  0.1819  0.1292
14041TIP3    H142064   5.496   6.705   2.120 -0.8944  1.2150 -0.8054
14041TIP3    H242065   5.400   6.674   2.007 -1.3330 -1.0024  0.1172
14042TIP3   OH242066   1.656   6.265   5.394  0.3072  0.0814  0.2485
14042TIP3    H142067   1.590   6.333   5.405  1.2533  1.0006  0.3463
14042TIP3    H242068   1.723   6.304   5.337  0.4808 -1.0438 -0.3503
14043TIP3   OH242069   6.512   4.002   1.713 -0.6871 -0.4858 -0.3558
14043TIP3    H142070   6.562   3.988   1.633 -2.2249  1.5464 -1.7808
14043TIP3    H242071   6.434   3.948   1.703 -0.0742 -1.6307  0.6729
14044TIP3   OH242072   3.625   7.297   0.179  0.0345  0.1517 -0.1691
14044TIP3    H142073   3.661   7.279   0.266  0.3719 -0.2565 -0.3864
14044TIP3    H242074   3.544   7.247   0.175 -0.1877  0.4995  0.0639
14045TIP3   OH242075   4.825   5.596   4.006 -0.7446  0.2134  0.1845
14045TIP3    H142076   4.916   5.625   4.002 -0.2901 -1.2399 -0.5652
14045TIP3    H242077   4.778   5.673   4.039  0.5422  1.4295 -0.6430
14046TIP3   OH242078   1.821   4.029   2.582 -0.0588 -0.1400  0.1987
14046TIP3    H142079   1.751   3.966   2.603  1.4882 -1.8461  0.5007
14046TIP3    H242080   1.902   3.979   2.594  1.2874  2.1465  1.1615
14047TIP3   OH242081   1.959   7.027   5.245  0.2247 -0.6239  0.1375
14047TIP3    H142082   1.975   7.064   5.331  1.0818 -1.3310  0.2926
14047TIP3    H242083   2.018   7.076   5.187  0.2734 -0.7281  0.0987
14048TIP3   OH242084   4.203   6.547   4.176 -0.0761 -0.2610  0.0308
14048TIP3    H142085   4.167   6.558   4.264  2.4003  1.5786  0.9428
14048TIP3    H242086   4.210   6.453   4.164  1.5788 -0.5982  2.7975
14049TIP3   OH242087   4.332   0.598   3.371 -0.6329  0.4638  0.2661
14049TIP3    H142088   4.363   0.547   3.447  0.5921 -1.4176 -1.4012
14049TIP3    H242089   4.376   0.683   3.380 -0.5039  0.2751  1.6324
14050TIP3   OH242090   0.041   1.545   4.212  0.0646  0.3014  0.2160
14050TIP3    H142091   0.026   1.534   4.119 -0.7385  1.2189  0.2245
14050TIP3    H242092   0.096   1.622   4.219  0.4005  0.0422  0.4883
14051TIP3   OH242093   6.232   7.291   2.815 -0.2858 -0.2971  0.2727
14051TIP3    H142094   6.234   7.231   2.741 -0.8456  1.8413 -1.5953
14051TIP3    H242095   6.294   7.360   2.792 -1.5424  1.1725  1.0861
14052TIP3   OH242096   6.650   3.690   5.694  0.3306  0.6504  0.0220
14052TIP3    H142097   6.708   3.617   5.674  0.5382  0.1184  2.2238
14052TIP3    H242098   6.704   3.750   5.746 -0.3214  1.5191 -0.2755
14053TIP3   OH242099  -0.020   7.885   2.432  0.5034 -0.0137 -0.4811
14053TIP3    H142100   0.063   7.921   2.463 -0.2830 -0.1776  2.1278
14053TIP3    H242101  -0.018   7.793   2.460 -0.7637  0.1345  0.1829
14054TIP3   OH242102   8.335   5.204   1.858 -0.7408  0.8003  0.8135
14054TIP3    H142103   8.293   5.138   1.914 -0.4252 -0.2249 -0.1306
14054TIP3    H242104   8.304   5.184   1.770  0.7153  0.7992  0.2694
14055TIP3   OH242105   4.961   4.564   0.468  0.2412  0.3873  0.6931
14055TIP3    H142106   4.903   4.624   0.515  0.1924  1.6395 -0.8683
14055TIP3    H242107   5.006   4.619   0.404  3.1054 -0.5708  1.7356
14056TIP3   OH242108   0.059   0.235   3.773  0.0124 -0.1830 -0.1015
14056TIP3    H142109   0.053   0.324   3.807  1.4112 -0.5222  1.1653
14056TIP3    H242110   0.123   0.240   3.703  1.1658 -0.3963  0.8965
14057TIP3   OH242111   3.656   1.612   4.107 -0.1141 -0.2270  0.1564
14057TIP3    H142112   3.655   1.700   4.144  0.9564 -0.2364  0.2420
14057TIP3    H242113   3.735   1.571   4.144 -0.2315 -0.9855 -0.4069
14058TIP3   OH242114   5.949   5.452   6.275  0.0146 -0.0623 -0.2844
14058TIP3    H142115   6.024   5.404   6.240 -0.3050 -0.0019 -1.0779
14058TIP3    H242116   5.942   5.530   6.221 -1.3897 -0.6966 -1.0857
14059TIP3   OH242117   7.359   0.297   5.096 -0.5072 -0.0829 -0.1673
14059TIP3    H142118   7.381   0.204   5.097 -4.0571 -1.0894  0.3735
14059TIP3    H242119   7.290   0.305   5.030 -0.1533  2.2192 -0.3426
14060TIP3   OH242120   0.417   0.227   4.825 -0.0654  0.3076  0.4639
14060TIP3    H142121   0.398   0.320   4.820 -0.9784  0.2690  2.4627
14060TIP3    H242122   0.347   0.190   4.879 -0.4433 -1.7745 -1.3074
14061TIP3   OH242123   0.643   4.390   6.348  0.1896 -0.0223 -0.1044
14061TIP3    H142124   0.652   4.434   6.263 -1.9044  1.5855  0.4277
14061TIP3    H242125   0.710   4.431   6.403 -0.9146  1.7420  0.0277
14062TIP3   OH242126   5.323   7.201   2.545  0.0059  0.1066  0.2040
14062TIP3    H142127   5.238   7.165   2.571  0.1771 -1.0467 -0.7242
14062TIP3    H242128   5.303   7.257   2.470  0.0211  0.1076  0.2008
14063TIP3   OH242129   1.895   7.738   0.969  0.1110 -0.0006  0.6189
14063TIP3    H142130   1.862   7.828   0.978 -0.2806 -0.0399 -0.3553
14063TIP3    H242131   1.823   7.690   0.927  1.0600 -0.2929 -0.7310
14064TIP3   OH242132   0.006   5.709   6.067 -0.5564 -0.2176  0.4192
14064TIP3    H142133   0.092   5.750   6.071 -0.5067 -0.0505 -1.3722
14064TIP3    H242134  -0.024   5.705   6.158  0.1797  2.2154  0.8346
14065TIP3   OH242135   1.824   4.378   6.742  0.0723 -0.1911  0.4716
14065TIP3    H142136   1.844   4.333   6.824 -0.1856  0.9573  1.1855
14065TIP3    H242137   1.728   4.383   6.740  0.0892  0.1016  0.2901
14066TIP3   OH242138   0.775   2.273   3.258 -0.5006 -0.3426  0.1324
14066TIP3    H142139   0.763   2.251   3.350  1.5250  2.4243  1.2056
14066TIP3    H242140   0.870   2.271   3.245 -0.5884  1.4360 -1.2534
14067TIP3   OH242141   7.058   0.950   5.151 -0.3320  0.1988  0.2046
14067TIP3    H142142   6.964   0.932   5.149 -0.3555  0.2660  0.6272
14067TIP3    H242143   7.100   0.864   5.149 -0.4382  0.0848  1.8940
14068TIP3   OH242144   6.187   3.675   2.632  0.5161 -0.8942  0.6875
14068TIP3    H142145   6.247   3.610   2.667  1.7501 -0.2393 -0.0991
14068TIP3    H242146   6.217   3.758   2.670 -0.7809 -0.7134  1.3680
14069TIP3   OH242147   3.626   5.817   2.519 -0.6977  0.6666 -0.0799
14069TIP3    H142148   3.569   5.874   2.571  0.1241  2.2152 -0.8035
14069TIP3    H242149   3.681   5.772   2.584 -0.8044  1.3158  0.4705
14070TIP3   OH242150   7.221   2.601   5.443 -0.3545 -0.4586  0.0212
14070TIP3    H142151   7.253   2.659   5.512 -0.9677  0.2471 -0.2856
14070TIP3    H242152   7.195   2.521   5.490 -1.1444  0.1577  0.6687
14071TIP3   OH242153   2.430   1.668   6.809  0.2227 -0.0820 -0.5534
14071TIP3    H142154   2.499   1.664   6.875 -1.3579 -1.7505  1.1036
14071TIP3    H242155   2.349   1.673   6.859 -0.9718 -0.0221 -2.4097
14072TIP3   OH242156   5.054   3.066   1.016  0.8510  0.3498 -0.4580
14072TIP3    H142157   5.044   3.141   1.074 -0.9366 -0.3097  0.1560
14072TIP3    H242158   5.018   3.095   0.932 -2.1389 -0.4689  0.4162
14073TIP3   OH242159   8.218   0.359   4.426 -0.6882 -0.1532 -0.1867
14073TIP3    H142160   8.144   0.336   4.369 -1.3195 -0.8271  0.8750
14073TIP3    H242161   8.285   0.295   4.403 -0.0664  1.0099 -1.7879
14074TIP3   OH242162   5.306   6.760   4.535  0.4658 -0.0717  0.2864
14074TIP3    H142163   5.345   6.673   4.545 -0.3705 -0.3369  1.4460
14074TIP3    H242164   5.223   6.745   4.490 -0.6719 -0.1929  2.2838
14075TIP3   OH242165   6.400   1.058   4.197 -0.3251 -0.2117  0.4343
14075TIP3    H142166   6.334   1.127   4.187  1.2183  1.1771 -1.0522
14075TIP3    H242167   6.461   1.093   4.262  0.4696 -0.1109 -0.3315
14076TIP3   OH242168   1.059   6.716   1.301  0.2712 -0.0014 -0.3320
14076TIP3    H142169   0.982   6.723   1.358  0.3421 -1.8716  0.0538
14076TIP3    H242170   1.024   6.680   1.219  0.6715 -0.5202 -0.2783
14077TIP3   OH242171   6.993   6.169   2.001  0.2092 -0.4809 -0.0195
14077TIP3    H142172   7.014   6.262   1.998  0.4785 -0.4059  2.2312
14077TIP3    H242173   6.930   6.161   2.073 -0.7492 -1.8816 -0.9672
14078TIP3   OH242174   7.031   2.242   1.122 -0.0861  0.1384 -0.1479
14078TIP3    H142175   6.937   2.232   1.107 -0.1220 -2.4004  1.2260
14078TIP3    H242176   7.039   2.259   1.216  0.7352  3.9029 -0.7407
14079TIP3   OH242177   2.568   0.687   6.373 -0.6647 -0.0356  0.0894
14079TIP3    H142178   2.586   0.594   6.387 -0.0370  0.3146  1.8147
14079TIP3    H242179   2.646   0.720   6.327 -1.4001 -0.5629 -1.6243
14080TIP3   OH242180   8.402   6.300   5.302  0.0321  0.1135  0.1412
14080TIP3    H142181   8.336   6.279   5.368  1.2220  0.2504  1.4015
14080TIP3    H242182   8.358   6.361   5.243 -1.0609 -0.0461  0.7661
14081TIP3   OH242183   0.679   6.453   4.877  0.1482  0.1159  0.0964
14081TIP3    H142184   0.742   6.518   4.908 -0.1691  0.3753  0.2013
14081TIP3    H242185   0.596   6.500   4.873 -0.1471 -0.3667  0.4726
14082TIP3   OH242186   0.973   1.120   5.223  0.4874 -0.0111 -0.0412
14082TIP3    H142187   0.945   1.211   5.210 -0.0828  0.0779  1.6181
14082TIP3    H242188   1.049   1.126   5.280  0.4441 -0.5742  0.0825
14083TIP3   OH242189   0.282   4.633   5.565  0.2163  0.0405  0.0348
14083TIP3    H142190   0.373   4.664   5.561 -0.2344  1.2599 -2.2328
14083TIP3    H242191   0.276   4.569   5.495 -0.6439 -0.1025  0.2378
14084TIP3   OH242192   1.512   4.657   5.470  0.0674  0.4543  0.4016
14084TIP3    H142193   1.481   4.575   5.508 -2.1884  0.5724 -0.9964
14084TIP3    H242194   1.551   4.631   5.387  0.6677  0.6794  0.6061
14085TIP3   OH242195   1.871   5.327   3.783  0.3294  0.0268 -0.3805
14085TIP3    H142196   1.885   5.308   3.876 -0.6087  2.3585  0.2895
14085TIP3    H242197   1.778   5.309   3.769 -0.2288  2.3705 -0.0924
14086TIP3   OH242198   5.235   1.856   1.366 -0.2018  0.1891  0.1203
14086TIP3    H142199   5.152   1.810   1.352 -0.4323  0.1317  1.5804
14086TIP3    H242200   5.298   1.787   1.386 -0.1157  0.3416  0.3842
14087TIP3   OH242201   3.408   1.689   4.415 -0.0058 -0.4311 -0.3032
14087TIP3    H142202   3.342   1.750   4.449  0.1727 -1.0135  1.1387
14087TIP3    H242203   3.415   1.621   4.481  0.4255 -1.5982 -1.4940
14088TIP3   OH242204   4.451   1.283   5.997  0.8233 -0.0405 -0.0662
14088TIP3    H142205   4.431   1.307   6.087 -0.0038 -2.9589  0.6441
14088TIP3    H242206   4.368   1.295   5.950  0.7703 -0.2151 -0.0175
14089TIP3   OH242207   4.617   2.997   6.661 -0.1804  0.3551  0.6199
14089TIP3    H142208   4.574   2.916   6.633  0.3538  0.7682 -1.5899
14089TIP3    H242209   4.544   3.057   6.681 -0.6850  0.5393 -1.5347
14090TIP3   OH242210   4.094   7.674   3.956  0.1096 -0.3202 -0.2458
14090TIP3    H142211   4.100   7.707   3.866  2.0920  2.3519  0.7309
14090TIP3    H242212   4.184   7.680   3.989 -0.6880 -0.4827  2.1511
14091TIP3   OH242213   1.654   2.008   6.668  0.8905  0.5064  0.3922
14091TIP3    H142214   1.727   1.948   6.655  0.8802  0.6270 -0.2498
14091TIP3    H242215   1.580   1.967   6.622  0.7927  0.8255  0.2584
14092TIP3   OH242216   6.158   7.367   1.604 -0.6132 -0.3441  0.4561
14092TIP3    H142217   6.226   7.374   1.537 -0.0780 -2.5655  0.6977
14092TIP3    H242218   6.205   7.359   1.686 -1.2705  2.3296  1.1914
14093TIP3   OH242219   4.176   2.577   5.816 -0.0416 -0.1345  0.3178
14093TIP3    H142220   4.198   2.663   5.850 -1.5950  0.7424 -0.7689
14093TIP3    H242221   4.081   2.579   5.802 -0.0281 -1.7811 -0.3457
14094TIP3   OH242222   5.165   1.972   6.353 -0.0985  0.7864 -0.0138
14094TIP3    H142223   5.207   2.042   6.303  2.7924  1.7705  3.3747
14094TIP3    H242224   5.141   2.013   6.436 -0.1526 -1.8062  1.3342
14095TIP3   OH242225   7.103   7.401   3.361 -0.1199  0.0435  0.1412
14095TIP3    H142226   7.019   7.358   3.381  0.5318 -1.3756 -0.0397
14095TIP3    H242227   7.125   7.449   3.441 -0.2713 -0.9963  0.8317
14096TIP3   OH242228   3.119   6.113   6.579  0.3687 -0.0929 -0.0792
14096TIP3    H142229   3.035   6.120   6.534 -0.2421 -0.2255  0.9960
14096TIP3    H242230   3.112   6.032   6.629  1.3777 -0.4153 -0.4453
14097TIP3   OH242231   7.372   6.900   1.421 -0.4358  0.4599 -0.1215
14097TIP3    H142232   7.334   6.819   1.458  1.1866  0.2337  1.1804
14097TIP3    H242233   7.297   6.945   1.382 -1.4488 -1.5388 -0.6591
14098TIP3   OH242234   5.141   6.341   2.378 -0.0074  0.1524  0.0037
14098TIP3    H142235   5.188   6.410   2.331 -1.0710  0.8171 -0.1096
14098TIP3    H242236   5.115   6.382   2.461  0.7294 -0.6159  0.6375
14099TIP3   OH242237   5.680   1.636   4.007  0.3678  0.3139 -0.3470
14099TIP3    H142238   5.766   1.664   3.973  0.7956 -0.6416 -0.0803
14099TIP3    H242239   5.627   1.623   3.928 -0.2944  3.1386 -0.4621
14100TIP3   OH242240   3.292   6.449   0.979 -0.6105  0.0525 -0.5980
14100TIP3    H142241   3.244   6.384   0.927  0.2333 -0.3986 -0.8353
14100TIP3    H242242   3.343   6.499   0.915 -0.1029 -0.0442 -0.2800
14101TIP3   OH242243   7.781   7.586   1.502  0.0590  0.2208 -0.2975
14101TIP3    H142244   7.779   7.681   1.491  0.6813  0.0982 -1.7576
14101TIP3    H242245   7.771   7.552   1.413 -1.1177 -1.1081  0.3116
14102TIP3   OH242246   2.205   3.514   0.549 -0.0201 -0.2842  0.3304
14102TIP3    H142247   2.148   3.589   0.530 -0.4564 -0.6303  0.2416
14102TIP3    H242248   2.194   3.499   0.643  0.4815  0.0934  0.4526
14103TIP3   OH242249   8.262   6.477   3.329 -0.0639  0.1216  0.5346
14103TIP3    H142250   8.258   6.395   3.279 -1.5750  0.4827  0.0154
14103TIP3    H242251   8.294   6.450   3.416 -2.1590 -1.3280  0.9327
14104TIP3   OH242252   6.141   6.443   0.587 -0.4358 -0.3217 -0.5618
14104TIP3    H142253   6.195   6.495   0.528  2.3808 -0.8525  1.3653
14104TIP3    H242254   6.110   6.505   0.653 -0.7514 -0.3320 -0.6979
14105TIP3   OH242255   4.355   0.071   2.700  0.5442  0.2530 -0.2374
14105TIP3    H142256   4.271   0.085   2.743  0.9102  0.0352  0.5689
14105TIP3    H242257   4.350   0.123   2.619 -1.2314 -1.5671 -1.3821
14106TIP3   OH242258   2.769   5.510   6.411  0.1364  0.1752  0.6593
14106TIP3    H142259   2.752   5.468   6.496  0.5615 -1.3391  0.0245
14106TIP3    H242260   2.858   5.483   6.389 -0.5001 -0.7322 -0.9753
14107TIP3   OH242261   5.970   4.887   2.707 -0.1679 -0.2557  0.3834
14107TIP3    H142262   6.049   4.850   2.746  1.5388  2.9182  0.2726
14107TIP3    H242263   5.990   4.893   2.614 -2.1102 -2.8192 -0.3143
14108TIP3   OH242264   1.582   5.770   2.671 -0.2739  0.1140  0.1268
14108TIP3    H142265   1.632   5.815   2.603 -1.2674 -1.4750 -1.7233
14108TIP3    H242266   1.532   5.839   2.714  1.1431  1.2880 -0.0305
14109TIP3   OH242267   1.134   7.020   6.141 -0.6325  0.6128 -0.1079
14109TIP3    H142268   1.169   6.988   6.058 -2.3459 -1.1067 -0.2337
14109TIP3    H242269   1.074   7.091   6.116  0.0034  1.1281 -0.1916
14110TIP3   OH242270   1.838   0.360   5.525  0.1591 -0.2313 -0.4589
14110TIP3    H142271   1.773   0.372   5.455  0.3742  0.5031 -0.5410
14110TIP3    H242272   1.907   0.307   5.485  1.1377  1.6557 -1.3853
14111TIP3   OH242273   7.043   1.459   5.632 -0.5391 -0.1004 -0.5417
14111TIP3    H142274   7.096   1.531   5.665 -0.1066  0.1617 -1.7590
14111TIP3    H242275   7.031   1.402   5.707  1.0567  0.0755 -0.1219
14112TIP3   OH242276   7.589   1.503   2.533  0.2592  0.1263 -0.0299
14112TIP3    H142277   7.663   1.458   2.573  1.0785  1.8576  0.5232
14112TIP3    H242278   7.608   1.504   2.440 -0.6390 -2.1244 -0.2945
14113TIP3   OH242279   7.688   1.842   4.883  0.6610  0.1701 -0.1932
14113TIP3    H142280   7.659   1.785   4.954  0.8022  3.1711  2.5019
14113TIP3    H242281   7.768   1.882   4.916  0.7301  1.7087 -2.0607
14114TIP3   OH242282   3.143   3.623   0.510 -0.1518 -0.1154 -0.0653
14114TIP3    H142283   3.227   3.635   0.553 -0.7632 -0.1627  1.1721
14114TIP3    H242284   3.118   3.711   0.480  0.3591 -0.1137 -0.4994
14115TIP3   OH242285   6.749   0.648   4.447 -0.7222 -0.5464 -0.1749
14115TIP3    H142286   6.734   0.583   4.515  1.0562 -0.6021  0.2091
14115TIP3    H242287   6.779   0.725   4.493 -2.1111  0.3430 -0.6960
14116TIP3   OH242288   0.414   7.936   5.610 -0.1249  0.4011  0.8255
14116TIP3    H142289   0.349   7.964   5.674 -0.6955 -1.1689  0.9550
14116TIP3    H242290   0.451   7.856   5.646 -1.2360 -1.1576 -1.2687
14117TIP3   OH242291   6.398   4.607   4.897  0.0552  0.4690  0.2659
14117TIP3    H142292   6.303   4.613   4.892 -0.1543 -1.4745  1.0710
14117TIP3    H242293   6.422   4.660   4.973 -0.4077  0.7240  0.2361
14118TIP3   OH242294   5.042   2.471   3.415  0.0914  0.3028 -0.7711
14118TIP3    H142295   5.051   2.385   3.457  0.7506  1.1792  0.9483
14118TIP3    H242296   5.010   2.451   3.327  0.8221 -1.7512 -0.6198
14119TIP3   OH242297   3.332   6.791   1.533 -0.4974  0.1297 -0.2194
14119TIP3    H142298   3.356   6.753   1.449  0.0346  0.3397 -0.1722
14119TIP3    H242299   3.278   6.725   1.576 -0.2197 -0.2517 -0.4559
14120TIP3   OH242300   5.228   0.119   0.858 -0.4558 -0.6379 -0.5399
14120TIP3    H142301   5.310   0.163   0.880 -0.5447 -0.8057  0.1517
14120TIP3    H242302   5.232   0.035   0.905 -0.3677 -1.2925 -1.6954
14121TIP3   OH242303   2.279   7.283   1.364 -0.0579  0.6702 -0.2970
14121TIP3    H142304   2.338   7.210   1.346 -0.0941  0.8488 -1.1851
14121TIP3    H242305   2.192   7.245   1.361 -0.0972  0.8035 -1.1081
14122TIP3   OH242306   8.218   1.005   0.784  0.0927  0.5059  0.4225
14122TIP3    H142307   8.123   0.995   0.771  0.4091 -3.0738 -0.1434
14122TIP3    H242308   8.230   0.996   0.878 -0.0469 -0.5274  0.3526
14123TIP3   OH242309   6.244   4.094   0.613  0.6488 -0.0484  0.1849
14123TIP3    H142310   6.283   4.059   0.533 -0.6567  1.3124 -1.1007
14123TIP3    H242311   6.151   4.076   0.604  0.5444 -0.4191  1.7210
14124TIP3   OH242312   7.824   3.117   2.635  0.2468  0.4245 -0.0391
14124TIP3    H142313   7.795   3.206   2.655  1.9668  1.0063  0.0471
14124TIP3    H242314   7.841   3.118   2.541 -1.6743 -0.4574 -0.4637
14125TIP3   OH242315   2.875   4.315   2.135 -0.4592  0.0437 -0.8874
14125TIP3    H142316   2.970   4.305   2.137 -0.5362 -1.0714 -1.8734
14125TIP3    H242317   2.841   4.235   2.174 -1.0148  1.5757  2.0164
14126TIP3   OH242318   1.509   0.971   1.831 -0.3055  0.0338  0.5970
14126TIP3    H142319   1.487   1.064   1.841  0.4375  0.1911  0.8442
14126TIP3    H242320   1.452   0.941   1.760 -0.2249  0.7991  0.1863
14127TIP3   OH242321   6.999   2.713   1.126  0.3518  0.3424 -0.0662
14127TIP3    H142322   6.989   2.640   1.186 -2.0294  1.4170  1.0029
14127TIP3    H242323   7.058   2.774   1.171 -1.3984  1.1317  1.2722
14128TIP3   OH242324   3.191   5.399   2.289 -0.2766  0.2447 -0.3412
14128TIP3    H142325   3.183   5.379   2.196  1.9150 -1.0887 -0.3389
14128TIP3    H242326   3.102   5.397   2.322 -1.4247  3.1555 -2.7810
14129TIP3   OH242327   7.747   6.783   0.232  0.3571 -0.2983  0.0336
14129TIP3    H142328   7.827   6.749   0.192 -0.6872 -0.8008 -1.6849
14129TIP3    H242329   7.758   6.878   0.229  1.0466 -0.3630  0.1798
14130TIP3   OH242330   1.246   2.373   4.547  0.0765  0.0255  0.4791
14130TIP3    H142331   1.165   2.356   4.498  0.0705  0.5415  0.3037
14130TIP3    H242332   1.216   2.411   4.630  0.0538 -1.3813  1.1457
14131TIP3   OH242333   0.235   5.699   5.022 -0.1422 -0.7127 -0.2763
14131TIP3    H142334   0.262   5.621   5.070  1.9682 -0.1747 -0.4533
14131TIP3    H242335   0.143   5.712   5.045  0.2344 -1.6291  1.9901
14132TIP3   OH242336   2.470   3.312   5.358 -0.5446 -0.1879 -0.4226
14132TIP3    H142337   2.507   3.224   5.354 -0.7777 -0.5122  2.2214
14132TIP3    H242338   2.395   3.303   5.417  0.8399  2.1448  1.9267
14133TIP3   OH242339   4.070   6.851   0.467 -0.0068 -0.2007  0.4911
14133TIP3    H142340   4.033   6.768   0.495 -2.1330 -0.0115 -1.4746
14133TIP3    H242341   4.165   6.840   0.479 -0.1602 -3.1306 -0.2695
14134TIP3   OH242342   1.672   1.266   5.786 -0.0835 -0.2394  0.3331
14134TIP3    H142343   1.593   1.217   5.808 -1.1121  0.9450 -0.5608
14134TIP3    H242344   1.742   1.201   5.785 -0.8357 -1.1503  2.1685
14135TIP3   OH242345   6.402   5.341   6.599  0.0226  0.2776  0.4038
14135TIP3    H142346   6.490   5.372   6.581 -0.0395  0.1991 -0.0449
14135TIP3    H242347   6.376   5.387   6.679  0.7798 -0.3275  1.0104
14136TIP3   OH242348   5.047   6.593   6.520 -0.4604 -0.0332  0.3098
14136TIP3    H142349   5.038   6.662   6.454 -0.4516 -0.5388 -0.2272
14136TIP3    H242350   4.961   6.551   6.523 -0.1851 -0.6520 -0.1091
14137TIP3   OH242351   3.036   5.900   6.710  0.2025  0.5916 -0.3892
14137TIP3    H142352   3.032   5.824   6.652  1.7422  0.6884 -0.6633
14137TIP3    H242353   3.102   5.876   6.775 -0.2549  1.1773  0.2907
14138TIP3   OH242354   4.777   2.769   1.011 -0.1081 -0.1248  0.2234
14138TIP3    H142355   4.786   2.836   0.943  0.1646 -0.4789 -0.0959
14138TIP3    H242356   4.864   2.766   1.052 -0.1469 -0.2185  0.2968
14139TIP3   OH242357   5.496   3.465   2.419  0.5467 -0.3732  0.5768
14139TIP3    H142358   5.407   3.434   2.436  0.0523  1.2470  1.1398
14139TIP3    H242359   5.493   3.497   2.329  0.8367 -1.1844  0.2702
14140TIP3   OH242360   2.461   4.235   2.540 -0.4784  0.2383 -0.2253
14140TIP3    H142361   2.540   4.270   2.581 -0.9545  2.9097 -1.3696
14140TIP3    H242362   2.469   4.259   2.448 -1.8901 -0.9054 -0.6909
14141TIP3   OH242363   4.802   1.082   3.387 -0.0368 -0.3007  0.2594
14141TIP3    H142364   4.731   1.041   3.436 -0.5088 -2.1811 -1.8488
14141TIP3    H242365   4.879   1.029   3.408  0.8984  1.8002  2.6296
14142TIP3   OH242366   4.418   1.271   4.037  0.3082 -0.0949 -0.6485
14142TIP3    H142367   4.496   1.327   4.030 -0.0027  0.7206  1.4420
14142TIP3    H242368   4.346   1.333   4.049 -0.5182 -0.8756 -1.4520
14143TIP3   OH242369   7.850   6.114   2.022  0.3819  0.0896  0.1129
14143TIP3    H142370   7.809   6.033   1.990 -2.1639  1.8701 -1.5129
14143TIP3    H242371   7.799   6.139   2.099  0.8587  0.4158  0.3316
14144TIP3   OH242372   8.034   5.763   5.736 -0.0452 -0.2676  0.3675
14144TIP3    H142373   7.980   5.836   5.704 -0.1980 -0.2737  0.6108
14144TIP3    H242374   8.051   5.784   5.828  0.4824 -0.2014  0.2565
14145TIP3   OH242375   4.249   2.584   3.852  1.2051  0.2081 -0.2230
14145TIP3    H142376   4.231   2.667   3.896 -0.0523  0.8973 -1.9402
14145TIP3    H242377   4.343   2.586   3.833  1.8063 -0.1179  2.2996
14146TIP3   OH242378   2.920   1.645   1.795  0.1408 -0.0233  0.2732
14146TIP3    H142379   2.859   1.600   1.854 -0.6839 -0.0138 -0.5458
14146TIP3    H242380   2.869   1.660   1.716  1.5365 -0.9615 -0.8338
14147TIP3   OH242381   4.483   5.617   3.788 -0.2716 -0.1327  0.4140
14147TIP3    H142382   4.438   5.553   3.732  0.2613  0.0760 -0.2619
14147TIP3    H242383   4.518   5.681   3.727 -0.3365  0.5160  1.0554
14148TIP3   OH242384   6.782   6.328   3.676  0.4273 -0.2102  0.1186
14148TIP3    H142385   6.855   6.316   3.737  1.9694 -0.4149 -1.6819
14148TIP3    H242386   6.721   6.257   3.697  1.6192 -1.1710  0.4658
14149TIP3   OH242387   3.603   1.321   3.694 -0.1856 -0.0023 -0.0354
14149TIP3    H142388   3.632   1.256   3.629  0.8976  0.6764 -0.2509
14149TIP3    H242389   3.508   1.312   3.694 -0.2414  0.0933 -1.8559
14150TIP3   OH242390   5.567   2.617   6.389 -0.3339  0.1343 -0.0448
14150TIP3    H142391   5.615   2.554   6.441  0.6524 -0.2246 -1.3264
14150TIP3    H242392   5.620   2.697   6.393 -1.1242  0.6292  0.8568
14151TIP3   OH242393   6.073   7.418   3.507 -0.1709 -0.0520  0.2555
14151TIP3    H142394   6.104   7.464   3.585 -0.9380  1.4912 -0.3004
14151TIP3    H242395   6.015   7.350   3.540  0.6260 -0.3338  1.0912
14152TIP3   OH242396   3.114   7.436   2.736 -0.6894  0.0643  0.4968
14152TIP3    H142397   3.137   7.518   2.780  0.3483 -0.9203  1.8896
14152TIP3    H242398   3.198   7.391   2.725 -0.8935  0.2156 -2.5326
14153TIP3   OH242399   5.526   3.642   6.444  0.1985  0.1434  0.2926
14153TIP3    H142400   5.574   3.573   6.398 -0.1387  0.0696  0.0480
14153TIP3    H242401   5.438   3.638   6.407  0.2980  1.0155 -0.0468
14154TIP3   OH242402   2.312   4.791   3.094  0.2610  0.9610 -0.0318
14154TIP3    H142403   2.284   4.840   3.017 -0.5844 -1.4952 -1.3703
14154TIP3    H242404   2.282   4.702   3.079  2.7771 -0.3213  1.7215
14155TIP3   OH242405   4.190   3.052   2.634  0.4047 -0.2405  0.3806
14155TIP3    H142406   4.285   3.060   2.638  0.4631 -0.8455  0.2250
14155TIP3    H242407   4.174   2.965   2.598 -0.2058  0.1149 -0.2461
14156TIP3   OH242408   1.510   2.665   0.991 -0.0274 -0.7429 -0.4605
14156TIP3    H142409   1.524   2.732   0.924 -1.3202  0.7703  0.7054
14156TIP3    H242410   1.554   2.699   1.069 -0.1150 -1.5765 -0.0392
14157TIP3   OH242411   5.337   6.861   5.440 -0.3848  0.2321 -0.0937
14157TIP3    H142412   5.416   6.839   5.489  0.6569  1.4914 -1.1387
14157TIP3    H242413   5.273   6.884   5.507 -0.1841 -1.6707  0.8148
14158TIP3   OH242414   4.700   2.660   1.527  0.2989  0.2233 -0.5354
14158TIP3    H142415   4.776   2.675   1.471  0.9749 -0.0536  0.2868
14158TIP3    H242416   4.710   2.722   1.599  0.4398 -0.6695  0.2444
14159TIP3   OH242417   0.750   2.211   3.856 -0.5899 -0.3940  0.0441
14159TIP3    H142418   0.754   2.139   3.793  0.5348  1.1046 -1.6941
14159TIP3    H242419   0.677   2.265   3.826 -0.1942  0.2149  0.1589
14160TIP3   OH242420   3.875   7.363   5.395  0.3201  0.4960 -0.3676
14160TIP3    H142421   3.804   7.361   5.460 -1.0577  0.3967 -1.8359
14160TIP3    H242422   3.831   7.360   5.311  2.1000  0.2428 -1.3332
14161TIP3   OH242423   6.231   6.369   0.118  0.4569 -0.1952 -0.0977
14161TIP3    H142424   6.323   6.381   0.097  0.2526 -0.0766 -0.9235
14161TIP3    H242425   6.229   6.366   0.214  1.4385 -1.1364 -0.0823
14162TIP3   OH242426   3.533   5.239   2.109 -0.6994  0.0631 -0.8188
14162TIP3    H142427   3.515   5.328   2.080 -1.4802  0.1136 -0.1918
14162TIP3    H242428   3.503   5.183   2.037 -4.3175  0.0846  0.4861
14163TIP3   OH242429   6.165   1.516   2.543  0.2179  0.4274  0.0901
14163TIP3    H142430   6.164   1.610   2.523  0.3860  0.4708  0.2765
14163TIP3    H242431   6.172   1.512   2.639  1.2143  0.2307  0.0258
14164TIP3   OH242432   7.769   7.050   3.997 -0.3863  0.0555  0.1005
14164TIP3    H142433   7.864   7.061   3.991 -0.6337  1.7044 -1.5027
14164TIP3    H242434   7.741   7.116   4.061 -0.6727  1.2856 -1.2424
14165TIP3   OH242435   1.193   6.919   5.880 -0.0913  0.5103 -0.1458
14165TIP3    H142436   1.160   6.899   5.792  0.3862 -2.6568  0.2557
14165TIP3    H242437   1.283   6.949   5.865 -0.4768  1.3955 -0.7806
14166TIP3   OH242438   2.207   4.316   2.639  0.3998 -0.0004  0.0990
14166TIP3    H142439   2.154   4.267   2.578  1.3614 -1.0513  0.0782
14166TIP3    H242440   2.295   4.314   2.602  1.3603 -2.0391  2.2385
14167TIP3   OH242441   8.171   2.726   1.472  0.7431 -0.2614  0.3950
14167TIP3    H142442   8.160   2.740   1.379 -0.2407  1.2634  0.7168
14167TIP3    H242443   8.266   2.715   1.484  0.8219 -1.0792 -0.8230
14168TIP3   OH242444   3.452   5.806   2.755 -0.7204  0.3695  0.2417
14168TIP3    H142445   3.540   5.771   2.771 -0.1148  0.5489 -2.2596
14168TIP3    H242446   3.402   5.732   2.720 -1.2800  0.5202  0.7058
14169TIP3   OH242447   1.061   5.733   1.856  0.1280 -0.7045  0.5254
14169TIP3    H142448   1.017   5.810   1.821  1.8910  0.0447 -0.1536
14169TIP3    H242449   1.051   5.740   1.951  1.0162  0.8592  0.5339
14170TIP3   OH242450   0.653   3.862   0.882 -0.3304 -0.9967  0.7916
14170TIP3    H142451   0.619   3.935   0.830  0.3427 -1.1637  0.0869
14170TIP3    H242452   0.717   3.903   0.940 -0.5692 -0.9068  0.9918
14171TIP3   OH242453   6.735   5.598   0.189 -0.4011 -0.0634  0.2160
14171TIP3    H142454   6.723   5.651   0.268  1.3036 -0.1400  0.5500
14171TIP3    H242455   6.670   5.631   0.127 -0.0448  1.7271  0.7691
14172TIP3   OH242456   8.049   0.698   5.391 -0.4619 -0.3009  1.1469
14172TIP3    H142457   8.058   0.691   5.485  0.3919 -1.0600  1.0178
14172TIP3    H242458   8.103   0.626   5.356  0.2535  0.7396  0.0507
14173TIP3   OH242459   8.044   1.007   6.386 -0.0835  0.5710  0.7235
14173TIP3    H142460   8.137   1.030   6.390 -0.5619  2.4731  3.0651
14173TIP3    H242461   7.999   1.091   6.374 -1.6031  0.0685  2.4782
14174TIP3   OH242462   7.070   7.055   6.604  0.2041  0.5394 -0.0026
14174TIP3    H142463   7.028   7.078   6.686 -0.4195  0.3845 -0.2703
14174TIP3    H242464   7.098   7.139   6.567  0.9601  0.5576  0.6159
14175TIP3   OH242465   5.497   6.309   2.364 -0.9053  0.2591 -0.0474
14175TIP3    H142466   5.567   6.252   2.395 -0.6614  0.8899  0.6043
14175TIP3    H242467   5.418   6.273   2.402 -0.7298  0.4452  0.5110
14176TIP3   OH242468   0.676   1.874   4.315  0.2756 -0.6345 -0.3154
14176TIP3    H142469   0.680   1.899   4.223  0.5591 -0.8072 -0.3518
14176TIP3    H242470   0.583   1.874   4.336  0.1800 -1.0577 -0.7273
14177TIP3   OH242471   4.453   5.591   5.533 -0.1795 -0.5264 -0.6293
14177TIP3    H142472   4.451   5.520   5.597  1.9434 -0.3869 -0.3270
14177TIP3    H242473   4.476   5.548   5.450  0.2828 -0.3194 -0.6147
14178TIP3   OH242474   2.171   4.951   0.954  0.0038  0.0148  0.0744
14178TIP3    H142475   2.166   4.910   1.040  0.3284  2.0822  1.1324
14178TIP3    H242476   2.092   5.004   0.948  0.8758  1.3365 -0.0957
14179TIP3   OH242477   5.518   5.324   3.898  0.1161 -0.3395  0.6630
14179TIP3    H142478   5.446   5.349   3.840  0.3590 -1.5961 -0.2106
14179TIP3    H242479   5.541   5.235   3.871  1.8448 -0.0447  1.0691
14180TIP3   OH242480   4.722   4.668   1.747  0.2171 -0.3202 -0.0929
14180TIP3    H142481   4.661   4.719   1.694 -0.3936 -1.2070 -0.2773
14180TIP3    H242482   4.809   4.689   1.711  0.0482  1.0342  0.2452
14181TIP3   OH242483   3.380   1.381   0.339  0.3586  0.5400 -0.5457
14181TIP3    H142484   3.336   1.356   0.420  1.5669 -0.5662 -0.1868
14181TIP3    H242485   3.384   1.300   0.288  0.2434  1.0638 -1.4029
14182TIP3   OH242486   1.282   3.298   3.454  0.3302 -0.2393 -0.3640
14182TIP3    H142487   1.238   3.235   3.397 -0.1169  1.0621 -1.5362
14182TIP3    H242488   1.352   3.335   3.399  2.7847 -2.0254  1.3475
14183TIP3   OH242489   0.838   6.762   3.113  0.5444  0.1648  0.2219
14183TIP3    H142490   0.916   6.806   3.146 -0.0343  1.3669  0.0578
14183TIP3    H242491   0.796   6.828   3.057 -0.9682 -0.2030  0.8907
14184TIP3   OH242492   0.822   0.788   2.169 -0.0185 -0.1304  0.3591
14184TIP3    H142493   0.767   0.865   2.186 -0.2094 -0.4651  1.2912
14184TIP3    H242494   0.882   0.817   2.100  0.6816  1.2415  1.4972
14185TIP3   OH242495   2.987   1.004   0.838 -0.4276  0.3121  0.2730
14185TIP3    H142496   2.963   0.991   0.930 -2.1086 -1.6982 -0.3913
14185TIP3    H242497   2.924   1.068   0.805 -0.1160  0.6830  0.3891
14186TIP3   OH242498   6.430   6.482   6.849 -0.0285 -0.0936  0.0789
14186TIP3    H142499   6.450   6.423   6.922 -1.4661 -1.0133 -0.2142
14186TIP3    H242500   6.515   6.511   6.816  0.7928 -2.6008 -0.2245
14187TIP3   OH242501   3.826   1.544   6.374 -0.1166 -0.6535 -0.2570
14187TIP3    H142502   3.855   1.565   6.462 -0.4615  2.2388 -0.7373
14187TIP3    H242503   3.733   1.566   6.373  0.0199 -0.0402 -1.4803
14188TIP3   OH242504   7.007   4.019   3.079 -0.2912 -0.0427 -0.1879
14188TIP3    H142505   7.004   4.109   3.047 -2.5999 -1.2401 -3.9368
14188TIP3    H242506   7.092   3.986   3.050 -0.2862  0.3550 -0.6359
14189TIP3   OH242507   2.923   2.976   3.023  0.1259 -0.4347 -0.7575
14189TIP3    H142508   2.995   2.926   3.061 -0.0112 -0.9681 -1.1990
14189TIP3    H242509   2.965   3.056   2.989  0.2437  0.0867  0.5473
14190TIP3   OH242510   6.772   0.936   6.791  0.0242 -0.1782  1.1052
14190TIP3    H142511   6.695   0.892   6.754 -0.6846  1.0287  1.0828
14190TIP3    H242512   6.754   0.938   6.885 -0.2735  0.6333  1.0388
14191TIP3   OH242513   6.648   1.912   6.772  0.5924 -0.2431  0.0950
14191TIP3    H142514   6.561   1.950   6.772  0.7648  0.1943 -0.9680
14191TIP3    H242515   6.651   1.857   6.851 -1.0919 -1.3269 -0.5492
14192TIP3   OH242516   1.347   7.678   3.752 -0.0024  0.0179  0.2827
14192TIP3    H142517   1.365   7.620   3.826  0.5636 -1.4028 -0.9225
14192TIP3    H242518   1.400   7.756   3.769 -1.9442  0.9532  2.7080
14193TIP3   OH242519   3.255   2.300   3.564  0.2634  0.0997 -0.1969
14193TIP3    H142520   3.253   2.301   3.660  1.5920 -0.2340 -0.1350
14193TIP3    H242521   3.167   2.274   3.538 -0.6408  1.8957  0.8777
14194TIP3   OH242522   4.377   6.576   0.118  0.5129 -0.0745  1.2271
14194TIP3    H142523   4.456   6.525   0.099  0.8181  0.8812 -0.1979
14194TIP3    H242524   4.403   6.667   0.104 -1.0906  0.2065 -0.1918
14195TIP3   OH242525   1.099   1.707   5.520  0.4091  0.0411 -0.3556
14195TIP3    H142526   1.089   1.684   5.427  0.3479  0.9260 -0.5716
14195TIP3    H242527   1.190   1.683   5.541  0.2795 -0.6069 -0.5105
14196TIP3   OH242528   0.382   7.039   2.858  0.4492 -0.1309  0.2119
14196TIP3    H142529   0.328   7.061   2.782  1.5830  2.0881 -0.0188
14196TIP3    H242530   0.326   6.981   2.911 -0.8019 -0.7515 -1.6884
14197TIP3   OH242531   2.398   7.647   4.833 -0.2888 -0.2214 -0.0182
14197TIP3    H142532   2.426   7.685   4.750 -0.9353  0.8823  0.2591
14197TIP3    H242533   2.340   7.712   4.872 -0.8907 -1.1999  0.7879
14198TIP3   OH242534   7.756   1.282   4.430  0.2554 -0.2360  0.4571
14198TIP3    H142535   7.680   1.341   4.432 -0.0619 -0.6251 -0.0152
14198TIP3    H242536   7.804   1.306   4.351 -0.3956 -1.2393 -0.2724
14199TIP3   OH242537   1.344   7.064   2.422 -0.0464  0.3582  0.2460
14199TIP3    H142538   1.383   7.141   2.380 -1.1556  0.7887 -0.0275
14199TIP3    H242539   1.405   6.993   2.403 -0.9395  0.3093 -2.9300
14200TIP3   OH242540   1.398   3.458   6.182 -0.2129  0.1769 -0.2547
14200TIP3    H142541   1.353   3.532   6.141 -0.9918  0.6656  1.3811
14200TIP3    H242542   1.397   3.478   6.276 -0.2382 -1.8015  0.2177
14201TIP3   OH242543   1.527   0.175   2.660  0.7933  0.1597 -0.6796
14201TIP3    H142544   1.570   0.261   2.663  0.7702  0.2778 -2.4309
14201TIP3    H242545   1.434   0.194   2.661  0.7875  0.1333 -0.7099
14202TIP3   OH242546   3.410   0.299   6.855  0.9585  0.5346  0.0026
14202TIP3    H142547   3.380   0.370   6.799  1.6290 -0.4796 -1.7273
14202TIP3    H242548   3.365   0.221   6.822  1.1338 -0.0479  1.0850
14203TIP3   OH242549   6.438   4.882   5.514 -0.2233  0.6231 -0.2741
14203TIP3    H142550   6.453   4.811   5.451 -0.1038  0.6526 -0.2795
14203TIP3    H242551   6.526   4.911   5.539 -0.2719  1.5458 -1.1416
14204TIP3   OH242552   2.325   0.372   0.711 -0.3256 -0.5150  0.4299
14204TIP3    H142553   2.315   0.284   0.748 -0.4981  0.1379  2.0592
14204TIP3    H242554   2.358   0.425   0.784  0.1603  0.6927 -0.6201
14205TIP3   OH242555   0.655   1.323   2.715 -0.4498  0.3609  0.1110
14205TIP3    H142556   0.712   1.247   2.698 -0.4870  0.5093 -0.6803
14205TIP3    H242557   0.706   1.377   2.775 -1.0649 -1.0540  2.0333
14206TIP3   OH242558   0.150   2.021   3.392  0.8680  0.4736 -0.5325
14206TIP3    H142559   0.219   1.971   3.436 -0.3753 -2.1880 -1.4019
14206TIP3    H242560   0.095   2.055   3.464  1.7887  0.7193  0.0780
14207TIP3   OH242561   3.458   4.210   2.849 -0.0133  0.5416  0.5533
14207TIP3    H142562   3.532   4.270   2.856  0.9094 -0.5231  0.3361
14207TIP3    H242563   3.495   4.124   2.869 -1.0525 -0.1051 -0.1737
14208TIP3   OH242564   2.255   2.640   1.529  0.0035  0.1941 -0.4485
14208TIP3    H142565   2.183   2.640   1.466 -1.3052  1.3625  0.9645
14208TIP3    H242566   2.224   2.585   1.601  0.4150  0.9257  0.3021
14209TIP3   OH242567   3.236   0.915   1.886 -0.0026 -0.3278  0.2975
14209TIP3    H142568   3.312   0.972   1.879 -0.0712 -0.1981  0.6077
14209TIP3    H242569   3.244   0.874   1.972  0.3726 -1.2556 -0.1674
14210TIP3   OH242570   4.239   5.112   2.102  0.6549 -0.1533 -0.6230
14210TIP3    H142571   4.305   5.073   2.161  0.8300  1.3765  0.2399
14210TIP3    H242572   4.218   5.196   2.142  0.5020  0.7833 -2.5824
14211TIP3   OH242573   0.931   4.116   3.237  0.1538  0.4493 -0.4477
14211TIP3    H142574   0.859   4.155   3.187 -1.2398 -0.4604  0.7824
14211TIP3    H242575   0.983   4.191   3.266 -1.1529  1.2572 -0.1000
14212TIP3   OH242576   7.541   7.833   2.820 -0.6953 -0.4243 -0.6147
14212TIP3    H142577   7.570   7.920   2.846  0.8252 -1.0486 -0.1103
14212TIP3    H242578   7.450   7.827   2.851 -0.8152  0.9552 -0.6576
14213TIP3   OH242579   3.128   1.997   5.369  0.1431  0.0899  0.9772
14213TIP3    H142580   3.058   1.984   5.433  1.7733 -1.1798  2.5838
14213TIP3    H242581   3.150   1.909   5.339  0.6036  0.5332 -0.0401
14214TIP3   OH242582   1.443   3.275   0.524  0.4289  0.0974 -0.2390
14214TIP3    H142583   1.404   3.279   0.437 -0.8603  3.5866  0.3440
14214TIP3    H242584   1.459   3.366   0.548 -1.3634 -0.4654  4.0876
14215TIP3   OH242585   6.713   4.939   5.561 -0.0034 -0.0172  0.1509
14215TIP3    H142586   6.728   4.853   5.601  0.6832  0.1990  0.3627
14215TIP3    H242587   6.762   5.000   5.617  0.1182  0.4193 -0.4280
14216TIP3   OH242588   5.449   4.323   0.670  0.6537  0.3908  0.2174
14216TIP3    H142589   5.479   4.320   0.761  1.0807  1.5176  0.1320
14216TIP3    H242590   5.390   4.248   0.662  0.8761  0.0729  1.3231
14217TIP3   OH242591   3.980   7.856   2.896  0.3000 -0.0698 -0.0310
14217TIP3    H142592   3.913   7.908   2.851  0.5107  0.3729  0.1575
14217TIP3    H242593   4.063   7.892   2.864  0.4541  0.2374  0.6857
14218TIP3   OH242594   4.280   3.070   3.663  0.2365 -0.4886 -0.3685
14218TIP3    H142595   4.344   3.032   3.723  0.6760 -1.2481 -1.2829
14218TIP3    H242596   4.331   3.091   3.585 -0.9744 -3.4458 -2.1295
14219TIP3   OH242597   6.417   7.825   3.063 -0.5071 -0.0663 -0.4756
14219TIP3    H142598   6.356   7.809   3.136 -0.5483  0.2615 -0.4371
14219TIP3    H242599   6.504   7.815   3.102 -0.5013  1.4068 -0.0634
14220TIP3   OH242600   3.233   0.308   5.844 -0.0230 -0.8689 -0.1038
14220TIP3    H142601   3.206   0.317   5.935 -1.0924 -1.1111 -0.3813
14220TIP3    H242602   3.192   0.381   5.799  2.7600  0.9004  0.0376
14221TIP3   OH242603   2.350   6.446   5.881  0.0251 -0.1897  0.5324
14221TIP3    H142604   2.306   6.380   5.934  0.4199 -1.0472 -0.2013
14221TIP3    H242605   2.407   6.397   5.823  1.3399  0.8603  0.8942
14222TIP3   OH242606   7.797   5.019   6.791  0.1846  0.3877  0.6903
14222TIP3    H142607   7.809   4.978   6.706 -0.1994 -1.5324  1.4878
14222TIP3    H242608   7.716   5.069   6.783  0.9226  1.4432 -0.4683
14223TIP3   OH242609   2.439   0.435   1.943 -0.0460 -0.1410  0.6245
14223TIP3    H142610   2.358   0.479   1.916  0.0550  0.1922  0.8497
14223TIP3    H242611   2.431   0.426   2.038 -0.4377 -1.3799  0.4806
14224TIP3   OH242612   7.660   6.169   0.166 -0.4550 -0.1635 -0.4533
14224TIP3    H142613   7.720   6.096   0.152 -0.5698 -0.1592 -0.9971
14224TIP3    H242614   7.645   6.170   0.260  1.1026  0.4021 -0.1956
14225TIP3   OH242615   0.312   2.958   3.449  0.4823 -0.3794  0.7700
14225TIP3    H142616   0.256   3.005   3.511 -0.2065 -0.0521 -0.0812
14225TIP3    H242617   0.251   2.914   3.390  1.0767  0.9079 -0.8855
14226TIP3   OH242618   1.506   7.608   2.236  0.5365  0.0838 -0.3251
14226TIP3    H142619   1.426   7.596   2.184  0.7036  0.2664 -0.6307
14226TIP3    H242620   1.490   7.688   2.286  0.2754 -0.2295  0.0954
14227TIP3   OH242621   0.405   5.599   1.611 -0.3257 -0.4100  0.0610
14227TIP3    H142622   0.387   5.506   1.626  0.4327 -0.5608  0.0647
14227TIP3    H242623   0.428   5.604   1.518 -1.1655 -0.0912 -0.1382
14228TIP3   OH242624   5.956   1.519   4.384 -0.1025  0.5272 -0.3791
14228TIP3    H142625   6.027   1.478   4.434  1.0729  1.2639 -1.4069
14228TIP3    H242626   5.921   1.586   4.443  0.3275  0.4362 -0.0134
14229TIP3   OH242627   2.068   7.882   5.690 -0.0052  0.6499 -0.2095
14229TIP3    H142628   2.040   7.967   5.655  2.6990  1.1810 -1.2777
14229TIP3    H242629   2.134   7.904   5.756 -0.6571 -0.6011  0.9148
14230TIP3   OH242630   6.927   4.053   5.995 -0.5086 -0.3143 -0.6666
14230TIP3    H142631   6.990   4.118   5.966  0.1453 -1.2717 -1.4615
14230TIP3    H242632   6.972   4.005   6.065 -0.8454 -0.1720 -0.3467
14231TIP3   OH242633   1.804   2.725   0.277 -0.2318  0.2831 -0.0023
14231TIP3    H142634   1.780   2.804   0.326 -0.4211  0.4342 -0.3357
14231TIP3    H242635   1.893   2.741   0.247 -0.3424  0.4603 -0.2434
14232TIP3   OH242636   5.919   7.536   1.257 -0.1523 -0.3006  0.4536
14232TIP3    H142637   5.948   7.520   1.167 -0.3430  1.5554  0.0121
14232TIP3    H242638   5.906   7.631   1.261 -2.8792 -0.6320  1.6128
14233TIP3   OH242639   3.316   4.414   5.719  0.1403  0.3767 -0.1404
14233TIP3    H142640   3.359   4.421   5.803 -0.6443 -0.0272  0.3090
14233TIP3    H242641   3.226   4.443   5.735 -0.5394 -1.4592 -0.3758
14234TIP3   OH242642   3.304   5.742   0.290  0.1326 -0.1253  0.0359
14234TIP3    H142643   3.220   5.752   0.335 -1.5960 -1.4391 -2.5832
14234TIP3    H242644   3.333   5.653   0.312  0.3406 -0.0109  0.2160
14235TIP3   OH242645   4.276   4.596   0.272  0.3063  0.5726 -0.5975
14235TIP3    H142646   4.259   4.690   0.264  0.0408  0.7163  1.2490
14235TIP3    H242647   4.256   4.560   0.186 -0.0033  2.1429 -1.2052
14236TIP3   OH242648   0.569   6.044   2.951 -0.3541 -0.1525 -0.0967
14236TIP3    H142649   0.513   6.055   3.028 -0.4010 -0.5753 -0.0690
14236TIP3    H242650   0.592   6.134   2.926 -0.2651 -0.0107  0.4650
14237TIP3   OH242651   3.777   3.806   1.663 -0.4829  0.4901  0.5763
14237TIP3    H142652   3.866   3.797   1.629 -0.5401  0.2383  0.4889
14237TIP3    H242653   3.750   3.716   1.683 -1.1095  0.4408 -0.4001
14238TIP3   OH242654   5.012   7.854   4.464 -0.1846 -0.0630 -0.1138
14238TIP3    H142655   4.965   7.824   4.386  1.9566 -0.1430 -1.4633
14238TIP3    H242656   4.970   7.936   4.487  0.4499  1.1381 -2.7664
14239TIP3   OH242657   4.172   0.319   4.511 -0.1433  0.5190 -0.4422
14239TIP3    H142658   4.231   0.343   4.440 -0.3335  0.6846 -0.5427
14239TIP3    H242659   4.098   0.378   4.503 -0.8893 -0.4571 -1.0464
14240TIP3   OH242660   4.741   0.219   1.395 -0.4945  0.4175 -0.0203
14240TIP3    H142661   4.817   0.162   1.398 -1.0204 -0.2972 -0.1411
14240TIP3    H242662   4.749   0.273   1.474  0.6143  0.9868 -0.5029
14241TIP3   OH242663   7.708   2.240   3.816  0.4653  0.1519 -0.3526
14241TIP3    H142664   7.687   2.201   3.901  0.4881  2.5807  0.8520
14241TIP3    H242665   7.641   2.207   3.757 -0.5698 -0.2743  1.0134
14242TIP3   OH242666   5.035   6.737   4.990  0.1828 -0.4611  0.0625
14242TIP3    H142667   4.967   6.743   5.058 -1.3899 -0.5480 -1.4245
14242TIP3    H242668   5.007   6.800   4.924  0.1279 -2.3250 -1.7669
14243TIP3   OH242669   3.690   0.395   3.699  0.9417 -0.4987  0.6312
14243TIP3    H142670   3.695   0.370   3.607 -0.1707 -0.9761  0.6906
14243TIP3    H242671   3.766   0.353   3.740  2.2546  0.8593 -0.2989
14244TIP3   OH242672   4.690   6.249   3.169  0.0682  0.1951 -0.0328
14244TIP3    H142673   4.775   6.223   3.204 -0.5781  0.3888  1.8415
14244TIP3    H242674   4.635   6.171   3.181 -0.7000  0.9147  1.3796
14245TIP3   OH242675   2.086   5.587   3.420  0.3862  0.3083 -0.3004
14245TIP3    H142676   1.999   5.592   3.460 -0.1380  2.2080 -1.5365
14245TIP3    H242677   2.145   5.622   3.486  0.1374 -0.3605  0.2936
14246TIP3   OH242678   7.911   2.218   4.767  0.2456 -0.0882  0.0659
14246TIP3    H142679   7.970   2.290   4.743  1.2146 -1.1762 -0.9419
14246TIP3    H242680   7.845   2.217   4.698  0.4326 -0.3600 -0.1144
14247TIP3   OH242681   7.637   2.423   3.179 -0.1829 -0.1345 -0.7909
14247TIP3    H142682   7.628   2.373   3.260  0.3327  0.2097 -0.5116
14247TIP3    H242683   7.547   2.440   3.151 -0.4734  1.8891  1.0658
14248TIP3   OH242684   4.905   0.267   2.908 -0.1463  0.8535  1.0402
14248TIP3    H142685   4.878   0.337   2.967 -0.3292  0.2023  1.7475
14248TIP3    H242686   4.998   0.255   2.926 -0.5977 -0.7001  2.7077
14249TIP3   OH242687   1.707   5.262   4.719 -0.2481 -0.1471 -0.1684
14249TIP3    H142688   1.739   5.264   4.809  0.2956  1.3856 -0.3688
14249TIP3    H242689   1.772   5.211   4.672 -0.1131 -0.2766  0.1563
14250TIP3   OH242690   2.516   7.743   3.859  0.2228 -0.1755 -0.6100
14250TIP3    H142691   2.489   7.829   3.890 -0.9570 -1.2792  1.7672
14250TIP3    H242692   2.601   7.727   3.902 -0.4538 -0.8933  0.5352
14251TIP3   OH242693   5.483   3.616   6.100  0.2101  0.2678  0.0310
14251TIP3    H142694   5.424   3.659   6.163 -1.1519 -0.3719 -0.7742
14251TIP3    H242695   5.562   3.596   6.151 -0.6468  0.2468  1.3975
14252TIP3   OH242696   3.044   6.731   2.916  0.0184 -0.5050  0.3474
14252TIP3    H142697   2.996   6.813   2.908 -0.3166 -0.5119  1.9431
14252TIP3    H242698   3.093   6.724   2.835 -1.2511  0.4261 -0.5410
14253TIP3   OH242699   2.109   5.479   5.396 -0.0906  0.2355  0.4142
14253TIP3    H142700   2.035   5.443   5.445  1.7125 -1.4616  2.0496
14253TIP3    H242701   2.113   5.426   5.316  0.1063 -0.5469  0.9309
14254TIP3   OH242702   0.951   3.316   3.044 -0.6300  0.0839  0.2871
14254TIP3    H142703   0.912   3.342   2.961  0.1521  1.1670  0.2319
14254TIP3    H242704   0.923   3.225   3.057  0.2259 -0.5236 -1.7619
14255TIP3   OH242705   2.256   0.521   5.333 -0.2171 -0.0121  0.1908
14255TIP3    H142706   2.270   0.436   5.376 -0.9956 -0.9503 -1.3105
14255TIP3    H242707   2.333   0.531   5.277 -1.6315 -1.3959 -2.1492
14256TIP3   OH242708   7.365   2.381   3.028 -0.2139 -0.4550 -0.2017
14256TIP3    H142709   7.272   2.364   3.017 -0.5070 -1.0412  2.5466
14256TIP3    H242710   7.402   2.298   3.056  0.5589  0.4343  1.5809
14257TIP3   OH242711   2.906   0.980   6.044 -0.0462 -0.2856 -0.0129
14257TIP3    H142712   2.857   1.057   6.014 -0.3908  0.2234  1.7550
14257TIP3    H242713   2.965   1.014   6.111 -0.9083 -1.6834  1.5234
14258TIP3   OH242714   7.256   0.498   5.266 -0.0991  0.2581  0.7212
14258TIP3    H142715   7.307   0.442   5.207  1.7191  0.9164  1.5912
14258TIP3    H242716   7.177   0.447   5.284 -0.6336 -0.0756 -2.0297
14259TIP3   OH242717   7.098   5.996   5.732 -0.0320  0.2769 -0.2648
14259TIP3    H142718   7.104   5.959   5.820 -0.0978 -0.7694 -0.6883
14259TIP3    H242719   7.189   5.998   5.700 -0.1419 -0.5802 -0.6584
14260TIP3   OH242720   3.001   6.073   4.073  0.3651 -0.2440 -0.4445
14260TIP3    H142721   2.933   6.067   4.140 -1.4139 -0.6218 -2.1876
14260TIP3    H242722   2.990   6.160   4.035  1.4379  0.0123 -0.1913
14261TIP3   OH242723   4.857   1.736   0.045  0.2656 -0.9768 -0.1608
14261TIP3    H142724   4.879   1.780  -0.037 -1.7646  1.0172  0.2588
14261TIP3    H242725   4.935   1.747   0.100  0.5526  0.3323 -0.7911
14262TIP3   OH242726   4.912   7.904   2.468  0.3063  0.3708  0.1562
14262TIP3    H142727   4.928   7.999   2.462 -2.8787  1.0297  0.3921
14262TIP3    H242728   4.974   7.874   2.535 -0.0341  2.6997  1.6448
14263TIP3   OH242729   6.555   4.136   1.251  0.0954  0.0796 -0.0342
14263TIP3    H142730   6.601   4.071   1.199  1.6928 -0.7757  2.2520
14263TIP3    H242731   6.560   4.217   1.200  1.0323 -0.8190 -1.4203
14264TIP3   OH242732   4.426   5.740   4.034  0.0828 -0.0116  0.3328
14264TIP3    H142733   4.349   5.781   3.995  0.4174  0.2974 -0.0132
14264TIP3    H242734   4.452   5.673   3.970  0.1433 -0.0702  0.4183
14265TIP3   OH242735   4.544   4.100   0.551 -0.2526  0.0559 -0.3876
14265TIP3    H142736   4.452   4.127   0.549  0.0276  1.0000 -1.3477
14265TIP3    H242737   4.568   4.105   0.644 -1.3379 -0.8467 -0.0383
14266TIP3   OH242738   7.721   7.913   3.695 -0.0930  0.0848  0.1579
14266TIP3    H142739   7.648   7.971   3.716 -1.3419 -1.1127 -0.7478
14266TIP3    H242740   7.738   7.866   3.777 -0.6760 -0.0060  0.2286
14267TIP3   OH242741   8.236   6.743   1.137  0.2324  0.1938  0.4120
14267TIP3    H142742   8.166   6.726   1.200 -0.8253  0.9808 -0.5007
14267TIP3    H242743   8.233   6.838   1.123 -0.9250 -0.1415 -2.2859
14268TIP3   OH242744   6.552   2.398   5.421  0.7113 -0.3977  0.0915
14268TIP3    H142745   6.616   2.358   5.480  1.4200  0.4486 -0.0862
14268TIP3    H242746   6.563   2.350   5.339  1.4794  0.0592 -0.0862
14269TIP3   OH242747   8.322   1.331   2.611  0.1617  0.2940  0.6631
14269TIP3    H142748   8.256   1.263   2.591  0.6044 -0.5562  1.9998
14269TIP3    H242749   8.395   1.311   2.552  0.3235 -0.4670  1.1054
14270TIP3   OH242750   4.232   3.436   2.019 -0.0771  0.3925 -0.2029
14270TIP3    H142751   4.144   3.454   1.985  0.0218  1.5481  0.1304
14270TIP3    H242752   4.289   3.443   1.942 -0.1333  0.7965 -0.2094
14271TIP3   OH242753   8.334   6.959   5.884  0.5797  0.0819 -0.5095
14271TIP3    H142754   8.415   7.002   5.909  1.2531 -1.6563  0.4876
14271TIP3    H242755   8.273   7.030   5.864  1.8399  1.4405  0.3411
14272TIP3   OH242756   4.429   4.858   2.221  0.1097 -0.1039 -0.7934
14272TIP3    H142757   4.474   4.942   2.231  1.1854 -0.6197 -1.1078
14272TIP3    H242758   4.409   4.853   2.127  0.4263 -0.3760 -0.8494
14273TIP3   OH242759   8.014   7.564   5.433  0.0196 -0.5168  0.6342
14273TIP3    H142760   7.930   7.610   5.424  1.4527  2.0112 -1.3088
14273TIP3    H242761   8.032   7.566   5.527 -1.4337  0.1947  0.9325
14274TIP3   OH242762   5.001   4.918   5.234  0.1507  0.5118 -0.0668
14274TIP3    H142763   4.906   4.931   5.237  0.2576  1.6369 -0.8625
14274TIP3    H242764   5.030   4.943   5.322 -0.4319 -1.3892  0.7075
14275TIP3   OH242765   3.353   4.636   1.271 -0.4478  0.3143 -0.1191
14275TIP3    H142766   3.287   4.693   1.230 -1.9361 -0.2765  1.3332
14275TIP3    H242767   3.436   4.663   1.231 -1.6082  0.6650 -2.4897
14276TIP3   OH242768   2.234   7.834   1.224  0.5480  0.1613  0.2788
14276TIP3    H142769   2.229   7.743   1.196 -0.5386 -0.0057  0.9361
14276TIP3    H242770   2.228   7.885   1.143  0.8067 -0.3416 -0.0611
14277TIP3   OH242771   3.741   7.424   6.600  0.6732  0.2275  0.6506
14277TIP3    H142772   3.732   7.506   6.649  0.5305 -0.4509  1.8121
14277TIP3    H242773   3.829   7.393   6.621  0.9986  0.4240 -0.3604
14278TIP3   OH242774   7.323   2.657   6.640 -0.3488 -0.0486 -0.2372
14278TIP3    H142775   7.245   2.625   6.595  0.0737 -1.3620 -0.0800
14278TIP3    H242776   7.328   2.749   6.616 -2.2670  0.2218  0.2164
14279TIP3   OH242777   5.082   6.831   5.937  0.3234  0.5080 -0.5463
14279TIP3    H142778   5.020   6.783   5.991  1.6149 -1.1232 -0.4449
14279TIP3    H242779   5.098   6.913   5.985  0.1767 -0.1776  0.6974
14280TIP3   OH242780   2.771   6.204   2.912  0.0041 -0.0109 -0.5519
14280TIP3    H142781   2.765   6.188   2.818  0.9545 -1.4468 -0.4096
14280TIP3    H242782   2.682   6.227   2.938 -0.1873  0.8277 -1.8521
14281TIP3   OH242783   7.691   2.650   5.070  0.0231 -0.4822  0.0337
14281TIP3    H142784   7.707   2.559   5.098 -2.0207 -1.1695 -0.8276
14281TIP3    H242785   7.758   2.667   5.005  0.3702 -1.4241  0.1241
14282TIP3   OH242786   6.388   1.920   2.593  0.0099 -0.9882 -0.1235
14282TIP3    H142787   6.449   1.939   2.664 -2.2839  0.7417  1.5242
14282TIP3    H242788   6.427   1.962   2.516  0.4817  0.9201  1.0849
14283TIP3   OH242789   5.489   4.690   6.668  0.4816  0.8418  0.5288
14283TIP3    H142790   5.580   4.669   6.646  0.4794  1.0727  0.2903
14283TIP3    H242791   5.481   4.670   6.761  0.7385  0.6900  0.5189
14284TIP3   OH242792   4.041   7.085   1.251  0.8130 -0.8766  0.3178
14284TIP3    H142793   4.064   7.125   1.167  0.7945  0.6063  0.9970
14284TIP3    H242794   3.949   7.059   1.240 -0.3765  2.5950  1.0145
14285TIP3   OH242795   6.988   4.538   1.882  0.0301 -0.4103  0.1776
14285TIP3    H142796   6.908   4.588   1.866  0.3554  1.2290  2.9966
14285TIP3    H242797   7.010   4.558   1.973  3.3540 -1.2664 -0.3349
14286TIP3   OH242798   4.891   0.182   3.447  0.2385  0.1737  0.2618
14286TIP3    H142799   4.984   0.186   3.422  0.8284  0.6690  2.3343
14286TIP3    H242800   4.867   0.090   3.435  1.3685 -0.2265  0.8282
14287TIP3   OH242801   4.678   2.436   1.696 -0.1791  0.2864  0.0342
14287TIP3    H142802   4.731   2.361   1.670 -1.9998 -1.0098 -0.1964
14287TIP3    H242803   4.689   2.499   1.625  0.4208 -0.2938 -0.4017
14288TIP3   OH242804   8.206   0.222   2.407 -0.1645  0.6086 -0.4288
14288TIP3    H142805   8.175   0.132   2.416  0.3213  0.4142 -0.6868
14288TIP3    H242806   8.291   0.214   2.365 -0.0944  1.1875 -0.4019
14289TIP3   OH242807   2.433   6.239   4.632  0.1341  0.0894 -0.3310
14289TIP3    H142808   2.483   6.252   4.712  1.4659 -0.6221 -1.0201
14289TIP3    H242809   2.392   6.153   4.643  1.4415 -0.6412 -0.9610
14290TIP3   OH242810   4.412   1.073   3.396 -0.0708  0.1125 -0.0441
14290TIP3    H142811   4.458   1.133   3.337 -0.7615  0.8181  0.1130
14290TIP3    H242812   4.380   1.003   3.339  1.1267 -0.3553 -0.1636
14291TIP3   OH242813   5.636   5.788   5.113  0.2941  0.2190  0.0013
14291TIP3    H142814   5.683   5.869   5.131 -0.1606  0.3003  0.8453
14291TIP3    H242815   5.671   5.725   5.175  0.4748 -0.1768 -0.4923
14292TIP3   OH242816   1.304   5.731   2.270  0.0591  0.0898  0.3532
14292TIP3    H142817   1.305   5.826   2.278  2.7046  0.0874  0.8048
14292TIP3    H242818   1.315   5.699   2.359 -2.4272 -0.7678  0.4475
14293TIP3   OH242819   6.193   1.492   2.087  0.2324  0.0231  0.6795
14293TIP3    H142820   6.151   1.562   2.036 -0.2753 -0.7147  0.0560
14293TIP3    H242821   6.232   1.435   2.021  0.5333 -0.3479  1.1747
14294TIP3   OH242822   5.289   5.201   6.746  0.3393 -0.1563  0.6080
14294TIP3    H142823   5.344   5.190   6.824 -1.3982 -1.1161  1.7632
14294TIP3    H242824   5.311   5.127   6.690  0.1316 -0.6199  1.1305
14295TIP3   OH242825   6.064   7.669   2.121  0.1335  0.4207  0.1717
14295TIP3    H142826   5.972   7.670   2.093 -0.0929  2.7922  0.7392
14295TIP3    H242827   6.114   7.666   2.039 -0.4512 -0.0735 -0.1726
14296TIP3   OH242828   0.684   2.906   6.543 -0.2818  0.2555 -0.0488
14296TIP3    H142829   0.747   2.967   6.506  0.0593 -0.0996 -0.0543
14296TIP3    H242830   0.678   2.930   6.635 -0.0626  0.2224 -0.0266
14297TIP3   OH242831   1.012   0.129   4.173 -0.3113  0.0142 -0.3135
14297TIP3    H142832   0.998   0.213   4.218 -0.6176  0.2926 -0.9143
14297TIP3    H242833   0.952   0.132   4.098  0.4565 -0.2726 -0.9527
14298TIP3   OH242834   0.680   6.553   1.521 -0.1708  0.0209 -0.0085
14298TIP3    H142835   0.654   6.481   1.463  0.8517 -1.6590  1.5018
14298TIP3    H242836   0.600   6.576   1.568 -0.4017 -0.5061 -0.1314
14299TIP3   OH242837   8.170   1.539   3.901 -0.5610 -0.6142 -0.2024
14299TIP3    H142838   8.114   1.601   3.947  0.2232  0.7034 -0.9541
14299TIP3    H242839   8.119   1.512   3.825 -0.0535  0.9858 -1.1738
14300TIP3   OH242840   8.063   1.575   3.161  0.3458  0.4231  0.6083
14300TIP3    H142841   8.096   1.642   3.101  0.9200 -0.8439 -0.5460
14300TIP3    H242842   8.142   1.541   3.204  0.4157 -1.3328 -0.7964
14301TIP3   OH242843   1.112   0.544   2.967  0.0039  0.0160  0.4872
14301TIP3    H142844   1.088   0.469   2.912 -3.3570 -0.4474  2.2860
14301TIP3    H242845   1.156   0.505   3.043 -1.6894 -0.2665  1.3932
14302TIP3   OH242846   3.959   5.419   0.251 -0.5265  0.5927 -0.4540
14302TIP3    H142847   4.000   5.332   0.247 -2.1856 -0.3040  0.8230
14302TIP3    H242848   3.989   5.455   0.335 -0.1945  1.0886 -0.7790
14303TIP3   OH242849   4.248   2.810   3.505  0.2192 -0.1002  0.1728
14303TIP3    H142850   4.269   2.875   3.571  0.9879  0.4332 -0.5851
14303TIP3    H242851   4.173   2.846   3.458  0.7453  0.3304 -0.3517
14304TIP3   OH242852   5.019   4.411   6.305  0.0777  0.4128  0.2536
14304TIP3    H142853   4.987   4.475   6.369  1.3816 -1.2988  2.7684
14304TIP3    H242854   5.111   4.433   6.294 -0.1883  0.8738 -1.3724
14305TIP3   OH242855   7.498   6.708   0.125 -0.5380 -0.2739  0.3500
14305TIP3    H142856   7.538   6.658   0.054  1.0079  1.7720 -0.3331
14305TIP3    H242857   7.571   6.758   0.162 -1.5399 -0.4066  2.6377
14306TIP3   OH242858   0.181   0.710   1.886 -0.4559 -0.2962 -0.1613
14306TIP3    H142859   0.163   0.680   1.975 -1.4775 -2.0017 -0.8970
14306TIP3    H242860   0.121   0.659   1.831  1.0700 -0.2343 -1.9627
14307TIP3   OH242861   2.919   2.975   1.390 -0.4169 -0.0508  0.2350
14307TIP3    H142862   2.860   2.903   1.371 -1.3190  0.7690 -0.1549
14307TIP3    H242863   2.887   3.047   1.336  0.8512  0.4566  0.1314
14308TIP3   OH242864   3.226   5.551   1.359  0.0895  0.2798  0.1557
14308TIP3    H142865   3.134   5.524   1.359  0.6475 -1.8113 -0.9353
14308TIP3    H242866   3.233   5.610   1.284 -0.0005 -1.1510 -1.0335
14309TIP3   OH242867   8.161   0.961   5.590 -0.1233  0.0708 -0.1929
14309TIP3    H142868   8.127   1.031   5.534  1.2511  1.2499  0.3724
14309TIP3    H242869   8.088   0.937   5.647 -0.0442  2.6430  1.1282
14310TIP3   OH242870   0.481   1.071   4.757 -0.2137  0.2012  0.2813
14310TIP3    H142871   0.476   0.975   4.755 -0.4619  0.1970  0.7783
14310TIP3    H242872   0.391   1.098   4.775 -0.5159  0.6038 -1.5823
14311TIP3   OH242873   3.284   2.978   4.745 -0.5958  0.5202 -0.3611
14311TIP3    H142874   3.369   3.012   4.772 -0.3004  0.1752 -0.8417
14311TIP3    H242875   3.257   3.035   4.672 -0.5154  0.2858 -0.5768
14312TIP3   OH242876   7.057   0.989   6.878  0.8311 -0.3822 -0.5092
14312TIP3    H142877   7.057   0.902   6.919 -0.0631 -0.6056 -0.9531
14312TIP3    H242878   7.066   0.971   6.785  0.0263 -0.0317 -0.6591
14313TIP3   OH242879   2.854   2.546   4.185 -0.7293 -0.2851  0.0333
14313TIP3    H142880   2.930   2.577   4.137 -0.2386 -0.5958  0.5986
14313TIP3    H242881   2.890   2.494   4.257 -1.4952 -1.1832 -0.2028
14314TIP3   OH242882   2.888   2.719   0.596  0.0894  0.2879 -0.8968
14314TIP3    H142883   2.895   2.691   0.688 -2.0212  0.2596 -0.6769
14314TIP3    H242884   2.965   2.682   0.553  0.2485 -1.1365  0.5248
14315TIP3   OH242885   2.172   0.092   4.760  0.4166  0.0639 -0.4518
14315TIP3    H142886   2.241   0.154   4.784  0.0876  0.4846 -0.5890
14315TIP3    H242887   2.111   0.096   4.833  0.5005 -0.2627 -0.3608
14316TIP3   OH242888   3.274   7.539   3.808 -0.0961 -0.0631 -0.4069
14316TIP3    H142889   3.281   7.591   3.888  1.3369 -1.5020  0.4797
14316TIP3    H242890   3.334   7.581   3.747 -1.3109  1.1347 -0.8264
14317TIP3   OH242891   6.569   3.333   1.687  0.3584 -0.2411  0.0338
14317TIP3    H142892   6.660   3.341   1.716  0.2498  1.7376 -0.0664
14317TIP3    H242893   6.525   3.410   1.723 -1.6565 -1.8648  1.2899
14318TIP3   OH242894   0.882   2.878   5.982 -0.1105  0.1315 -0.1701
14318TIP3    H142895   0.812   2.895   6.046 -0.3920  1.5385 -0.8143
14318TIP3    H242896   0.836   2.855   5.901  0.2333 -0.9162 -0.0864
14319TIP3   OH242897   8.138   0.847   6.635 -0.2258  0.3292 -0.0457
14319TIP3    H142898   8.124   0.925   6.581 -1.2299  2.1456  2.5913
14319TIP3    H242899   8.181   0.880   6.714 -0.2041 -1.8893  0.9565
14320TIP3   OH242900   7.503   2.610  -0.020  0.2445  0.1483  0.2474
14320TIP3    H142901   7.544   2.580   0.062  1.2295  1.1411  0.1383
14320TIP3    H242902   7.524   2.703  -0.025  0.0420  0.1400 -1.0604
14321TIP3   OH242903   6.850   5.733   4.234  0.1094  0.0334  0.0726
14321TIP3    H142904   6.799   5.757   4.156  0.2486 -0.8509 -0.3069
14321TIP3    H242905   6.918   5.800   4.240 -1.1984  1.3812  0.7202
14322TIP3   OH242906   2.162   6.003   0.729 -0.4224 -0.0292  0.0234
14322TIP3    H142907   2.186   6.053   0.651  2.0844  1.1998  1.4696
14322TIP3    H242908   2.139   6.068   0.794 -0.2146 -0.8925  0.9970
14323TIP3   OH242909   8.367   1.930   0.669 -0.1866 -0.3809 -0.4552
14323TIP3    H142910   8.319   1.867   0.616  0.5916 -0.5897 -0.9358
14323TIP3    H242911   8.448   1.945   0.620  1.8627 -2.6410  1.9020
14324TIP3   OH242912   7.333   4.261   2.179 -0.0259  0.8620 -0.0137
14324TIP3    H142913   7.317   4.243   2.272  1.5401 -1.2805 -0.0740
14324TIP3    H242914   7.249   4.244   2.137 -0.1419 -0.7039  0.7471
14325TIP3   OH242915   8.198   5.235   0.661 -0.2890 -0.2504  0.4520
14325TIP3    H142916   8.150   5.314   0.685 -0.0961  0.0520 -0.1380
14325TIP3    H242917   8.227   5.251   0.571 -1.2665 -1.4866 -0.1063
14326TIP3   OH242918   6.746   1.293   1.283 -0.1917 -0.0776 -0.1942
14326TIP3    H142919   6.671   1.297   1.224 -1.1112 -0.3538  0.9249
14326TIP3    H242920   6.711   1.257   1.364  1.0583  0.2270  0.5045
14327TIP3   OH242921   1.310   6.839   1.283 -0.4006 -0.1485  0.4745
14327TIP3    H142922   1.218   6.815   1.295 -0.9332  1.3553 -0.3477
14327TIP3    H242923   1.329   6.816   1.192  0.5348 -1.8870  1.0553
14328TIP3   OH242924   4.734   4.085   1.725 -0.2424  0.1393 -0.1045
14328TIP3    H142925   4.708   4.177   1.725  0.8901  0.4819 -1.5987
14328TIP3    H242926   4.657   4.039   1.760 -1.1593  1.5504 -0.1793
14329TIP3   OH242927   5.644   0.430   5.808  0.2723 -0.2826 -0.0642
14329TIP3    H142928   5.706   0.498   5.781 -0.9975  0.1554 -2.0818
14329TIP3    H242929   5.690   0.348   5.790  0.7870  0.0258 -0.1868
14330TIP3   OH242930   6.001   5.390   1.726  0.3363 -0.1832 -0.2022
14330TIP3    H142931   5.973   5.469   1.680 -1.0607 -0.3470  0.3224
14330TIP3    H242932   5.957   5.319   1.682  0.5562 -0.5423  0.1481
14331TIP3   OH242933   2.077   2.924   3.594  0.1358 -0.2205  0.0344
14331TIP3    H142934   2.129   2.906   3.673 -1.0696  0.1046  0.9456
14331TIP3    H242935   2.082   2.843   3.543  0.1527 -0.7893  0.9135
14332TIP3   OH242936   3.889   2.234   1.464 -0.4415 -0.2180 -0.3823
14332TIP3    H142937   3.843   2.293   1.523 -0.0612  0.3851 -0.6812
14332TIP3    H242938   3.949   2.186   1.520  0.0224  0.4557 -0.2905
14333TIP3   OH242939   1.093   1.303   0.138 -0.1945  0.3804 -0.0463
14333TIP3    H142940   1.141   1.383   0.118  0.1315  0.4062  0.8093
14333TIP3    H242941   1.147   1.257   0.203  0.7883 -1.6839 -2.1741
14334TIP3   OH242942   4.674   2.661   0.136  0.2764 -0.0174  0.3533
14334TIP3    H142943   4.767   2.648   0.117  0.2835  1.0839 -0.4649
14334TIP3    H242944   4.664   2.633   0.227  1.8721  1.8807  1.1853
14335TIP3   OH242945   1.145   6.479   0.968  0.0272  0.6387 -0.0049
14335TIP3    H142946   1.158   6.425   0.890  2.1977 -0.6367  1.1548
14335TIP3    H242947   1.219   6.539   0.968 -0.1298  0.8504  0.9037
14336TIP3   OH242948   7.687   1.785   2.037  0.4268 -0.3918  0.5826
14336TIP3    H142949   7.707   1.701   1.997  1.4766  0.4811 -0.8274
14336TIP3    H242950   7.598   1.805   2.008  0.1320 -1.0356  1.0103
14337TIP3   OH242951   7.438   4.520   2.013 -0.1127 -0.2231  0.2018
14337TIP3    H142952   7.398   4.454   2.070 -1.9894 -0.3374 -1.1127
14337TIP3    H242953   7.411   4.494   1.924 -0.8687  2.2385 -0.3743
14338TIP3   OH242954   0.692   7.833   1.313 -0.4137  0.9151  0.1534
14338TIP3    H142955   0.694   7.749   1.358 -1.0201  1.1270  0.5854
14338TIP3    H242956   0.623   7.882   1.356  0.4064  1.9013  0.3781
14339TIP3   OH242957   4.977   5.665   5.810 -0.2152  0.3068 -0.6919
14339TIP3    H142958   4.984   5.741   5.752  1.0481 -0.6299 -1.8174
14339TIP3    H242959   5.012   5.593   5.759 -0.8615 -0.9410  0.5683
14340TIP3   OH242960   1.310   3.250   0.295  0.1863 -0.1087  0.3036
14340TIP3    H142961   1.351   3.259   0.209 -1.3374 -0.4971 -0.5039
14340TIP3    H242962   1.218   3.275   0.280  0.0601  0.5548  1.9874
14341TIP3   OH242963   3.139   5.429   3.475  0.0859 -0.3512 -0.1644
14341TIP3    H142964   3.167   5.516   3.448 -0.8199 -0.3285 -1.1215
14341TIP3    H242965   3.217   5.374   3.465 -0.1529 -0.3431 -2.9948
14342TIP3   OH242966   8.221   0.449   6.268  0.4069 -0.6526 -0.3331
14342TIP3    H142967   8.300   0.398   6.281  1.3272  1.2373  2.1777
14342TIP3    H242968   8.162   0.421   6.338  1.0629  1.7959  1.3289
14343TIP3   OH242969   1.134   4.298   5.578  0.3332  0.1488  0.0750
14343TIP3    H142970   1.193   4.264   5.646 -0.1618 -1.4006 -0.2175
14343TIP3    H242971   1.065   4.343   5.627  1.1217  0.9737  0.4724
14344TIP3   OH242972   5.393   4.912   6.385 -0.2005 -0.3201  0.0653
14344TIP3    H142973   5.419   4.927   6.475 -1.3070  1.4767  0.1397
14344TIP3    H242974   5.303   4.881   6.391  0.3631 -2.2002 -0.3765
14345TIP3   OH242975   5.647   1.076   1.452  0.1467 -0.1131 -0.0746
14345TIP3    H142976   5.722   1.024   1.425 -0.5177 -0.2518 -1.7424
14345TIP3    H242977   5.653   1.079   1.548  1.5974 -1.1063 -0.1109
14346TIP3   OH242978   2.580   5.049   4.575 -0.3043  0.3496 -0.3613
14346TIP3    H142979   2.596   5.129   4.525 -0.8587  1.2132  0.7847
14346TIP3    H242980   2.635   5.058   4.652  0.5320 -0.9568 -0.7830
14347TIP3   OH242981   3.321   1.163   6.020 -0.1017 -0.0041 -0.4914
14347TIP3    H142982   3.398   1.107   6.008  1.0891  1.7171 -1.2836
14347TIP3    H242983   3.311   1.170   6.115  0.5288 -0.5108 -0.3809
14348TIP3   OH242984   1.872   3.440   4.509  0.0692  0.4889 -0.2538
14348TIP3    H142985   1.777   3.447   4.512 -0.1428 -1.5927 -0.6031
14348TIP3    H242986   1.894   3.453   4.417  0.3241  2.5382  0.0530
14349TIP3   OH242987   4.474   1.000   0.651 -0.5494 -0.0571  0.0219
14349TIP3    H142988   4.515   0.958   0.727 -0.5864  0.9722  0.6265
14349TIP3    H242989   4.434   0.928   0.602  0.9452 -0.9544  0.0455
14350TIP3   OH242990   0.825   7.183   1.809 -0.2408  0.3360  0.4679
14350TIP3    H142991   0.834   7.268   1.765  0.2915  1.6168  2.9035
14350TIP3    H242992   0.752   7.195   1.870  0.7651 -0.4349  1.8828
14351TIP3   OH242993   6.995   7.812   2.467 -0.6246  0.5165 -0.2806
14351TIP3    H142994   7.020   7.760   2.543 -0.8986 -1.3091 -1.3970
14351TIP3    H242995   7.072   7.866   2.449 -0.9266  1.7802  1.8894
14352TIP3   OH242996   5.639   4.671   4.820 -0.0562  0.0876 -0.1090
14352TIP3    H142997   5.608   4.755   4.852 -2.4288 -0.1572 -1.4804
14352TIP3    H242998   5.561   4.615   4.819  1.9408 -3.3576  3.9805
14353TIP3   OH242999   3.309   7.218   5.453  0.3868 -0.0199  0.5857
14353TIP3    H143000   3.364   7.210   5.531 -1.7416 -0.2052  2.1734
14353TIP3    H243001   3.239   7.279   5.479  0.1820  0.7399 -1.5547
14354TIP3   OH243002   2.892   1.889   4.052  0.4378 -0.0804  0.1788
14354TIP3    H143003   2.959   1.957   4.060 -0.1721  0.3691  1.9814
14354TIP3    H243004   2.842   1.913   3.974  1.8412  0.0363 -0.7129
14355TIP3   OH243005   0.918   7.055   2.884  0.3007  0.3804  0.4026
14355TIP3    H143006   0.979   7.069   2.811  0.5019 -1.1090  0.2522
14355TIP3    H243007   0.971   7.013   2.952 -0.7757 -2.1245 -0.2098
14356TIP3   OH243008   4.043   5.838   1.687  0.0245 -0.1003  0.2982
14356TIP3    H143009   4.085   5.918   1.655 -0.2975 -0.3784 -0.8432
14356TIP3    H243010   4.116   5.777   1.701  0.2129  0.1894  0.6031
14357TIP3   OH243011   8.282   4.821   5.944 -0.1687 -0.3557 -0.4514
14357TIP3    H143012   8.373   4.810   5.972 -1.0456 -1.5926  2.2767
14357TIP3    H243013   8.281   4.901   5.893  1.8269  1.9359  2.7594
14358TIP3   OH243014   6.538   3.015   2.840  0.4508 -0.1637  0.2152
14358TIP3    H143015   6.459   3.062   2.870  0.9817  0.9706 -0.1079
14358TIP3    H243016   6.509   2.967   2.763  0.1121  0.4213 -0.0340
14359TIP3   OH243017   7.770   4.317   1.351  0.4467  0.3443 -0.1323
14359TIP3    H143018   7.705   4.252   1.379  0.7801  0.0747  0.0225
14359TIP3    H243019   7.798   4.359   1.432  2.9136 -1.8191  0.2901
14360TIP3   OH243020   1.933   3.150   5.638  0.0386 -0.0413 -0.0714
14360TIP3    H143021   1.954   3.154   5.731  0.4030  1.0592 -0.1856
14360TIP3    H243022   2.016   3.168   5.594 -0.4076  0.8744 -0.5795
14361TIP3   OH243023   8.145   4.736   1.082  0.1548  0.3287  0.4081
14361TIP3    H143024   8.163   4.744   0.988  0.7977  3.6169  0.6743
14361TIP3    H243025   8.050   4.747   1.089 -0.0085 -0.8281  0.0980
14362TIP3   OH243026   1.294   2.126   2.848  0.1707  0.2980 -0.2758
14362TIP3    H143027   1.351   2.059   2.885 -1.0918 -0.4510  0.3522
14362TIP3    H243028   1.331   2.144   2.761 -0.4110 -2.4558 -1.1794
14363TIP3   OH243029   6.737   7.165   6.595 -0.3520 -0.9822  0.0514
14363TIP3    H143030   6.749   7.081   6.549  0.2284 -1.4101  0.9684
14363TIP3    H243031   6.644   7.182   6.588 -0.3220 -1.1500 -1.0895
14364TIP3   OH243032   5.819   3.195   4.726  0.5393 -0.6727 -0.7650
14364TIP3    H143033   5.738   3.179   4.774  0.5175 -0.2452 -0.6546
14364TIP3    H243034   5.795   3.183   4.634  0.3927 -0.7136 -0.7222
14365TIP3   OH243035   3.808   1.776   4.997  0.5197  0.0702 -0.1332
14365TIP3    H143036   3.899   1.755   4.977  1.3096  0.9511  2.1422
14365TIP3    H243037   3.813   1.828   5.078 -2.0296 -0.1688  0.2621
14366TIP3   OH243038   1.624   6.437   3.686  0.0669 -0.0308  0.0273
14366TIP3    H143039   1.545   6.384   3.675  1.2637 -1.4509 -2.3077
14366TIP3    H243040   1.686   6.379   3.730  1.3851 -0.7213 -2.5436
14367TIP3   OH243041   4.004   6.120   0.277 -0.0827  0.2320 -0.0785
14367TIP3    H143042   4.001   6.166   0.194  1.9130 -1.0877 -0.9608
14367TIP3    H243043   3.938   6.051   0.268  1.0263 -0.7369 -1.1509
14368TIP3   OH243044   6.871   6.701   1.097  0.3211 -0.6292 -1.0377
14368TIP3    H143045   6.865   6.782   1.046  0.5533  0.7195  0.9672
14368TIP3    H243046   6.782   6.683   1.125  0.4749 -0.1783 -0.2182
14369TIP3   OH243047   7.513   2.042   4.474  0.3804  0.3396  0.0339
14369TIP3    H143048   7.476   1.964   4.515  1.6243 -0.3951 -0.1976
14369TIP3    H243049   7.528   2.017   4.383 -0.0186  1.1379 -0.2559
14370TIP3   OH243050   0.234   0.499   0.907 -0.2656  0.0906 -0.1412
14370TIP3    H143051   0.326   0.518   0.892 -0.2594 -0.9461 -1.5715
14370TIP3    H243052   0.198   0.580   0.944  1.4527  0.1115  1.6526
14371TIP3   OH243053   7.110   7.737   0.980  0.2022  0.1313 -0.0949
14371TIP3    H143054   7.148   7.795   1.045 -0.1183  0.6582 -0.3681
14371TIP3    H243055   7.157   7.654   0.991  0.6422  0.4295  0.3225
14372TIP3   OH243056   7.646   5.232   3.926 -0.0127 -0.6953 -0.2589
14372TIP3    H143057   7.557   5.201   3.907 -0.1782 -0.5984  0.3159
14372TIP3    H243058   7.694   5.154   3.953  0.1348 -0.7816 -0.7727
14373TIP3   OH243059   2.726   7.122   1.934  0.1092  0.3821  0.3602
14373TIP3    H143060   2.791   7.169   1.882  1.6489 -0.8890  1.0607
14373TIP3    H243061   2.729   7.032   1.902 -0.9742  0.1913  0.7342
14374TIP3   OH243062   5.667   5.016   2.638  0.6926 -0.1477  0.3782
14374TIP3    H143063   5.663   5.103   2.597  1.0781 -0.5632 -0.5578
14374TIP3    H243064   5.684   4.956   2.566  0.3465 -1.0211  1.0086
14375TIP3   OH243065   6.209   3.669   6.227 -0.3325  0.4302 -0.1168
14375TIP3    H143066   6.244   3.690   6.140 -1.3237 -0.0656 -0.6551
14375TIP3    H243067   6.159   3.747   6.252 -0.2528  0.4761 -0.0995
14376TIP3   OH243068   5.250   0.189   1.244  0.5528  0.5887  0.2596
14376TIP3    H143069   5.181   0.221   1.185  0.1403 -0.9658 -0.1379
14376TIP3    H243070   5.203   0.149   1.317  0.8564 -3.0292 -1.3373
14377TIP3   OH243071   0.302   4.387   4.160  0.0407  0.1591 -0.0112
14377TIP3    H143072   0.392   4.420   4.168 -0.0698  0.3377  0.5355
14377TIP3    H243073   0.250   4.463   4.136 -0.4075  0.7133  2.3810
14378TIP3   OH243074   1.210   5.512   1.810 -0.5050 -0.0418 -0.1635
14378TIP3    H143075   1.198   5.445   1.878  1.5577  0.6578  0.9605
14378TIP3    H243076   1.148   5.581   1.834  1.0470  0.7628  1.8278
14379TIP3   OH243077   5.184   0.503   3.316  0.2554  0.3702 -0.3624
14379TIP3    H143078   5.114   0.454   3.359 -1.5585  1.5014 -1.9009
14379TIP3    H243079   5.205   0.574   3.378  1.1055 -0.8077  0.7399
14380TIP3   OH243080   7.601   6.143   5.030 -0.0214 -0.5023 -0.5793
14380TIP3    H143081   7.672   6.190   4.986  0.6653 -1.3287 -0.3674
14380TIP3    H243082   7.543   6.212   5.061  1.3760  0.2677  0.4343
14381TIP3   OH243083   0.312   2.226   0.484  0.2963 -0.4952  0.4069
14381TIP3    H143084   0.291   2.290   0.552  0.0527  0.2128 -0.3148
14381TIP3    H243085   0.363   2.276   0.420  1.3388 -1.3787  0.5162
14382TIP3   OH243086   7.340   5.309   4.504 -0.2991 -0.2024 -0.0585
14382TIP3    H143087   7.255   5.267   4.516  0.6187 -1.8758  0.8345
14382TIP3    H243088   7.367   5.336   4.592  0.4144 -0.3359 -0.2248
14383TIP3   OH243089   0.226   0.491   5.277 -0.9533 -0.4338 -0.5133
14383TIP3    H143090   0.292   0.554   5.306 -0.2443 -1.7849  0.9965
14383TIP3    H243091   0.142   0.533   5.295 -0.5040  0.4305 -0.4014
14384TIP3   OH243092   6.458   5.860   0.432  0.0189 -0.0030 -0.0103
14384TIP3    H143093   6.428   5.881   0.344 -1.1750 -2.4720 -0.2854
14384TIP3    H243094   6.378   5.838   0.480  0.9268 -2.1805  0.6153
14385TIP3   OH243095   1.598   4.924   1.841 -0.7701 -0.8601  0.1904
14385TIP3    H143096   1.546   4.851   1.806 -1.8961 -0.5999  1.2586
14385TIP3    H243097   1.627   4.893   1.927 -0.4871 -0.3795  0.2697
14386TIP3   OH243098   5.576   6.934   6.242 -0.4737 -0.0608 -0.5132
14386TIP3    H143099   5.584   7.019   6.199  0.9861 -0.2061 -0.5882
14386TIP3    H243100   5.630   6.942   6.321  0.2547 -1.1365 -0.8793
14387TIP3   OH243101   4.883   3.857   0.766  0.3126  0.0302  0.3106
14387TIP3    H143102   4.958   3.801   0.746  0.1890  0.1623 -0.5371
14387TIP3    H243103   4.807   3.807   0.739  0.1691  0.3808  0.0500
14388TIP3   OH243104   4.219   1.158   4.977 -0.3528 -0.1515  0.4058
14388TIP3    H143105   4.158   1.214   5.025 -0.9829 -0.0961 -0.4441
14388TIP3    H243106   4.164   1.091   4.937 -0.4231  2.0004 -3.4917
14389TIP3   OH243107   7.958   4.023   2.486 -0.2390  0.2209  0.3575
14389TIP3    H143108   7.935   4.031   2.393  0.3151  1.7264  0.3206
14389TIP3    H243109   7.920   4.102   2.526 -0.2573 -0.2916  1.3691
14390TIP3   OH243110   5.412   4.653   5.395  0.0547 -0.0528  0.2869
14390TIP3    H143111   5.420   4.747   5.409 -0.4570 -0.0393  0.5049
14390TIP3    H243112   5.388   4.645   5.302 -0.8586  0.0866  0.5043
14391TIP3   OH243113   0.695   5.559   4.694  0.2306  0.2348  0.7007
14391TIP3    H143114   0.688   5.646   4.734  1.2590  1.0456 -0.8258
14391TIP3    H243115   0.636   5.563   4.619  0.5456 -0.2765  0.4280
14392TIP3   OH243116   1.108   5.760   2.849 -0.1472 -0.5306 -0.0083
14392TIP3    H143117   1.144   5.790   2.765 -1.3153 -0.1013 -0.3868
14392TIP3    H243118   1.039   5.824   2.869  0.8905  0.0824  1.8995
14393TIP3   OH243119   3.910   5.280   3.418  0.3158  0.0547  0.3079
14393TIP3    H143120   3.847   5.208   3.424  0.5222 -0.2372 -0.7841
14393TIP3    H243121   3.859   5.352   3.381  0.8939 -0.6001 -1.9395
14394TIP3   OH243122   4.263   1.091   2.535 -0.4152 -0.4130 -0.1378
14394TIP3    H143123   4.210   1.025   2.580 -0.2761 -0.6962 -0.3937
14394TIP3    H243124   4.353   1.059   2.542  0.0334  1.1048  2.1853
14395TIP3   OH243125   2.276   6.096   1.743  0.2139 -0.1407  0.3349
14395TIP3    H143126   2.303   6.032   1.677 -0.2046  1.1360 -1.1214
14395TIP3    H243127   2.357   6.143   1.765 -0.2134  1.8371 -1.9920
14396TIP3   OH243128   8.277   7.293   3.754  0.3556  0.7122  0.5286
14396TIP3    H143129   8.311   7.216   3.800 -0.7283  0.1580  0.4212
14396TIP3    H243130   8.287   7.364   3.817 -0.1754  0.1596  1.2601
14397TIP3   OH243131   4.517   7.165   4.623 -0.0638 -0.1137 -0.2170
14397TIP3    H143132   4.581   7.125   4.681  0.7234  2.6761  1.0086
14397TIP3    H243133   4.570   7.209   4.556 -0.8310 -0.2196 -0.9058
14398TIP3   OH243134   1.355   4.906   3.532  0.5467 -0.6726  0.7832
14398TIP3    H143135   1.448   4.918   3.513  0.6357 -0.4673  1.3549
14398TIP3    H243136   1.310   4.950   3.459  0.8920 -0.9929  0.3712
14399TIP3   OH243137   3.668   6.635   1.395  0.0750 -0.1032 -0.4951
14399TIP3    H143138   3.656   6.631   1.300  2.4855  2.5068 -1.0592
14399TIP3    H243139   3.740   6.575   1.413  0.5784  0.4639 -0.5782
14400TIP3   OH243140   2.928   7.669   1.305 -0.0849  0.1734 -0.1485
14400TIP3    H143141   2.978   7.716   1.372  1.6713  0.2510 -1.4642
14400TIP3    H243142   2.911   7.734   1.237 -1.0521 -0.1462 -0.2390
14401TIP3   OH243143   0.921   6.105   1.241  0.1471  0.0889 -0.2784
14401TIP3    H143144   0.883   6.192   1.232 -2.1244 -0.7720  0.3156
14401TIP3    H243145   1.000   6.119   1.295 -1.2988  1.5466  1.6014
14402TIP3   OH243146   0.324   4.501   1.880 -0.4990  0.1183 -0.0795
14402TIP3    H143147   0.301   4.456   1.961 -2.2831 -0.0633 -0.6315
14402TIP3    H243148   0.245   4.494   1.826  0.5407  0.5191 -1.7040
14403TIP3   OH243149   3.765   6.380   4.072  0.3094  0.0643 -0.0509
14403TIP3    H143150   3.684   6.330   4.068 -0.8911  2.0056 -1.9433
14403TIP3    H243151   3.778   6.397   4.165 -2.4725  1.2344  0.2153
14404TIP3   OH243152   1.220   1.868   1.090 -0.0062  0.2185  0.1088
14404TIP3    H143153   1.244   1.922   1.166 -0.3694 -1.0985  1.1951
14404TIP3    H243154   1.131   1.838   1.109  0.1734 -0.7214 -0.4891
14405TIP3   OH243155   5.703   3.633   1.119 -0.2809 -0.1823 -0.3603
14405TIP3    H143156   5.616   3.609   1.087 -0.3641 -0.4453  0.0529
14405TIP3    H243157   5.755   3.646   1.039 -0.6578 -0.1710 -0.6060
14406TIP3   OH243158   1.917   1.432   6.256  0.4556 -0.3460 -0.8156
14406TIP3    H143159   1.993   1.490   6.248 -0.2410  0.7951  0.5231
14406TIP3    H243160   1.948   1.348   6.221  2.5033 -0.0565  0.1190
14407TIP3   OH243161   8.098   5.962   4.742 -0.3779  0.3732  0.1186
14407TIP3    H143162   8.114   6.045   4.697  0.4671 -0.8028 -1.8788
14407TIP3    H243163   8.108   5.895   4.674  0.8104 -1.5279  2.0468
14408TIP3   OH243164   2.249   0.419   0.452 -0.0149 -0.2920 -0.4013
14408TIP3    H143165   2.246   0.513   0.471 -1.1851 -0.4230  0.1521
14408TIP3    H243166   2.264   0.379   0.538  0.0077 -0.6354 -0.5663
14409TIP3   OH243167   5.208   1.801   2.759 -0.5179 -0.8234  0.7550
14409TIP3    H143168   5.176   1.876   2.708 -0.8785 -2.1647 -1.0838
14409TIP3    H243169   5.131   1.745   2.769  0.0864 -1.6728  0.7528
14410TIP3   OH243170   2.056   3.211   1.960  0.1044  0.7685 -0.6576
14410TIP3    H143171   2.137   3.179   1.997 -0.5963  0.8033  0.9981
14410TIP3    H243172   2.035   3.289   2.012 -0.6912  1.1015 -1.4445
14411TIP3   OH243173   7.525   4.062   2.045 -0.1832  0.2407 -0.5859
14411TIP3    H143174   7.558   4.075   2.134  0.0684  0.9431 -0.7787
14411TIP3    H243175   7.433   4.088   2.049 -1.1488 -2.8124  0.2354
14412TIP3   OH243176   1.505   7.370   1.361  0.1930  0.1319 -0.4367
14412TIP3    H143177   1.512   7.358   1.266  1.6401 -0.0296 -0.3210
14412TIP3    H243178   1.595   7.374   1.392 -0.2282 -1.4116  1.1434
14413TIP3   OH243179   1.146   4.136   0.509  0.0341  0.0147 -0.0691
14413TIP3    H143180   1.190   4.105   0.429 -0.7644 -1.2413 -0.0549
14413TIP3    H243181   1.054   4.144   0.484  0.3062  3.5480 -0.3661
14414TIP3   OH243182   6.702   5.225   4.050  0.2686  0.1874  0.1972
14414TIP3    H143183   6.658   5.222   4.135  1.7175  1.4964  1.0546
14414TIP3    H243184   6.781   5.173   4.062  1.0806  1.3341  0.0714
14415TIP3   OH243185   6.718   1.602   6.609  0.0499 -0.4728  0.1663
14415TIP3    H143186   6.668   1.656   6.548  0.9160 -0.5330 -0.6138
14415TIP3    H243187   6.803   1.645   6.615 -0.0525 -0.4261  1.4074
14416TIP3   OH243188   5.208   5.531   0.483  0.2286  0.1579  0.1339
14416TIP3    H143189   5.170   5.598   0.427 -1.5763 -1.1276 -0.2744
14416TIP3    H243190   5.240   5.464   0.423  1.0823  0.1619  0.5673
14417TIP3   OH243191   6.044   3.118   4.866 -0.2032  0.0060  0.3513
14417TIP3    H143192   6.025   3.190   4.926  0.2734  0.8196 -0.4549
14417TIP3    H243193   5.969   3.116   4.807  0.5467  0.9851 -0.6901
14418TIP3   OH243194   2.282   6.468   4.604  0.0171  0.7060 -0.1222
14418TIP3    H143195   2.192   6.439   4.621  0.1342 -0.0208 -0.7322
14418TIP3    H243196   2.335   6.389   4.614  0.6800  1.2553  0.8603
14419TIP3   OH243197   0.911   5.720   6.508  0.2210 -0.3037  0.2836
14419TIP3    H143198   0.993   5.766   6.486 -0.2600  1.1826  1.4075
14419TIP3    H243199   0.844   5.789   6.505 -0.6086 -1.0173  1.6158
14420TIP3   OH243200   3.596   1.022   4.367  0.1753  0.2721  0.0992
14420TIP3    H143201   3.526   1.039   4.431 -0.1766  0.0105 -0.2122
14420TIP3    H243202   3.607   1.105   4.321 -0.1436  0.2341 -0.0522
14421TIP3   OH243203   6.753   3.620   4.232 -0.3424  0.2570 -0.3260
14421TIP3    H143204   6.677   3.604   4.289 -0.1287 -1.4646 -0.4691
14421TIP3    H243205   6.809   3.543   4.245  0.4417  0.5742 -1.6969
14422TIP3   OH243206   0.802   6.628   4.477 -0.0980 -0.4275 -0.7069
14422TIP3    H143207   0.883   6.673   4.453 -0.4519  0.0451 -1.0366
14422TIP3    H243208   0.814   6.603   4.568 -0.2432  1.1344 -0.2353
14423TIP3   OH243209   8.353   3.563   3.650  0.2732  0.3318 -0.2609
14423TIP3    H143210   8.317   3.475   3.665 -1.4194  1.0132 -0.0286
14423TIP3    H243211   8.298   3.599   3.580  0.0308  1.6921  0.5912
14424TIP3   OH243212   2.159   2.005   5.662 -0.1644 -0.1192 -0.2084
14424TIP3    H143213   2.188   1.920   5.630  2.5267  0.7250 -0.2559
14424TIP3    H243214   2.064   1.997   5.670 -0.1862 -2.4973 -1.9717
14425TIP3   OH243215   5.513   4.025   4.563 -0.0819  0.2443  0.0133
14425TIP3    H143216   5.592   3.975   4.546 -0.7852 -0.5576 -1.0077
14425TIP3    H243217   5.444   3.960   4.572 -0.5267  0.8767  1.7355
14426TIP3   OH243218   7.644   7.409   2.042  0.1657  0.1084  0.0944
14426TIP3    H143219   7.733   7.377   2.029  0.3624 -0.2561  2.0069
14426TIP3    H243220   7.590   7.331   2.052 -0.2398  0.3357 -0.2471
14427TIP3   OH243221   1.068   3.154   3.370  0.0806  0.2914  0.3156
14427TIP3    H143222   1.008   3.138   3.443 -0.7135  0.6236 -0.2518
14427TIP3    H243223   1.050   3.084   3.308  1.9030 -0.9659  1.1135
14428TIP3   OH243224   5.372   6.666   3.130 -0.4887 -0.2026 -0.3401
14428TIP3    H143225   5.386   6.713   3.048  2.1586 -0.0532  0.1139
14428TIP3    H243226   5.377   6.734   3.198 -2.6881 -0.3153  0.0318
14429TIP3   OH243227   5.271   2.222   3.219  0.0740  0.1620 -0.0007
14429TIP3    H143228   5.301   2.305   3.254  0.1892  0.1209 -0.0026
14429TIP3    H243229   5.276   2.232   3.124  0.9389 -0.1569  0.0034
14430TIP3   OH243230   4.980   2.651   2.045 -0.8984  0.3335  0.1780
14430TIP3    H143231   4.916   2.642   2.115 -1.2588  1.3766  0.0052
14430TIP3    H243232   5.051   2.701   2.084 -1.2306  1.1744 -0.2662
14431TIP3   OH243233   4.547   0.621   3.820  0.0386  0.6362 -0.0715
14431TIP3    H143234   4.623   0.574   3.855 -0.4424 -0.5003 -0.5225
14431TIP3    H243235   4.579   0.662   3.740 -0.0568 -0.6963 -0.8206
14432TIP3   OH243236   2.058   5.233   2.446  0.4528  0.0692  0.2183
14432TIP3    H143237   1.971   5.215   2.481  0.3646 -0.2258 -0.1510
14432TIP3    H243238   2.113   5.242   2.524  0.2134 -0.3508  0.4395
14433TIP3   OH243239   0.099   4.609   4.192 -0.3589 -0.1133  0.3332
14433TIP3    H143240   0.134   4.696   4.208  1.3531 -0.1967 -2.2896
14433TIP3    H243241   0.019   4.624   4.141 -0.4653 -0.0414  0.5244
14434TIP3   OH243242   5.385   1.091   1.430 -0.2875 -0.4268 -0.7023
14434TIP3    H143243   5.369   1.032   1.504  0.1898 -0.1782 -0.3904
14434TIP3    H243244   5.475   1.121   1.444 -0.1945 -0.3863 -1.3958
14435TIP3   OH243245   4.848   6.906   0.804  0.3076 -0.5759 -0.0699
14435TIP3    H143246   4.903   6.830   0.788 -0.7068 -1.1310 -1.1084
14435TIP3    H243247   4.765   6.869   0.834 -0.3749  0.0570 -1.0953
14436TIP3   OH243248   3.564   5.977   1.793 -0.6210 -0.0134 -0.4620
14436TIP3    H143249   3.555   6.058   1.843  1.0228 -0.1179  0.0595
14436TIP3    H243250   3.541   5.907   1.854  1.7206 -0.1655  0.3390
14437TIP3   OH243251   4.279   6.873   2.654 -0.0620  0.1341  0.2108
14437TIP3    H143252   4.306   6.965   2.655 -0.2248  0.1883  1.7935
14437TIP3    H243253   4.316   6.838   2.573  0.5570  1.4266 -0.0905
14438TIP3   OH243254   7.851   5.961   0.236 -0.0423 -0.1400 -0.4292
14438TIP3    H143255   7.841   5.985   0.328  0.5680 -1.8542  0.1229
14438TIP3    H243256   7.931   6.006   0.209 -1.3351  2.0739 -0.7743
14439TIP3   OH243257   4.297   5.617   6.417 -0.4073  0.1227 -0.9133
14439TIP3    H143258   4.311   5.536   6.368 -1.1095  0.8226 -2.3255
14439TIP3    H243259   4.273   5.588   6.505  0.9324 -1.1614 -0.9367
14440TIP3   OH243260   2.851   6.225   2.656  0.6497 -0.4921 -0.3206
14440TIP3    H143261   2.774   6.230   2.599 -1.5246  0.0612  2.4497
14440TIP3    H243262   2.922   6.198   2.597 -1.2611  0.4664 -3.3400
14441TIP3   OH243263   5.780   2.742   0.912 -0.2107  0.4463  0.4298
14441TIP3    H143264   5.783   2.831   0.876 -1.6106 -0.0542 -1.0692
14441TIP3    H243265   5.817   2.688   0.842 -0.7478 -0.3059  0.7254
14442TIP3   OH243266   4.210   4.874   1.072 -0.3007 -0.2032 -0.4201
14442TIP3    H143267   4.158   4.928   1.012 -3.3175 -0.6817  1.5329
14442TIP3    H243268   4.212   4.788   1.032 -1.3000 -0.2324 -0.4390
14443TIP3   OH243269   7.943   7.740   6.354  0.2410 -0.1278  0.2960
14443TIP3    H143270   7.912   7.726   6.265  0.9400 -0.0415  0.0260
14443TIP3    H243271   8.036   7.717   6.351  0.2803 -0.1008  0.9967
14444TIP3   OH243272   5.897   2.407   2.805 -0.4517  0.4300 -0.1614
14444TIP3    H143273   5.829   2.471   2.828  0.2437  1.2247 -0.2647
14444TIP3    H243274   5.912   2.357   2.885 -0.9811  0.4124 -0.0719
14445TIP3   OH243275   7.775   0.917   6.148  0.1615  0.6944  0.5961
14445TIP3    H143276   7.867   0.896   6.166 -0.0168 -0.0426  0.6731
14445TIP3    H243277   7.727   0.841   6.179 -0.5133  1.2449  0.9104
14446TIP3   OH243278   7.784   3.373   0.137 -0.6773 -0.5022 -0.4630
14446TIP3    H143279   7.732   3.302   0.100 -0.2851 -0.6630 -0.7118
14446TIP3    H243280   7.777   3.444   0.073  0.0276 -0.7914 -0.8665
14447TIP3   OH243281   6.671   3.254   2.924 -0.2225 -0.0908 -0.1838
14447TIP3    H143282   6.606   3.213   2.866 -0.5482 -0.2258  0.2760
14447TIP3    H243283   6.730   3.300   2.864 -1.0391  0.4736 -0.5739
14448TIP3   OH243284   4.247   2.143   4.290 -0.1819  0.2144  0.4635
14448TIP3    H143285   4.211   2.108   4.208 -0.2141 -0.0549  0.5909
14448TIP3    H243286   4.285   2.227   4.266  2.0443 -0.9356 -0.3435
14449TIP3   OH243287   2.217   2.827   3.799 -0.2818  0.3274  0.0784
14449TIP3    H143288   2.293   2.835   3.856  0.4769  1.1115 -1.0058
14449TIP3    H243289   2.162   2.761   3.842  0.1286  1.0717  1.8163
14450TIP3   OH243290   6.600   1.815   6.013  0.0125  0.4736  0.8046
14450TIP3    H143291   6.687   1.848   6.038  0.0320  0.2413  1.0605
14450TIP3    H243292   6.587   1.739   6.071  0.0702 -0.1024  0.0730
14451TIP3   OH243293   7.753   3.264   0.560  0.1730 -0.1192  0.1422
14451TIP3    H143294   7.822   3.259   0.493  0.1713 -0.6776  0.1748
14451TIP3    H243295   7.700   3.186   0.544 -1.3107  1.0344 -0.8123
14452TIP3   OH243296   7.666   1.372   5.961 -0.0529 -0.7152  0.2919
14452TIP3    H143297   7.680   1.361   5.867  2.4173  0.8415  0.4028
14452TIP3    H243298   7.750   1.349   6.001 -0.4579  0.4996  1.9495
14453TIP3   OH243299   2.450   5.753   6.322 -0.3188 -0.7747 -0.2393
14453TIP3    H143300   2.529   5.783   6.277  0.4160 -0.1717  1.4010
14453TIP3    H243301   2.379   5.800   6.278  0.3384 -0.4068 -0.9419
14454TIP3   OH243302   7.875   4.527   1.191  0.2490  0.0859 -0.5223
14454TIP3    H143303   7.961   4.508   1.227  0.1071 -1.1355 -0.7856
14454TIP3    H243304   7.818   4.460   1.228 -1.3447  2.6409  2.1981
14455TIP3   OH243305   0.647   4.968   0.246  0.2498 -0.4819  0.1161
14455TIP3    H143306   0.605   5.002   0.325 -3.2426  0.8715 -2.0452
14455TIP3    H243307   0.704   5.039   0.217 -0.0639 -0.1351  0.3340
14456TIP3   OH243308   3.213   2.725   6.702  0.3616 -0.0652 -0.4398
14456TIP3    H143309   3.224   2.677   6.784 -0.9744 -0.0304 -0.2232
14456TIP3    H243310   3.191   2.658   6.637 -2.2411  0.2573  0.0128
14457TIP3   OH243311   5.444   1.921   5.592  0.0418 -0.2137  0.5019
14457TIP3    H143312   5.513   1.967   5.638  0.6156  1.3453 -1.7394
14457TIP3    H243313   5.488   1.849   5.547  0.2438  0.6397 -0.7364
14458TIP3   OH243314   8.338   0.436   3.085  0.2029  0.2676  0.1500
14458TIP3    H143315   8.297   0.412   3.001 -1.1111 -0.9917  1.1046
14458TIP3    H243316   8.326   0.359   3.140  1.4999  0.8904  1.3548
14459TIP3   OH243317   4.925   7.144   0.954 -0.2279  0.7435 -0.0305
14459TIP3    H143318   4.845   7.197   0.951 -1.0416 -0.1945  2.6182
14459TIP3    H243319   4.919   7.088   0.877 -1.3413  1.7081 -0.6857
14460TIP3   OH243320   4.634   7.494   5.257  0.3289 -0.3889 -0.6182
14460TIP3    H143321   4.696   7.430   5.222  0.8411  0.3202 -1.0385
14460TIP3    H243322   4.574   7.443   5.312  0.7572 -1.2115 -0.9091
14461TIP3   OH243323   7.675   1.551   3.963 -0.8302 -0.7362 -0.5553
14461TIP3    H143324   7.666   1.610   4.037  1.1665 -1.7137  0.5512
14461TIP3    H243325   7.654   1.604   3.886  1.6550  1.7057  0.2966
14462TIP3   OH243326   8.251   4.123   0.184  0.0959  0.3605 -0.4696
14462TIP3    H143327   8.207   4.145   0.266  1.0696  1.8579 -0.3019
14462TIP3    H243328   8.188   4.146   0.116 -1.0298 -1.6395 -0.1721
14463TIP3   OH243329   5.779   0.328   4.170 -0.0451  0.3838  0.0862
14463TIP3    H143330   5.810   0.403   4.120  0.3191 -0.2599 -0.6923
14463TIP3    H243331   5.759   0.262   4.103  3.0394 -1.5024  0.8231
14464TIP3   OH243332   6.462   7.091   6.649 -0.4377 -0.0514  0.6524
14464TIP3    H143333   6.375   7.130   6.641 -0.6888 -0.6344  0.4419
14464TIP3    H243334   6.450   7.000   6.621  0.6539  0.3804 -1.4406
14465TIP3   OH243335   3.843   1.324   0.200  0.0035 -0.0234  0.5671
14465TIP3    H143336   3.788   1.313   0.123 -0.4280  0.9588  0.7122
14465TIP3    H243337   3.894   1.243   0.206 -0.9663 -0.6936  0.0601
14466TIP3   OH243338   7.350   5.536   2.338  0.6614  0.1340  0.7865
14466TIP3    H143339   7.349   5.456   2.285  1.8114  0.1843  0.6759
14466TIP3    H243340   7.348   5.607   2.273  0.9996  0.1919  0.8366
14467TIP3   OH243341   0.874   1.174   4.202  0.8734 -0.0168  0.0821
14467TIP3    H143342   0.895   1.092   4.247  3.0063  0.9825  1.0314
14467TIP3    H243343   0.789   1.200   4.238  0.1163 -1.7922 -0.2984
14468TIP3   OH243344   6.508   2.585   3.919  0.3076 -0.0491  0.0011
14468TIP3    H143345   6.451   2.627   3.855  0.3524  1.4753  0.8951
14468TIP3    H243346   6.448   2.548   3.984  0.2276  2.7513  1.6828
14469TIP3   OH243347   5.400   0.650   4.884 -0.0626  0.0230 -0.0663
14469TIP3    H143348   5.482   0.607   4.910 -0.6020 -0.4597  0.8759
14469TIP3    H243349   5.350   0.582   4.840 -0.3851  0.0412  0.2740
14470TIP3   OH243350   6.670   7.362   1.917 -0.1706 -0.0517 -0.3295
14470TIP3    H143351   6.720   7.436   1.882 -0.8639  0.0197 -1.2178
14470TIP3    H243352   6.736   7.303   1.954  0.3241  1.4021  1.1964
14471TIP3   OH243353   3.582   4.999   1.583 -0.6608  0.1351 -0.2268
14471TIP3    H143354   3.595   4.940   1.657  0.9357  0.3535 -0.2891
14471TIP3    H243355   3.666   4.998   1.537 -0.9870  1.5203 -0.9110
14472TIP3   OH243356   1.315   7.276   0.079  0.1320 -0.0935 -0.2581
14472TIP3    H143357   1.271   7.275   0.164 -0.6468 -0.1536 -0.6530
14472TIP3    H243358   1.405   7.249   0.099  0.4467  1.5422  0.7859
14473TIP3   OH243359   5.093   3.382   2.821 -0.2788 -0.1141  0.1607
14473TIP3    H143360   5.137   3.417   2.744  0.8293 -1.9388 -0.0723
14473TIP3    H243361   5.079   3.289   2.802  0.6361 -0.7815  2.3958
14474TIP3   OH243362   4.656   2.600   0.387 -0.9060  0.6285 -0.0296
14474TIP3    H143363   4.620   2.588   0.475  0.3795 -0.3434  0.3877
14474TIP3    H243364   4.722   2.532   0.378 -1.0841  0.6292 -1.8082
14475TIP3   OH243365   5.142   6.387   0.462 -0.1884 -0.4282 -0.1612
14475TIP3    H143366   5.060   6.430   0.437  0.0436  0.2226  0.1537
14475TIP3    H243367   5.185   6.366   0.379 -0.3337 -0.0908 -0.3252
14476TIP3   OH243368   2.744   4.644   0.771 -0.4428 -0.0343 -0.4261
14476TIP3    H143369   2.818   4.704   0.762 -1.4822  1.0122 -2.6222
14476TIP3    H243370   2.739   4.627   0.865 -0.0351  3.2423  0.2968
14477TIP3   OH243371   3.130   5.404   0.468 -0.3718  0.4124  0.4890
14477TIP3    H143372   3.051   5.455   0.447  1.2699  3.0441  0.2296
14477TIP3    H243373   3.162   5.442   0.550  1.4104  0.4870 -0.1931
14478TIP3   OH243374   0.434   1.156   2.856  0.3197 -0.3473  0.1601
14478TIP3    H143375   0.495   1.153   2.782  1.1807 -0.8675  0.8839
14478TIP3    H243376   0.469   1.094   2.920  0.3896  1.1233  1.6123
14479TIP3   OH243377   2.579   0.657   4.375 -0.1836 -0.0967  0.1590
14479TIP3    H143378   2.653   0.708   4.342 -0.5752  0.4298  0.0725
14479TIP3    H243379   2.511   0.722   4.391 -0.3983 -0.4867  0.8976
14480TIP3   OH243380   1.495   6.035   2.042  0.5459  0.2616  0.3293
14480TIP3    H143381   1.570   5.976   2.052 -0.7516 -1.2448  1.7210
14480TIP3    H243382   1.439   5.993   1.977 -0.0757  0.2984  0.8304
14481TIP3   OH243383   7.318   0.103   6.095  0.5506  0.6052 -0.3985
14481TIP3    H143384   7.294   0.026   6.145 -1.4010  1.1724 -0.3875
14481TIP3    H243385   7.378   0.070   6.028 -0.0804 -0.8830 -0.2666
14482TIP3   OH243386   7.331   2.674   5.765 -0.3557  0.2973  0.4172
14482TIP3    H143387   7.316   2.735   5.693 -1.4336 -0.4488 -0.0292
14482TIP3    H243388   7.263   2.694   5.829 -1.0559 -0.7398  0.0331
14483TIP3   OH243389   3.263   1.867   4.555 -0.2210 -0.6769 -0.2843
14483TIP3    H143390   3.296   1.891   4.642  0.5071  0.8709 -0.9416
14483TIP3    H243391   3.203   1.938   4.532 -0.1803 -0.9180 -1.1517
14484TIP3   OH243392   5.662   3.058   1.398 -0.2862  0.0506  0.5564
14484TIP3    H143393   5.651   3.015   1.313 -0.7219 -1.5226  1.3614
14484TIP3    H243394   5.756   3.052   1.416 -0.2182  0.2339  0.2679
14485TIP3   OH243395  -0.012   1.077   3.330 -0.1777  0.3577 -0.1110
14485TIP3    H143396   0.065   1.092   3.275  0.3137  2.2305  1.0151
14485TIP3    H243397   0.024   1.065   3.418 -1.1766  2.1505  0.5794
14486TIP3   OH243398   2.011   0.357   0.691 -0.9439 -0.0889 -0.4245
14486TIP3    H143399   2.103   0.383   0.685 -1.3483  1.3356 -0.8885
14486TIP3    H243400   2.001   0.290   0.623 -0.0879 -0.8452  0.1592
14487TIP3   OH243401   0.693   1.349   6.824 -0.1409 -0.5545  0.0488
14487TIP3    H143402   0.786   1.371   6.827 -0.3053  0.1967 -0.1478
14487TIP3    H243403   0.684   1.277   6.886  0.5613 -0.5929  0.1199
14488TIP3   OH243404   5.999   0.338   3.536  0.4060  0.3106  0.2043
14488TIP3    H143405   5.987   0.264   3.477  0.3111  0.0229  0.5781
14488TIP3    H243406   5.959   0.310   3.618 -2.3435  1.8988 -0.4739
14489TIP3   OH243407   3.161   2.404   5.539  0.6095 -0.0884  0.4020
14489TIP3    H143408   3.245   2.377   5.576  0.3132 -0.7634  0.5949
14489TIP3    H243409   3.168   2.499   5.530  2.3824 -0.3301 -1.9371
14490TIP3   OH243410   4.248   6.963   3.773  0.2209 -0.2297  0.2670
14490TIP3    H143411   4.330   7.006   3.797  0.0723 -0.1524  0.6350
14490TIP3    H243412   4.186   6.987   3.842 -0.3384  0.3667 -0.4343
14491TIP3   OH243413   7.862   6.556   6.210 -0.4796  0.6666  0.0799
14491TIP3    H143414   7.905   6.487   6.160 -1.0839 -0.0837  0.5769
14491TIP3    H243415   7.772   6.526   6.221 -0.7397  1.5124  0.3442
14492TIP3   OH243416   2.964   0.251   6.086 -0.1403 -0.4732 -0.5111
14492TIP3    H143417   2.933   0.161   6.099  0.9431 -0.7105  0.6272
14492TIP3    H243418   2.957   0.291   6.172 -0.0423  0.3553 -0.8810
14493TIP3   OH243419   2.768   3.030   0.952  0.4483 -0.0489  0.2611
14493TIP3    H143420   2.754   3.030   0.858  0.6408 -0.0989  0.2327
14493TIP3    H243421   2.861   3.010   0.963  0.1077 -1.6879  0.4974
14494TIP3   OH243422   6.410   4.326   3.537 -0.1277  0.2607  0.0416
14494TIP3    H143423   6.440   4.348   3.448  2.6053 -0.0327  0.7997
14494TIP3    H243424   6.472   4.371   3.595 -1.6148  0.1321  1.8294
14495TIP3   OH243425   1.966   6.218   6.708  0.3426 -0.1987 -0.1659
14495TIP3    H143426   2.059   6.196   6.722  0.4562  0.5340  0.2588
14495TIP3    H243427   1.968   6.293   6.650 -0.0543 -1.3435 -1.7229
14496TIP3   OH243428   5.490   3.442   0.288  0.4970  0.5467  0.1435
14496TIP3    H143429   5.551   3.515   0.290  1.1653 -0.0191  1.2094
14496TIP3    H243430   5.470   3.430   0.195  3.6843 -0.6121 -0.5179
14497TIP3   OH243431   7.962   1.124   0.961  0.0305 -0.0195  0.5838
14497TIP3    H143432   7.925   1.038   0.982 -0.1830  0.1170  0.7715
14497TIP3    H243433   7.895   1.186   0.990  0.3126  0.2215  0.7238
14498TIP3   OH243434   6.926   0.291   3.772  0.5608 -0.1594  0.0563
14498TIP3    H143435   6.875   0.280   3.692  0.4600 -0.7194  0.1943
14498TIP3    H243436   6.871   0.256   3.841  1.5529 -1.7897  0.0680
14499TIP3   OH243437   5.145   2.018   1.832  0.4934 -0.0573  0.8546
14499TIP3    H143438   5.197   2.099   1.834  2.0543 -0.9110 -1.3740
14499TIP3    H243439   5.201   1.953   1.875  0.4710 -0.5647  0.1257
14500TIP3   OH243440   2.040   0.882   2.442  0.4788  0.3377 -0.2947
14500TIP3    H143441   2.122   0.838   2.417  0.9350  0.5556  0.7697
14500TIP3    H243442   1.973   0.814   2.435  0.7969  0.0756 -0.8731
14501TIP3   OH243443   1.750   6.803   5.461 -0.1824  0.1949 -0.4759
14501TIP3    H143444   1.836   6.835   5.490  0.1395  0.7517 -1.9518
14501TIP3    H243445   1.696   6.881   5.453  0.5231  0.4673 -3.8093
14502TIP3   OH243446   6.318   1.055   3.394  0.7769 -0.9163 -1.0692
14502TIP3    H143447   6.343   1.014   3.478 -0.1801 -2.5224 -1.5167
14502TIP3    H243448   6.395   1.044   3.339  1.7726  1.0138 -0.1522
14503TIP3   OH243449   2.989   0.366   1.007  0.0607  0.3979  0.0307
14503TIP3    H143450   3.063   0.364   0.947  0.1499 -1.9176  0.1057
14503TIP3    H243451   3.019   0.315   1.083 -1.5504 -0.5511  0.0869
14504TIP3   OH243452   2.507   3.151   4.913  0.0400  0.4925  0.6278
14504TIP3    H143453   2.568   3.136   4.986  1.7711  3.1683 -0.1025
14504TIP3    H243454   2.464   3.234   4.936 -2.8306 -0.9026  0.6986
14505TIP3   OH243455   1.818   0.953   2.833  0.2355  0.2748 -0.1267
14505TIP3    H143456   1.793   1.008   2.906 -0.8191 -0.0431 -0.2392
14505TIP3    H243457   1.911   0.974   2.818 -0.4349  3.0736 -1.0730
14506TIP3   OH243458   5.187   6.469   4.323  0.0458 -0.1460  0.0732
14506TIP3    H143459   5.187   6.432   4.411  0.6672  0.9816  0.5770
14506TIP3    H243460   5.256   6.421   4.277 -1.8488 -2.3936 -0.5825
14507TIP3   OH243461   5.093   3.425   5.867 -0.1341 -0.1281 -0.4900
14507TIP3    H143462   5.029   3.492   5.892  1.0111  0.5736  0.7323
14507TIP3    H243463   5.046   3.366   5.809 -1.5802  0.9508 -0.4571
14508TIP3   OH243464   1.615   6.587   5.692 -0.0653 -0.6402 -0.0858
14508TIP3    H143465   1.659   6.632   5.620  0.1982 -1.1080 -0.2199
14508TIP3    H243466   1.563   6.519   5.650 -0.0560 -0.7947  0.1526
14509TIP3   OH243467   8.255   5.320   3.569 -0.9954 -1.4703  0.1965
14509TIP3    H143468   8.336   5.369   3.559 -1.6982 -0.4392 -0.6821
14509TIP3    H243469   8.269   5.266   3.647 -0.7660  1.2978  2.2152
14510TIP3   OH243470   5.331   6.081   5.241  0.2207 -0.0580  0.1838
14510TIP3    H143471   5.277   6.080   5.320  2.0366 -2.4109  1.5256
14510TIP3    H243472   5.319   5.994   5.203  0.4039  0.5898 -1.4213
14511TIP3   OH243473   5.015   0.336   2.066 -0.6245 -0.2280  0.2336
14511TIP3    H143474   5.075   0.279   2.114 -0.5995 -0.8081 -0.4647
14511TIP3    H243475   4.973   0.389   2.134  0.9936  0.5238  0.7075
14512TIP3   OH243476   6.408   6.899   1.100 -0.2889  0.0659 -0.3487
14512TIP3    H143477   6.386   6.967   1.036  0.0733 -0.0557 -0.6079
14512TIP3    H243478   6.391   6.817   1.054  1.1934 -0.0463 -0.7674
14513TIP3   OH243479   1.545   4.222   3.325 -0.0475  0.2603 -0.4541
14513TIP3    H143480   1.589   4.263   3.400  0.6624  0.5147 -0.9994
14513TIP3    H243481   1.614   4.211   3.259  0.2429 -3.3524  0.2206
14514TIP3   OH243482   5.942   5.746   3.938 -0.4623  0.5962 -0.0789
14514TIP3    H143483   6.024   5.709   3.906 -0.7016 -1.0180  1.0743
14514TIP3    H243484   5.963   5.784   4.023 -0.9922 -0.2440  0.4366
14515TIP3   OH243485   6.374   3.164   6.507  0.1768 -0.0783 -0.0059
14515TIP3    H143486   6.460   3.202   6.526 -0.2561  0.3367  1.2453
14515TIP3    H243487   6.312   3.233   6.531 -0.5691 -1.0118  0.8599
14516TIP3   OH243488   3.771   5.432   6.752  0.2863  0.3636 -0.2921
14516TIP3    H143489   3.832   5.426   6.825  0.7442  0.1901 -0.6822
14516TIP3    H243490   3.825   5.458   6.677 -0.2509  1.0070 -0.4722
14517TIP3   OH243491   4.416   6.088   6.378  0.3629 -0.6402 -0.3613
14517TIP3    H143492   4.383   6.078   6.468  0.8737  0.2698 -0.0576
14517TIP3    H243493   4.511   6.078   6.387  0.3773 -0.9709 -0.8720
14518TIP3   OH243494   5.689   2.021   0.665 -0.4280 -0.6066 -0.0409
14518TIP3    H143495   5.733   1.957   0.609 -0.8486 -0.1059 -0.9621
14518TIP3    H243496   5.758   2.083   0.688  0.0046 -1.4263  0.9402
14519TIP3   OH243497   6.319   2.872   3.188 -0.7558 -0.2281 -0.3127
14519TIP3    H143498   6.409   2.902   3.176 -0.6136 -0.8535 -0.8964
14519TIP3    H243499   6.317   2.838   3.277 -0.9980  1.7294  0.4732
14520TIP3   OH243500   2.248   7.763   4.203 -0.1512 -0.3812 -0.1027
14520TIP3    H143501   2.339   7.735   4.188  0.1433  0.2636  0.4333
14520TIP3    H243502   2.228   7.732   4.292 -0.0938  0.3945  0.1851
14521TIP3   OH243503   6.128   5.491   3.757 -0.4157 -0.3762  0.1256
14521TIP3    H143504   6.151   5.403   3.788 -0.7271 -0.1420  1.0540
14521TIP3    H243505   6.032   5.493   3.759 -0.4039  0.3623  1.2770
14522TIP3   OH243506   1.078   6.578   4.892  0.4640 -0.5359 -0.4447
14522TIP3    H143507   1.148   6.585   4.956  0.5507 -2.0807 -0.3481
14522TIP3    H243508   1.101   6.501   4.840 -0.6633 -0.4907 -1.0295
14523TIP3   OH243509   3.425   1.782   5.457  0.2026 -0.0331 -0.7353
14523TIP3    H143510   3.336   1.753   5.437  0.4556 -0.9136 -0.6125
14523TIP3    H243511   3.446   1.845   5.388 -1.3576  1.9726  0.5060
14524TIP3   OH243512   3.159   2.460   1.803 -0.4936  0.4260 -0.0302
14524TIP3    H143513   3.139   2.527   1.868 -1.2089  1.9786 -1.7519
14524TIP3    H243514   3.255   2.462   1.795 -0.5227  1.4649 -0.2466
14525TIP3   OH243515   7.888   2.425   1.681  0.2164 -0.5942 -0.1208
14525TIP3    H143516   7.912   2.341   1.719 -0.7916 -1.4684 -1.3361
14525TIP3    H243517   7.912   2.417   1.589 -1.9734 -0.4523 -0.7537
14526TIP3   OH243518   2.479   4.514   1.021 -0.4471  0.0955 -0.1953
14526TIP3    H143519   2.536   4.509   1.098  0.7143  0.4175 -1.0146
14526TIP3    H243520   2.514   4.448   0.961 -1.3570 -0.1643 -0.4535
14527TIP3   OH243521   3.700   0.356   4.580  0.0349  0.3330 -0.0785
14527TIP3    H143522   3.780   0.311   4.606 -0.3011 -0.5387 -0.5079
14527TIP3    H243523   3.630   0.303   4.618 -0.4300 -0.4239 -1.8952
14528TIP3   OH243524   0.808   7.293   3.765 -0.2170  0.3915 -0.4987
14528TIP3    H143525   0.812   7.197   3.767 -0.1411  0.4118  0.3314
14528TIP3    H243526   0.717   7.313   3.742 -0.1271  0.1228 -1.1101
14529TIP3   OH243527   8.296   1.071   6.520  0.1524  0.2668  0.4876
14529TIP3    H143528   8.299   1.092   6.613 -0.7333  1.0431  0.3489
14529TIP3    H243529   8.325   0.979   6.515 -2.9161 -0.8900  1.8773
14530TIP3   OH243530   8.205   1.857   3.705 -0.2414 -1.0913  0.4517
14530TIP3    H143531   8.118   1.853   3.746 -0.9500  1.4980 -0.5955
14530TIP3    H243532   8.189   1.829   3.615 -0.4171  1.0072 -0.2223
14531TIP3   OH243533   1.168   0.527   0.294 -0.0775 -0.3929 -0.3566
14531TIP3    H143534   1.183   0.484   0.378  1.1146 -1.4695 -1.0757
14531TIP3    H243535   1.165   0.455   0.231 -0.5574  0.4205 -1.2891
14532TIP3   OH243536   3.982   5.567   5.895 -0.1092  0.8018  0.6722
14532TIP3    H143537   3.998   5.479   5.862  1.5737  0.8631  1.2359
14532TIP3    H243538   3.912   5.602   5.839  1.0102  0.0583 -1.2853
14533TIP3   OH243539   4.667   2.366   2.312  0.5631  0.7401  0.0871
14533TIP3    H143540   4.587   2.363   2.364  0.5678  0.2771  0.0733
14533TIP3    H243541   4.736   2.381   2.376  0.5226  0.5927  0.1677
14534TIP3   OH243542   4.145   3.673   3.799  0.1870 -0.2459 -0.3610
14534TIP3    H143543   4.118   3.764   3.813  2.1667  0.2089  1.1044
14534TIP3    H243544   4.167   3.668   3.705 -0.6200  0.5769 -0.5993
14535TIP3   OH243545   7.932   0.591   3.888 -0.0687 -0.5541 -0.2638
14535TIP3    H143546   7.908   0.629   3.973  3.1920  1.8700 -0.2215
14535TIP3    H243547   7.863   0.622   3.828 -1.6771 -1.1684  1.1880
14536TIP3   OH243548   4.323   1.670   6.409 -0.5078 -0.5476  0.1663
14536TIP3    H143549   4.266   1.594   6.414  0.0971 -1.0968 -0.9114
14536TIP3    H243550   4.399   1.641   6.359 -0.8574  1.1214 -1.4470
14537TIP3   OH243551   0.657   7.860   2.830  0.5167  0.2673  0.8840
14537TIP3    H143552   0.631   7.776   2.792 -1.8019  1.0643  0.5433
14537TIP3    H243553   0.752   7.858   2.831  0.5802 -1.3280 -1.4647
14538TIP3   OH243554   5.531   6.595   0.659  0.5012 -0.5539 -0.2332
14538TIP3    H143555   5.617   6.563   0.687  0.6778 -0.8334 -1.0667
14538TIP3    H243556   5.492   6.522   0.612 -0.3919 -0.5810  0.5209
14539TIP3   OH243557   0.122   2.265   6.789 -0.0118 -0.1714  0.1914
14539TIP3    H143558   0.098   2.354   6.814 -0.8300 -0.3019 -0.0977
14539TIP3    H243559   0.147   2.272   6.697  0.3310 -0.1665  0.2851
14540TIP3   OH243560   5.512   0.650   1.186  0.1879 -0.4015  0.1570
14540TIP3    H143561   5.608   0.653   1.193  0.2018  0.4597 -0.2551
14540TIP3    H243562   5.483   0.737   1.215 -0.1058  1.2532 -4.3164
14541TIP3   OH243563   3.262   0.495   3.555 -0.1105 -0.3106  0.2732
14541TIP3    H143564   3.319   0.481   3.631  0.4385 -2.4414 -0.4786
14541TIP3    H243565   3.321   0.489   3.480 -0.7149  1.3794 -0.3869
14542TIP3   OH243566   8.381   7.173   4.248  0.5396 -0.9515  0.2780
14542TIP3    H143567   8.455   7.234   4.254 -0.9298  0.8853  0.7200
14542TIP3    H243568   8.358   7.155   4.339 -0.7993  0.1214  0.1733
14543TIP3   OH243569   1.972   6.411   1.353 -0.0842  0.0078  0.0753
14543TIP3    H143570   1.976   6.428   1.447 -1.7832 -0.0894  0.2100
14543TIP3    H243571   2.044   6.350   1.337  0.6894  0.5865  1.1600
14544TIP3   OH243572   7.193   0.258   2.513  0.3924 -0.0256 -0.2666
14544TIP3    H143573   7.261   0.241   2.447  0.4146 -1.1011  0.0207
14544TIP3    H243574   7.205   0.189   2.578  0.3599  1.0182  0.8758
14545TIP3   OH243575   6.312   2.100   1.180 -0.2037 -0.4577 -0.2597
14545TIP3    H143576   6.306   2.130   1.271 -0.0821  0.5009 -0.5565
14545TIP3    H243577   6.223   2.109   1.146 -0.2512 -0.8253 -0.2355
14546TIP3   OH243578   6.886   1.310   0.693  0.6428 -0.3759 -0.1762
14546TIP3    H143579   6.911   1.390   0.739 -0.3014  0.8494 -1.6789
14546TIP3    H243580   6.907   1.328   0.601 -2.1204 -0.7206 -0.9722
14547TIP3   OH243581   4.232   6.788   6.794  0.2878 -0.1253 -0.0020
14547TIP3    H143582   4.294   6.804   6.865  0.6499  0.7570 -0.4980
14547TIP3    H243583   4.287   6.765   6.719  0.0981  1.3407 -0.6326
14548TIP3   OH243584   0.205   2.296   1.157  0.2213  0.0068 -0.0240
14548TIP3    H143585   0.291   2.255   1.151 -0.1306 -0.8074  0.4363
14548TIP3    H243586   0.164   2.258   1.235 -1.1238 -0.7190 -1.0354
14549TIP3   OH243587   4.870   4.045   5.139 -0.1586 -0.2716  0.3301
14549TIP3    H143588   4.866   4.134   5.104  2.0243 -1.5957 -4.2122
14549TIP3    H243589   4.942   4.047   5.202  0.2320  1.0684 -0.1239
14550TIP3   OH243590   0.807   3.239   6.207 -0.2620  0.0725 -0.2709
14550TIP3    H143591   0.804   3.334   6.223 -2.3479  0.0540 -0.2572
14550TIP3    H243592   0.783   3.229   6.115 -0.7794 -0.4636 -0.0832
14551TIP3   OH243593   2.019   4.844   4.201 -0.0172  0.0266  0.0858
14551TIP3    H143594   2.060   4.790   4.269  1.5177  1.8270  0.6913
14551TIP3    H243595   1.929   4.813   4.196 -0.1000 -0.4171  2.7348
14552TIP3   OH243596   5.256   3.338   1.355  0.5231 -0.5998  0.2427
14552TIP3    H143597   5.197   3.323   1.429 -0.4257 -1.5423 -0.6724
14552TIP3    H243598   5.341   3.306   1.384  0.3230 -0.3179  1.1651
14553TIP3   OH243599   0.907   2.575   6.039 -0.5316 -0.2811 -0.8157
14553TIP3    H143600   0.910   2.616   5.953 -0.0401 -1.6303 -1.4664
14553TIP3    H243601   0.840   2.507   6.031 -0.2722 -0.6184 -0.2232
14554TIP3   OH243602   0.022   3.894   3.475 -0.0173  0.0951 -0.4055
14554TIP3    H143603   0.046   3.972   3.426 -0.2570 -0.0415 -0.7387
14554TIP3    H243604   0.094   3.833   3.460  0.4697  0.4625  0.3468
14555TIP3   OH243605   1.051   0.968   5.579  0.3530 -0.5466  0.0627
14555TIP3    H143606   0.958   0.989   5.570  0.4052 -0.4355 -0.2025
14555TIP3    H243607   1.057   0.926   5.666  0.0960 -0.3418  0.1815
14556TIP3   OH243608   7.095   5.449   3.328  0.6845 -0.1740  0.0022
14556TIP3    H143609   7.106   5.357   3.307  0.1795 -0.3160  0.3526
14556TIP3    H243610   7.147   5.495   3.261 -1.4008 -0.5942 -2.0571
14557TIP3   OH243611   5.384   5.344  -0.005  0.1720  0.0119 -0.4294
14557TIP3    H143612   5.312   5.406  -0.008 -0.0422 -0.0448  1.7691
14557TIP3    H243613   5.344   5.261   0.022  1.0096 -0.0212  0.8240
14558TIP3   OH243614   6.977   0.609   6.644  0.5564  0.0663  0.1696
14558TIP3    H143615   7.034   0.572   6.577  1.2732  0.2758  0.6542
14558TIP3    H243616   6.941   0.687   6.604  2.5322  1.3148  0.6679
14559TIP3   OH243617   2.384   0.735   3.612 -0.0428 -0.6221  0.7950
14559TIP3    H143618   2.437   0.811   3.637 -1.6939  0.5343  0.9519
14559TIP3    H243619   2.438   0.688   3.548  0.2786  1.7886 -0.8694
14560TIP3   OH243620   4.601   5.669   2.507  0.4040  0.7008  0.0596
14560TIP3    H143621   4.563   5.754   2.528 -0.6540  0.3610 -0.4050
14560TIP3    H243622   4.604   5.623   2.591  0.7643  1.1129  0.2733
14561TIP3   OH243623   3.322   7.803   2.265  0.2964 -0.5616  0.1588
14561TIP3    H143624   3.382   7.754   2.210  1.1553 -1.6606  1.9829
14561TIP3    H243625   3.345   7.779   2.354 -0.0999  2.2138  1.1252
14562TIP3   OH243626   5.892   1.257   5.448  0.2510 -0.3925 -0.0182
14562TIP3    H143627   5.923   1.347   5.452  0.1790 -0.3898  0.4668
14562TIP3    H243628   5.859   1.247   5.359 -0.1907  0.2027  0.0792
14563TIP3   OH243629   7.197   5.131   0.914 -0.2226  0.0637 -0.0211
14563TIP3    H143630   7.290   5.112   0.895  0.0700  0.9398  0.5056
14563TIP3    H243631   7.149   5.078   0.850  0.6671  0.4944 -1.0896
14564TIP3   OH243632   0.443   0.143   6.191  0.4696  0.3300 -0.3150
14564TIP3    H143633   0.523   0.146   6.245  0.1928  1.3584  0.0619
14564TIP3    H243634   0.387   0.211   6.228 -0.8120 -0.7454 -0.2362
14565TIP3   OH243635   2.122   4.547   4.824  0.0050  0.0708 -0.3304
14565TIP3    H143636   2.051   4.610   4.836  0.8851  1.2830 -1.3613
14565TIP3    H243637   2.077   4.467   4.797 -0.9938  0.7453 -0.7314
14566TIP3   OH243638   5.162   0.285   5.097  0.1230  0.1608  0.4774
14566TIP3    H143639   5.135   0.376   5.094 -1.3172 -0.2041  1.1212
14566TIP3    H243640   5.133   0.255   5.184 -1.4534 -1.4657 -0.5350
14567TIP3   OH243641   5.710   3.547   0.693 -0.2486  0.1886 -0.2951
14567TIP3    H143642   5.756   3.569   0.774 -0.4471 -1.0556  0.1726
14567TIP3    H243643   5.729   3.621   0.634  0.9595  0.4968  0.4458
14568TIP3   OH243644   2.402   0.427   0.217 -1.1104 -0.5211  0.1093
14568TIP3    H143645   2.430   0.336   0.208 -0.0366 -0.2877  0.8408
14568TIP3    H243646   2.348   0.428   0.296 -1.4514 -0.5905 -0.1213
14569TIP3   OH243647   6.281   7.503   3.645  0.0829  0.1577 -0.1655
14569TIP3    H143648   6.310   7.578   3.592  1.8303 -0.0003  0.5129
14569TIP3    H243649   6.327   7.513   3.728 -0.2015 -1.2983  0.1921
14570TIP3   OH243650   7.276   0.539   3.836  0.1901  0.7831 -0.0656
14570TIP3    H143651   7.285   0.630   3.807 -1.6437  0.6035 -1.4143
14570TIP3    H243652   7.213   0.501   3.775  0.3261 -1.1990  0.9430
14571TIP3   OH243653   6.897   7.132   3.089 -0.5505  0.3657 -0.2789
14571TIP3    H143654   6.924   7.219   3.061  1.1785 -0.1117 -0.2205
14571TIP3    H243655   6.899   7.136   3.185  0.0117  0.1370 -0.2773
14572TIP3   OH243656   7.369   6.340   3.125  0.0090  0.7301  0.6198
14572TIP3    H143657   7.347   6.343   3.218  1.8161 -0.3658  1.1291
14572TIP3    H243658   7.337   6.254   3.096  0.9132  0.3806  0.6426
14573TIP3   OH243659   7.966   6.783   1.592  0.0921  0.1550  0.1159
14573TIP3    H143660   7.955   6.705   1.646 -0.6127  0.8255  0.9809
14573TIP3    H243661   8.049   6.821   1.622  0.0722  0.1247  0.2119
14574TIP3   OH243662   6.461   7.232   1.788 -0.1782  0.3699 -0.2657
14574TIP3    H143663   6.525   7.205   1.722 -0.4218  2.5155 -1.4822
14574TIP3    H243664   6.514   7.252   1.865  0.2158 -1.2226 -0.0966
14575TIP3   OH243665   0.249   5.457   1.258 -0.2979  0.0126  0.1001
14575TIP3    H143666   0.321   5.441   1.197  0.2494  1.8171  0.2131
14575TIP3    H243667   0.238   5.552   1.257 -3.2205 -0.2404 -0.5067
14576TIP3   OH243668   3.814   4.535   4.660  0.4490 -0.1022  0.2819
14576TIP3    H143669   3.722   4.561   4.647 -0.0900 -2.2981 -0.8748
14576TIP3    H243670   3.863   4.616   4.653 -1.4892  1.3906  2.4289
14577TIP3   OH243671   5.097   5.916   6.430 -0.1781 -0.1182 -0.0589
14577TIP3    H143672   5.183   5.877   6.444  0.1605  1.0052  1.1660
14577TIP3    H243673   5.085   5.976   6.503 -2.2932 -0.7175  0.1683
14578TIP3   OH243674   1.880   1.469   3.490 -0.7080  0.4448  0.5626
14578TIP3    H143675   1.943   1.400   3.472 -1.9055 -1.1987  2.2188
14578TIP3    H243676   1.931   1.537   3.535  0.1160 -0.3403  0.8443
14579TIP3   OH243677   8.191   1.208   3.790 -0.5055  0.4930 -0.3079
14579TIP3    H143678   8.214   1.294   3.754  0.6182  0.4361  0.2391
14579TIP3    H243679   8.275   1.164   3.803 -1.0942 -1.1480 -1.6580
14580TIP3   OH243680   3.225   6.770   5.867 -0.4841 -0.0537  0.2751
14580TIP3    H143681   3.294   6.815   5.819 -0.1017  0.2281  1.0683
14580TIP3    H243682   3.271   6.727   5.939 -1.1019 -0.0900  0.6516
14581TIP3   OH243683   8.045   3.161   3.950  0.2713  0.3188 -0.2483
14581TIP3    H143684   8.090   3.134   3.870 -0.3386  0.3257 -0.6003
14581TIP3    H243685   7.952   3.160   3.927  0.2201  3.3423 -0.4618
14582TIP3   OH243686   7.754   6.512   5.867 -0.3577 -0.2919 -0.1583
14582TIP3    H143687   7.687   6.454   5.828  1.4858 -1.7597 -1.3152
14582TIP3    H243688   7.831   6.456   5.877  0.5938  1.2356  1.5588
14583TIP3   OH243689   4.456   3.210   6.750 -0.3634 -0.3053  0.4852
14583TIP3    H143690   4.414   3.220   6.664  2.1753 -2.0674 -1.0957
14583TIP3    H243691   4.438   3.293   6.794 -3.2033  0.0207 -1.0318
14584TIP3   OH243692   6.184   1.057   2.377 -0.2516  0.0126 -0.3371
14584TIP3    H143693   6.133   1.007   2.313  0.9822 -0.0966 -1.2723
14584TIP3    H243694   6.130   1.133   2.397 -0.0532  0.8575 -2.6988
14585TIP3   OH243695   2.219   2.719   3.437 -0.3540  0.5117 -0.1496
14585TIP3    H143696   2.292   2.684   3.488 -0.0534  0.3319 -0.6938
14585TIP3    H243697   2.244   2.810   3.418 -1.1477  1.0686  1.2879
14586TIP3   OH243698   2.140   7.051   2.896  0.0056  0.5776 -0.7212
14586TIP3    H143699   2.144   7.096   2.812  0.1667 -1.4349 -1.8606
14586TIP3    H243700   2.224   7.007   2.904 -0.9285 -1.3273 -0.7764
14587TIP3   OH243701   5.704   6.614   2.721  0.5047  0.4354  0.0691
14587TIP3    H143702   5.775   6.576   2.669  0.7940 -2.3756  2.2801
14587TIP3    H243703   5.748   6.677   2.778  0.7502  0.7839 -0.4923
14588TIP3   OH243704   1.139   0.710   1.922  0.4063 -0.1100 -0.3581
14588TIP3    H143705   1.230   0.735   1.931  0.3558  0.5645 -1.5278
14588TIP3    H243706   1.090   0.787   1.953  0.1951 -0.8854  1.3652
14589TIP3   OH243707   3.994   7.806   0.042 -0.1965  0.1174 -0.1424
14589TIP3    H143708   3.993   7.733  -0.021 -2.2188  0.6068 -0.7623
14589TIP3    H243709   4.047   7.873  -0.000  1.8565 -1.0014  0.5160
14590TIP3   OH243710   2.694   5.828   1.626  0.2531  0.0880  0.1532
14590TIP3    H143711   2.684   5.832   1.531 -1.9744  0.2101  0.3225
14590TIP3    H243712   2.605   5.809   1.658  0.8724  0.4366  2.2210
14591TIP3   OH243713   6.655   7.504   2.226  0.5641  0.0111  0.3325
14591TIP3    H143714   6.571   7.476   2.190 -0.0766  1.5025  0.5557
14591TIP3    H243715   6.703   7.539   2.152 -0.1849  1.7600  0.6058
14592TIP3   OH243716   4.742   3.115   1.422  0.0171 -0.3607  0.2842
14592TIP3    H143717   4.654   3.127   1.387  0.0086  0.0535  0.4459
14592TIP3    H243718   4.782   3.050   1.364  0.1133  0.5343 -0.6697
14593TIP3   OH243719   4.664   0.221   1.686  0.0144  0.4117  0.2740
14593TIP3    H143720   4.581   0.265   1.668  0.2184  1.3056  1.3843
14593TIP3    H243721   4.644   0.157   1.754  0.3159  0.9817  0.9113
14594TIP3   OH243722   0.986   4.576   4.588  0.8703  0.8741  0.8130
14594TIP3    H143723   0.899   4.615   4.589  2.2237  4.2045  2.5816
14594TIP3    H243724   0.971   4.485   4.615 -2.0959  1.0441  0.1626
14595TIP3   OH243725   2.383   2.117   4.401 -0.1466  0.3381  0.3958
14595TIP3    H143726   2.325   2.088   4.330  0.3205 -1.4560  0.7008
14595TIP3    H243727   2.441   2.181   4.359  0.6052 -1.2188 -1.0524
14596TIP3   OH243728   2.879   0.870   3.470 -0.5271  0.2784  0.3301
14596TIP3    H143729   2.895   0.952   3.518  1.1754 -0.9846  2.0722
14596TIP3    H243730   2.962   0.823   3.477 -1.6114 -1.7876 -0.2405
14597TIP3   OH243731   6.578   5.239   4.318  0.1910  0.1119  0.5373
14597TIP3    H143732   6.518   5.303   4.357  0.2842 -0.6544  2.0059
14597TIP3    H243733   6.545   5.154   4.347 -0.2338 -0.5895 -1.8128
14598TIP3   OH243734   2.140   7.195   5.099 -0.4462 -0.2930  0.0593
14598TIP3    H143735   2.226   7.188   5.139 -0.1334 -0.1731 -0.5912
14598TIP3    H243736   2.138   7.126   5.033 -1.2598 -1.0237  0.8050
14599TIP3   OH243737   3.023   7.554   1.942 -0.2334 -0.4791 -0.2639
14599TIP3    H143738   3.007   7.462   1.923 -1.8277 -0.5143  1.0065
14599TIP3    H243739   2.936   7.590   1.961  0.4696  1.0579  0.2207
14600TIP3   OH243740   0.231   7.709   0.304 -0.5026 -0.3935  0.0036
14600TIP3    H143741   0.178   7.759   0.242 -1.1159  0.0436  0.8605
14600TIP3    H243742   0.290   7.657   0.249 -0.6145  0.4337 -0.9259
14601TIP3   OH243743   5.049   1.691   2.536  0.2159  0.2156  0.4475
14601TIP3    H143744   5.073   1.609   2.578  0.3325  0.1649  0.2838
14601TIP3    H243745   4.967   1.672   2.491 -0.5318  0.5825  1.5988
14602TIP3   OH243746   1.349   5.978   5.526  0.5787  0.4619  0.1164
14602TIP3    H143747   1.352   5.919   5.451  1.1079 -0.7890  1.0920
14602TIP3    H243748   1.278   6.039   5.505  0.4345 -0.1225 -1.1956
14603TIP3   OH243749   8.002   2.868   0.949  0.5373  0.1611 -0.0148
14603TIP3    H143750   7.980   2.835   0.862  2.9877  0.0464 -0.6879
14603TIP3    H243751   8.056   2.799   0.988  1.4498  1.1986  0.6215
14604TIP3   OH243752   3.541   0.001   6.660 -0.3951  0.0824 -0.0567
14604TIP3    H143753   3.474   0.047   6.609 -0.9820  1.6482  2.0084
14604TIP3    H243754   3.612   0.065   6.668  0.8707 -1.1165 -1.1398
14605TIP3   OH243755   5.246   2.770   0.838 -0.8658  0.0678 -0.3404
14605TIP3    H143756   5.264   2.676   0.832  5.1736  0.5435  2.5026
14605TIP3    H243757   5.203   2.781   0.922  0.7144 -0.1239  0.5347
14606TIP3   OH243758   5.251   3.495   3.010 -0.5537  0.2130 -0.1407
14606TIP3    H143759   5.197   3.450   2.945 -1.6500 -0.0756  0.9413
14606TIP3    H243760   5.270   3.428   3.076  1.4780  0.1956 -0.6654
14607TIP3   OH243761   4.474   2.465   2.053  0.3477 -0.5556  0.0337
14607TIP3    H143762   4.479   2.374   2.026  1.6922 -1.0278  1.6708
14607TIP3    H243763   4.549   2.507   2.009  0.6523 -0.6099  0.4913
14608TIP3   OH243764   4.236   1.707   2.374  0.7126 -0.1613 -0.3762
14608TIP3    H143765   4.189   1.771   2.321 -1.7734 -1.0239  0.6834
14608TIP3    H243766   4.277   1.759   2.443 -0.9100  0.3946  0.2185
14609TIP3   OH243767   1.400   6.036   5.818 -0.3658 -0.6889  0.1311
14609TIP3    H143768   1.494   6.053   5.819 -0.4795 -0.0237  0.5984
14609TIP3    H243769   1.384   5.993   5.734  0.2760 -0.3301 -0.1844
14610TIP3   OH243770   0.774   0.114   6.102 -0.0966  0.6736  0.4018
14610TIP3    H143771   0.756   0.206   6.087 -1.5059  0.4967  0.8979
14610TIP3    H243772   0.828   0.087   6.027 -0.3405  1.6930 -0.1497
14611TIP3   OH243773   3.511   1.700   3.284 -0.4777 -0.7140 -0.1599
14611TIP3    H143774   3.601   1.712   3.314 -0.3995  1.0443 -0.9150
14611TIP3    H243775   3.516   1.630   3.219  0.0307 -1.7658  0.9768
14612TIP3   OH243776   5.438   1.285   2.902  0.1342  0.0297  0.1416
14612TIP3    H143777   5.405   1.195   2.909 -2.2684  0.8738  0.6149
14612TIP3    H243778   5.517   1.286   2.957 -0.8809 -1.3306  1.7070
14613TIP3   OH243779   3.592   5.942   4.746 -0.2059  0.0731 -0.3327
14613TIP3    H143780   3.545   5.986   4.675  1.6481  2.8740  0.0035
14613TIP3    H243781   3.671   5.908   4.704  0.8552  1.6652  0.2507
14614TIP3   OH243782   8.049   7.010   2.732 -0.2384  0.5756 -0.3256
14614TIP3    H143783   8.098   7.087   2.760 -0.7260  1.4150 -1.6656
14614TIP3    H243784   7.977   7.003   2.795 -1.7653  2.8700 -1.6435
14615TIP3   OH243785   6.658   3.683   6.166 -0.1919 -0.6159 -0.0705
14615TIP3    H143786   6.659   3.587   6.158 -2.4546 -0.7146  0.0500
14615TIP3    H243787   6.724   3.702   6.233 -0.5121 -2.2210  0.7701
14616TIP3   OH243788   2.655   6.943   3.482 -0.2871 -0.3065  0.1916
14616TIP3    H143789   2.659   6.865   3.536 -0.1787 -1.0167 -0.8261
14616TIP3    H243790   2.739   6.945   3.436  0.9636  1.9909  2.3086
14617TIP3   OH243791   1.099   4.519   4.151 -0.1057  0.4162  0.0034
14617TIP3    H143792   1.140   4.500   4.236 -0.9482  1.1830  0.6098
14617TIP3    H243793   1.040   4.446   4.136 -0.4482  0.5994  0.4174
14618TIP3   OH243794   2.477   5.425   3.256  0.4536  0.0779  0.2701
14618TIP3    H143795   2.484   5.398   3.348 -0.2082  0.2314  0.3706
14618TIP3    H243796   2.443   5.514   3.260 -0.4555 -0.2399 -0.1424
14619TIP3   OH243797   2.474   5.999   2.309  0.3304 -0.0073  0.3108
14619TIP3    H143798   2.454   6.013   2.402 -0.1658 -0.7981  0.3249
14619TIP3    H243799   2.520   6.079   2.283  0.8866  0.0393  1.3559
14620TIP3   OH243800   7.813   6.350   1.327 -0.2921 -0.0104 -0.1377
14620TIP3    H143801   7.806   6.257   1.346 -2.0259 -0.5600 -2.9356
14620TIP3    H243802   7.907   6.365   1.313 -0.0025 -1.3341  0.2372
14621TIP3   OH243803   8.112   0.914   1.304 -0.4697  0.3058  0.1363
14621TIP3    H143804   8.169   0.857   1.357 -0.8987 -0.6432 -0.4054
14621TIP3    H243805   8.083   0.982   1.365  1.4831  1.0196  0.3609
14622TIP3   OH243806   5.352   2.762   1.147 -0.1201 -0.1981 -0.0066
14622TIP3    H143807   5.258   2.748   1.143 -0.3342  1.3562 -2.0696
14622TIP3    H243808   5.363   2.857   1.139  1.6479 -0.4531 -1.1770
14623TIP3   OH243809   6.065   2.478   2.522 -0.3006  0.5276 -0.5227
14623TIP3    H143810   6.075   2.514   2.610 -0.4717  1.7076 -0.9739
14623TIP3    H243811   6.020   2.394   2.536  0.1756  0.4339  0.5512
14624TIP3   OH243812   2.445   2.379   4.809  0.4867  0.1566  0.0637
14624TIP3    H143813   2.529   2.341   4.832  0.3467 -1.0122 -1.2387
14624TIP3    H243814   2.384   2.345   4.875  0.6736 -0.6058 -0.1450
14625TIP3   OH243815   7.699   2.876   5.488  0.0535  0.1142  0.0686
14625TIP3    H143816   7.722   2.918   5.405  1.2361 -1.9507 -0.7194
14625TIP3    H243817   7.765   2.808   5.500 -3.0859 -3.2736 -0.0654
14626TIP3   OH243818   7.836   5.083   0.989 -0.3567 -0.1223 -0.7099
14626TIP3    H143819   7.850   5.089   1.083 -1.3952 -0.3023 -0.5402
14626TIP3    H243820   7.921   5.056   0.954 -0.0383 -0.3209  0.1998
14627TIP3   OH243821   5.333   2.368   2.453 -0.5565 -0.4283 -0.4566
14627TIP3    H143822   5.318   2.452   2.496  0.7396 -0.8218  0.8285
14627TIP3    H243823   5.377   2.390   2.371 -1.2904  0.2014 -0.6906
14628TIP3   OH243824   6.011   7.769   6.441 -0.6301  0.4074 -0.0251
14628TIP3    H143825   5.985   7.774   6.349  0.4147  0.3792 -0.3266
14628TIP3    H243826   5.933   7.736   6.486 -1.9714  2.6177 -0.5378
14629TIP3   OH243827   3.723   3.897   5.935 -0.1101 -0.0569  0.2578
14629TIP3    H143828   3.654   3.842   5.899 -0.3076  0.3575  0.0089
14629TIP3    H243829   3.765   3.937   5.859  0.9214 -0.9037  0.3424
14630TIP3   OH243830   7.531   1.505   1.246  0.1780  0.0567  0.5868
14630TIP3    H143831   7.503   1.435   1.187  0.4041 -0.1832  0.7581
14630TIP3    H243832   7.521   1.585   1.196  1.8568 -0.2618 -0.3459
14631TIP3   OH243833   4.576   1.795   6.565 -0.6147  0.0713 -0.0050
14631TIP3    H143834   4.630   1.786   6.486 -0.8952  0.8552 -0.2981
14631TIP3    H243835   4.524   1.715   6.567  1.5273 -1.4053  1.0743
14632TIP3   OH243836   6.085   5.323   4.301  0.6438 -0.6755 -0.3230
14632TIP3    H143837   6.080   5.324   4.205  3.1661  1.2015 -0.5058
14632TIP3    H243838   6.020   5.387   4.329 -0.0942 -1.2195 -0.7326
14633TIP3   OH243839   5.646   1.604   6.744 -0.3456 -0.0697 -0.0468
14633TIP3    H143840   5.613   1.556   6.820  0.4483  1.0533  1.0486
14633TIP3    H243841   5.583   1.675   6.731  0.3620  0.6872  0.5830
14634TIP3   OH243842   2.804   4.419   6.672 -0.1850 -0.5384  0.4644
14634TIP3    H143843   2.861   4.495   6.655 -0.7716 -0.3197 -0.6292
14634TIP3    H243844   2.790   4.380   6.586 -2.1540 -0.2530  0.6069
14635TIP3   OH243845   8.311   1.175   5.680  0.2670 -0.8954 -0.3225
14635TIP3    H143846   8.243   1.108   5.686  0.5142 -1.1328 -0.1603
14635TIP3    H243847   8.329   1.183   5.586 -2.1447  1.3594 -0.7044
14636TIP3   OH243848   3.274   3.005   3.808  0.0924 -0.0044 -0.0696
14636TIP3    H143849   3.318   3.090   3.810 -0.7198  0.4619 -1.0226
14636TIP3    H243850   3.265   2.980   3.900 -0.8761  1.6072  0.3198
14637TIP3   OH243851   4.837   3.596   5.965 -0.3853  0.4546  0.1895
14637TIP3    H143852   4.768   3.546   5.921  0.9909  0.0241 -1.6235
14637TIP3    H243853   4.791   3.671   6.003 -1.8563  0.2319 -1.0203
14638TIP3   OH243854   0.693   2.458   5.627  0.2628  0.7692  0.1556
14638TIP3    H143855   0.721   2.381   5.676 -1.6474 -0.5082 -0.6486
14638TIP3    H243856   0.607   2.479   5.662  1.5465  3.9180  1.8282
14639TIP3   OH243857   1.165   6.440   6.175  0.3179 -0.2059 -0.3524
14639TIP3    H143858   1.142   6.354   6.138  0.5429  0.3841 -1.9293
14639TIP3    H243859   1.163   6.499   6.100  0.6809  1.0802  0.6298
14640TIP3   OH243860   4.933   7.247   1.870  0.2102  0.7111 -0.4656
14640TIP3    H143861   4.879   7.320   1.898 -2.9011 -1.3024 -0.6573
14640TIP3    H243862   4.935   7.188   1.946 -0.2648 -0.4883 -1.3374
14641TIP3   OH243863   3.533   2.324   6.582  0.0635  0.0221 -0.3381
14641TIP3    H143864   3.508   2.414   6.605 -0.0562  0.0148 -0.4374
14641TIP3    H243865   3.518   2.319   6.487 -1.8657 -0.7072 -0.0447
14642TIP3   OH243866   6.226   5.963   0.284  0.0393 -0.4939  0.0064
14642TIP3    H143867   6.177   5.890   0.322  0.3800  0.0373  1.5387
14642TIP3    H243868   6.198   6.040   0.333  0.5236  0.2367 -0.8202
14643TIP3   OH243869   6.384   4.095   1.994  0.4379  0.1658  0.3978
14643TIP3    H143870   6.428   4.087   1.910  1.8764  1.2865  0.9959
14643TIP3    H243871   6.401   4.012   2.038  2.0908  0.6043  0.6486
14644TIP3   OH243872   0.502   5.890   1.403 -0.2542  0.3026  0.3727
14644TIP3    H143873   0.552   5.894   1.485 -0.7875  2.5763  0.6756
14644TIP3    H243874   0.563   5.919   1.336 -0.5798  1.2560  0.4588
14645TIP3   OH243875   3.309   4.320   1.244  0.0177 -0.5597  0.1804
14645TIP3    H143876   3.264   4.340   1.162 -0.2374 -0.6377  0.3008
14645TIP3    H243877   3.325   4.406   1.283 -1.0863 -0.5694  0.6995
14646TIP3   OH243878   8.063   1.226   5.512  0.2901 -0.0749 -0.3948
14646TIP3    H143879   8.088   1.273   5.433  0.5965 -0.4129 -0.4991
14646TIP3    H243880   8.110   1.271   5.582 -0.5128  0.6606 -0.3024
14647TIP3   OH243881   8.291   7.357   1.261  0.4036  0.1841  0.0045
14647TIP3    H143882   8.248   7.408   1.192 -0.9502 -0.8398  0.0482
14647TIP3    H243883   8.363   7.413   1.291 -0.0406  1.3675 -1.0416
14648TIP3   OH243884   0.316   7.505   6.767 -0.4668 -0.0116  0.5604
14648TIP3    H143885   0.246   7.461   6.816 -0.1317 -1.2928 -0.0561
14648TIP3    H243886   0.388   7.441   6.766 -0.5089 -0.0954 -1.6818
14649TIP3   OH243887   2.199   6.933   3.850  0.0416 -0.0776 -0.5143
14649TIP3    H143888   2.185   6.876   3.926  0.6338 -0.5656 -0.7632
14649TIP3    H243889   2.273   6.988   3.875 -1.8440  2.0785  0.5631
14650TIP3   OH243890   0.469   4.554   1.615  0.3583  0.1009 -0.2199
14650TIP3    H143891   0.546   4.609   1.599  0.0917  0.3539 -0.6568
14650TIP3    H243892   0.488   4.510   1.698  0.1457  1.6442  0.6888
14651TIP3   OH243893   2.929   4.899   2.174  0.2404 -0.3347 -0.3509
14651TIP3    H143894   2.962   4.863   2.092 -0.6637 -0.3235 -0.7338
14651TIP3    H243895   2.905   4.989   2.153 -2.7737 -1.1578 -0.9037
14652TIP3   OH243896   2.913   4.327   0.918 -0.1499  0.7110 -0.0270
14652TIP3    H143897   2.939   4.268   0.847 -0.5604  0.3556  0.1150
14652TIP3    H243898   2.992   4.378   0.936  0.2102  0.2154 -0.1621
14653TIP3   OH243899   5.787   2.461   6.093 -0.2208 -0.1952  0.0578
14653TIP3    H143900   5.854   2.424   6.151  0.3961  0.5340 -0.1758
14653TIP3    H243901   5.740   2.384   6.061  1.9328 -0.9725 -1.5261
14654TIP3   OH243902   3.208   5.016   1.035  0.0077 -0.1760  0.2252
14654TIP3    H143903   3.230   4.956   1.107 -0.3194  0.3958  0.8062
14654TIP3    H243904   3.289   5.063   1.018  0.0243 -0.1520  0.3704
14655TIP3   OH243905   4.289   0.666   0.002  0.1957 -0.0066  0.3694
14655TIP3    H143906   4.246   0.747   0.028 -0.2655  0.0087 -0.4145
14655TIP3    H243907   4.248   0.598   0.056 -1.0902 -0.0453 -0.6105
14656TIP3   OH243908   3.386   7.649   2.512 -1.0846 -0.1187 -0.1236
14656TIP3    H143909   3.478   7.646   2.541 -0.6246  1.8421 -1.1580
14656TIP3    H243910   3.338   7.685   2.586 -0.6259  0.8839 -0.2940
14657TIP3   OH243911   7.130   6.886   2.935 -0.2904 -0.1502 -0.0606
14657TIP3    H143912   7.127   6.848   2.848  0.7033  0.4419 -0.3618
14657TIP3    H243913   7.074   6.829   2.988  0.9053 -1.8621 -0.5632
14658TIP3   OH243914   6.969   7.417   6.741  0.5296  0.3022  0.3322
14658TIP3    H143915   6.950   7.329   6.773 -1.2111  0.5390  0.0725
14658TIP3    H243916   6.929   7.421   6.654 -0.6997  1.7592  0.9102
14659TIP3   OH243917   6.482   3.042   1.070  0.4212  0.3630 -0.3077
14659TIP3    H143918   6.541   3.117   1.058 -1.0608  1.7915  0.8657
14659TIP3    H243919   6.535   2.977   1.115  1.0679  1.7451  1.0339
14660TIP3   OH243920   0.614   2.389   2.623  0.0976  0.8714  0.1167
14660TIP3    H143921   0.536   2.381   2.678  0.5210  1.6665  0.8628
14660TIP3    H243922   0.581   2.418   2.538 -0.5883 -0.6122 -0.1583
14661TIP3   OH243923   3.397   1.835   3.073  0.2599 -0.0649  0.3999
14661TIP3    H143924   3.478   1.824   3.023 -0.8567 -0.5558 -1.4280
14661TIP3    H243925   3.418   1.804   3.161  1.5217 -2.2493 -0.5751
14662TIP3   OH243926   5.273   3.767   6.713 -0.5712 -0.4472 -0.4071
14662TIP3    H143927   5.281   3.672   6.699  0.3554 -0.5222  0.4475
14662TIP3    H243928   5.332   3.784   6.787  1.8841  1.3236 -2.5984
14663TIP3   OH243929   7.899   5.229   3.222 -0.0469 -0.4101 -0.8212
14663TIP3    H143930   7.945   5.146   3.236  1.1304  0.3963  0.3664
14663TIP3    H243931   7.832   5.231   3.290 -0.8213 -0.8792 -1.5598
14664TIP3   OH243932   4.746   1.870   4.590  0.5587  0.5598 -0.1602
14664TIP3    H143933   4.735   1.897   4.499 -2.4164  2.4451  0.6308
14664TIP3    H243934   4.800   1.791   4.585 -0.8666 -0.3785 -3.6642
14665TIP3   OH243935   3.515   1.685   2.157  0.1454 -0.1361 -0.3679
14665TIP3    H143936   3.546   1.695   2.066  1.5220 -2.6973 -0.2722
14665TIP3    H243937   3.596   1.685   2.209 -0.6428  1.6129  0.9704
14666TIP3   OH243938   6.136   0.813   3.935  0.6449  1.0833  0.0712
14666TIP3    H143939   6.135   0.905   3.911  0.5584  1.0158 -0.1877
14666TIP3    H243940   6.051   0.779   3.905  0.8695  0.8128 -0.2637
14667TIP3   OH243941   3.961   6.180   1.993 -0.0035  0.4603  0.1175
14667TIP3    H143942   3.966   6.084   1.986  0.8953  0.3206  1.9478
14667TIP3    H243943   4.026   6.212   1.931  1.4512 -0.2542  1.2004
14668TIP3   OH243944   8.276   1.877   2.270 -0.6514  0.1318 -0.0223
14668TIP3    H143945   8.290   1.971   2.261  0.4040 -0.1232 -1.3480
14668TIP3    H243946   8.331   1.851   2.343  0.8172  0.2188 -1.0490
14669TIP3   OH243947   6.230   6.998   1.745 -0.1757 -0.2580 -0.0180
14669TIP3    H143948   6.155   6.943   1.722 -0.1436 -0.0455 -0.6386
14669TIP3    H243949   6.305   6.938   1.740  0.2114  0.3305 -3.1433
14670TIP3   OH243950   1.098   6.096   6.353 -0.4298 -0.1263 -0.4911
14670TIP3    H143951   1.067   6.146   6.278  0.1590  1.0903  0.0609
14670TIP3    H243952   1.125   6.161   6.417 -0.2350 -1.1450  0.5055
14671TIP3   OH243953   3.514   0.187   4.693  1.2612 -0.2392 -0.5188
14671TIP3    H143954   3.523   0.093   4.674 -0.8954 -0.2533 -1.8456
14671TIP3    H243955   3.463   0.190   4.774  0.1290 -0.2721 -1.2005
14672TIP3   OH243956   1.379   7.562   0.126 -0.3816 -0.5148  0.4322
14672TIP3    H143957   1.445   7.629   0.143  0.7669 -1.8746  1.5010
14672TIP3    H243958   1.429   7.485   0.099 -1.5679 -1.3950  0.6681
14673TIP3   OH243959   6.858   1.325   5.072  0.0602  0.2305  0.3569
14673TIP3    H143960   6.886   1.314   5.162  0.3401 -1.4796  0.0929
14673TIP3    H243961   6.932   1.368   5.028  1.1339 -1.5204  0.3400
14674TIP3   OH243962   5.072   6.761   2.943 -0.5846 -0.2522 -0.2696
14674TIP3    H143963   5.096   6.670   2.926 -2.0278 -0.8099  0.4873
14674TIP3    H243964   5.034   6.759   3.031  0.5049  1.3143  0.2800
14675TIP3   OH243965   1.311   0.370   0.851 -0.1418  0.5257  0.3298
14675TIP3    H143966   1.248   0.302   0.827 -0.4405  0.6397  0.7813
14675TIP3    H243967   1.384   0.358   0.789 -0.3080 -0.0328  0.2365
14676TIP3   OH243968   2.455   2.176   0.274 -0.1838 -0.4067  0.0646
14676TIP3    H143969   2.433   2.115   0.344  0.5103 -1.1206 -0.3279
14676TIP3    H243970   2.546   2.201   0.291  0.0850 -0.8176 -0.7445
14677TIP3   OH243971   6.616   3.852   5.370 -0.1560 -0.2110 -0.2968
14677TIP3    H143972   6.527   3.881   5.350  0.1271  0.5248 -0.5354
14677TIP3    H243973   6.644   3.909   5.441  0.4031  0.0922 -0.7519
14678TIP3   OH243974   4.606   3.650   0.069  0.7213 -0.2984  0.1751
14678TIP3    H143975   4.636   3.625  -0.019  1.4314  3.4480 -0.8342
14678TIP3    H243976   4.511   3.641   0.066  0.8320 -1.3221 -0.5900
14679TIP3   OH243977   4.738   7.044   4.779 -0.1506  0.5386 -0.0716
14679TIP3    H143978   4.804   7.002   4.724  1.1961  1.9153  0.4309
14679TIP3    H243979   4.761   7.136   4.779 -1.2373  0.8531  1.2932
14680TIP3   OH243980   8.232   5.137   2.358  0.3612 -0.5909  0.2725
14680TIP3    H143981   8.284   5.128   2.438 -0.5516  2.4221  1.3783
14680TIP3    H243982   8.189   5.223   2.368 -3.5298 -2.1300 -1.2743
14681TIP3   OH243983   7.202   3.506   2.029 -0.1159  0.1091 -0.5422
14681TIP3    H143984   7.225   3.505   1.936  1.0266 -0.2597 -0.2720
14681TIP3    H243985   7.190   3.414   2.053  0.7682  0.1092 -0.0583
14682TIP3   OH243986   5.576   5.725   2.037  0.3367  0.2247 -0.1777
14682TIP3    H143987   5.598   5.649   2.091  2.4307  1.5501  0.9738
14682TIP3    H243988   5.518   5.777   2.092  0.8733  0.6207  0.0202
14683TIP3   OH243989   0.784   5.459   3.856 -0.5377 -0.2701 -0.4631
14683TIP3    H143990   0.702   5.509   3.862  0.1630  0.9628 -0.7798
14683TIP3    H243991   0.783   5.422   3.768 -0.3716  0.4648 -0.7837
14684TIP3   OH243992   7.122   2.952   0.581 -0.0369 -0.3502 -0.0009
14684TIP3    H143993   7.142   3.017   0.514  0.8770  0.9016  1.4348
14684TIP3    H243994   7.114   2.870   0.533 -0.2422  0.6407 -1.7364
14685TIP3   OH243995   2.197   5.317   3.403  0.0498 -0.2272 -0.5022
14685TIP3    H143996   2.209   5.399   3.451  0.0644 -0.5821  0.1020
14685TIP3    H243997   2.102   5.308   3.396  0.0517 -0.0171 -0.8176
14686TIP3   OH243998   1.776   5.329   2.365  0.3088 -0.6619  0.2718
14686TIP3    H143999   1.717   5.270   2.319 -2.4207  1.8919  0.1860
14686TIP3    H244000   1.847   5.344   2.303  0.8208 -3.3083  0.1071
14687TIP3   OH244001   6.482   2.508   6.016 -0.2011  0.4990  0.0008
14687TIP3    H144002   6.470   2.480   5.926 -1.1191 -0.8989  0.5121
14687TIP3    H244003   6.567   2.552   6.017 -0.3021  0.7764 -1.5817
14688TIP3   OH244004   5.912   2.523   1.968  0.1511 -0.6542 -0.0785
14688TIP3    H144005   5.885   2.437   1.999  0.3452 -0.3725  0.9399
14688TIP3    H244006   5.849   2.583   2.009  1.1328 -0.1625  0.7682
14689TIP3   OH244007   3.873   5.291   6.029  0.3023 -0.0260  0.1353
14689TIP3    H144008   3.861   5.263   6.120  0.5745 -0.4812  0.0336
14689TIP3    H244009   3.967   5.306   6.022  0.2687  0.0926 -0.0503
14690TIP3   OH244010   0.282   5.744   4.019  0.8109  0.2006 -0.2275
14690TIP3    H144011   0.209   5.756   4.081 -0.2039 -0.9179 -1.1527
14690TIP3    H244012   0.307   5.653   4.030  2.4593  0.7029  0.4423
14691TIP3   OH244013   7.876   3.700   3.115 -0.0285  0.2396 -0.0092
14691TIP3    H144014   7.888   3.783   3.069 -0.5129  0.6797  0.6432
14691TIP3    H244015   7.781   3.690   3.123  0.0141 -0.5268 -0.3407
14692TIP3   OH244016   4.098   2.185   6.257  0.1686  0.0595  0.3896
14692TIP3    H144017   4.117   2.279   6.254 -1.5496  0.4241 -0.3842
14692TIP3    H244018   4.046   2.174   6.337 -1.3317  0.1615 -0.5297
14693TIP3   OH244019   1.956   4.731   1.436  0.5133  0.3712  0.3595
14693TIP3    H144020   2.000   4.660   1.485  0.2975 -0.1810 -0.2352
14693TIP3    H244021   1.887   4.686   1.386 -1.4664  1.3322  2.0729
14694TIP3   OH244022   4.455   0.795   5.094  0.0736 -0.4275 -0.8575
14694TIP3    H144023   4.498   0.753   5.168  0.8100  0.7928 -0.5497
14694TIP3    H244024   4.456   0.889   5.116 -1.4071 -0.2109 -1.5441
14695TIP3   OH244025   4.045   0.606   1.106 -0.1740 -0.1550  0.2113
14695TIP3    H144026   4.077   0.662   1.177 -0.0664  0.0890 -0.0298
14695TIP3    H244027   3.958   0.578   1.135  0.3580 -1.0712  1.0175
14696TIP3   OH244028   5.540   6.931  -0.012 -0.3936 -0.0035 -0.3577
14696TIP3    H144029   5.622   6.928   0.037  0.2938 -2.5573 -1.5099
14696TIP3    H244030   5.476   6.964   0.051  0.9823 -0.5865  1.4393
14697TIP3   OH244031   4.176   4.589   0.981  0.3620  0.1734  0.0001
14697TIP3    H144032   4.165   4.502   0.942  0.6903 -0.3242  0.9864
14697TIP3    H244033   4.106   4.596   1.045  0.1568  0.7688 -0.2812
14698TIP3   OH244034   5.536   1.853   6.696  0.1542 -0.1241  0.1048
14698TIP3    H144035   5.486   1.934   6.708  0.1947  0.0789 -1.0347
14698TIP3    H244036   5.599   1.873   6.627  0.3566 -1.0465  0.0020
14699TIP3   OH244037   6.973   6.241   6.497  0.5304  0.2969  0.0824
14699TIP3    H144038   7.002   6.256   6.408  0.5986 -2.2784 -0.4132
14699TIP3    H244039   7.051   6.212   6.544  0.1677  0.0587  0.5573
14700TIP3   OH244040   5.391   7.430   5.582 -0.1054  0.2991 -0.3087
14700TIP3    H144041   5.347   7.515   5.592 -1.5550 -0.6137  1.4854
14700TIP3    H244042   5.362   7.398   5.497 -1.6843  0.4378  0.1474
14701TIP3   OH244043   1.591   3.432   2.812  0.0651  0.1141 -0.4085
14701TIP3    H144044   1.500   3.461   2.807 -0.2391 -0.8851 -0.8685
14701TIP3    H244045   1.603   3.378   2.734  0.7869 -0.5043  0.1166
14702TIP3   OH244046   6.789   3.904   2.561  0.6054  0.0153  0.3217
14702TIP3    H144047   6.818   3.849   2.634  0.0926 -0.9364 -0.1579
14702TIP3    H244048   6.857   3.970   2.551  1.3471 -0.6581  0.8016
14703TIP3   OH244049   0.873   1.232   1.143 -0.6078  0.3936 -0.2653
14703TIP3    H144050   0.921   1.314   1.138 -0.2422  0.2287  0.4055
14703TIP3    H244051   0.941   1.164   1.148 -0.9048  0.0989 -0.1525
14704TIP3   OH244052   5.334   0.423   3.654 -0.2452  0.1306  0.3475
14704TIP3    H144053   5.268   0.413   3.723  1.6945 -1.8705  2.0880
14704TIP3    H244054   5.345   0.334   3.619  0.6088  0.6703 -0.7958
14705TIP3   OH244055   1.325   5.593   0.646 -0.1969 -0.0228  0.2017
14705TIP3    H144056   1.273   5.513   0.641 -1.7875  1.0309 -0.9224
14705TIP3    H244057   1.413   5.563   0.668 -0.8350 -2.0348  0.2034
14706TIP3   OH244058   8.173   4.036   0.497 -0.7605  0.1379  0.5531
14706TIP3    H144059   8.182   3.963   0.436  1.8804 -0.4377  1.4997
14706TIP3    H244060   8.251   4.031   0.552 -0.4397  3.7393  0.6248
14707TIP3   OH244061   1.136   6.372   1.262  0.6122  0.2195 -0.1178
14707TIP3    H144062   1.143   6.316   1.185 -0.2271 -0.1577  0.0660
14707TIP3    H244063   1.064   6.432   1.241  0.5785  0.3120  0.2547
14708TIP3   OH244064   7.375   2.282   4.467 -0.4106  0.2563 -0.0495
14708TIP3    H144065   7.433   2.349   4.504 -1.3487  1.4560 -0.6876
14708TIP3    H244066   7.425   2.201   4.475  0.8061  1.0364  0.6472
14709TIP3   OH244067   6.280   7.844   6.288  0.3572  0.1380 -0.2624
14709TIP3    H144068   6.244   7.906   6.351  0.2174  0.6913 -0.8784
14709TIP3    H244069   6.348   7.893   6.242  1.6638 -0.7794  0.6132
14710TIP3   OH244070   3.685   4.641   1.946  0.1738  0.3912  0.0784
14710TIP3    H144071   3.661   4.578   2.014  0.2314 -0.1516 -0.3959
14710TIP3    H244072   3.780   4.643   1.946  0.1783  1.6507  1.1437
14711TIP3   OH244073   1.616   3.419   5.735  0.6112  0.0918 -0.3499
14711TIP3    H144074   1.681   3.488   5.724 -0.1803  1.0023  0.4014
14711TIP3    H244075   1.640   3.376   5.817  0.3929  0.3104 -0.1665
14712TIP3   OH244076   3.609   7.694   1.930 -0.2245 -0.2554  0.5780
14712TIP3    H144077   3.627   7.700   1.836 -0.5489 -1.2334  0.4408
14712TIP3    H244078   3.688   7.728   1.972  0.7869 -1.7229 -0.0309
14713TIP3   OH244079   8.292   7.167   1.920  0.2135 -0.2320 -0.3114
14713TIP3    H144080   8.242   7.102   1.968 -0.8600 -0.1378 -1.2721
14713TIP3    H244081   8.277   7.147   1.827  2.8350 -0.8787 -0.6734
14714TIP3   OH244082   2.827   2.744   3.594 -0.3190 -0.9540  0.1581
14714TIP3    H144083   2.901   2.781   3.642 -0.2890 -2.4188  1.3264
14714TIP3    H244084   2.864   2.718   3.510  0.6278 -2.0150  0.8647
14715TIP3   OH244085   0.152   6.575   1.761 -0.6851  0.3615  0.1190
14715TIP3    H144086   0.119   6.658   1.793 -1.5282 -0.2960  1.0246
14715TIP3    H244087   0.080   6.537   1.712 -0.7194 -0.3318  0.6838
14716TIP3   OH244088   6.874   3.310   0.352 -0.3385 -0.3181 -0.3389
14716TIP3    H144089   6.851   3.230   0.398  0.2560 -1.4797 -1.9676
14716TIP3    H244090   6.888   3.375   0.421  2.3019 -2.4113  1.2708
14717TIP3   OH244091   6.394   4.812   2.249 -0.0035 -0.4599 -0.5804
14717TIP3    H144092   6.479   4.830   2.209  1.0177  0.3643  1.7605
14717TIP3    H244093   6.336   4.881   2.216  0.9154  0.4671 -0.2964
14718TIP3   OH244094   7.855   5.537   3.851 -0.4146  0.3857  0.2377
14718TIP3    H144095   7.909   5.616   3.841  0.6089 -0.1228  1.5204
14718TIP3    H244096   7.839   5.531   3.946 -0.0545 -1.2293  0.2079
14719TIP3   OH244097   4.138   7.349   5.373  0.0074  0.2492  0.0536
14719TIP3    H144098   4.042   7.346   5.372  0.0147 -1.4075  0.8127
14719TIP3    H244099   4.164   7.257   5.372  1.5390  0.6067  1.9060
14720TIP3   OH244100   4.184   4.030   2.139  0.3405  0.4596 -0.2947
14720TIP3    H144101   4.261   4.084   2.126  0.2977  0.3930 -0.8888
14720TIP3    H244102   4.210   3.966   2.205  0.9549  0.1408 -0.8301
14721TIP3   OH244103   4.265   4.255   4.710  0.0135  0.2920  0.2416
14721TIP3    H144104   4.209   4.317   4.664 -0.7043 -1.1250 -0.8897
14721TIP3    H244105   4.308   4.307   4.778 -0.2631  2.0892 -0.8874
14722TIP3   OH244106   6.729   0.812   3.418 -0.4166 -0.5289 -0.9098
14722TIP3    H144107   6.745   0.725   3.454  0.7778  0.1658  0.3982
14722TIP3    H244108   6.723   0.799   3.324  2.1051 -1.7582 -0.9848
14723TIP3   OH244109   7.657   4.785   4.779  0.1274  0.0577 -0.2282
14723TIP3    H144110   7.742   4.779   4.821  0.5464  1.6393 -0.7877
14723TIP3    H244111   7.672   4.839   4.701 -0.4131 -3.4208 -3.0274
14724TIP3   OH244112   7.920   3.905   6.763 -0.1302 -0.0483  0.6365
14724TIP3    H144113   7.991   3.922   6.825  0.3066  1.6163 -0.2652
14724TIP3    H244114   7.964   3.886   6.680 -0.7180 -1.5443  0.6435
14725TIP3   OH244115   5.822   0.386   2.764 -0.0122 -0.0956 -0.1064
14725TIP3    H144116   5.877   0.323   2.810  0.9199  0.6065 -0.2122
14725TIP3    H244117   5.873   0.467   2.766 -1.4042  0.8074  0.4954
14726TIP3   OH244118   1.929   7.746   2.757  0.0930 -0.2324 -0.2187
14726TIP3    H144119   1.964   7.819   2.808 -0.0831  0.2909 -0.8302
14726TIP3    H244120   1.876   7.696   2.819  0.1318  0.2173  0.1838
14727TIP3   OH244121   6.640   3.488   1.442 -0.4737 -0.1806  0.1695
14727TIP3    H144122   6.552   3.525   1.434 -0.0253  1.0638  0.7178
14727TIP3    H244123   6.626   3.400   1.478 -1.5715 -0.6051 -1.1872
14728TIP3   OH244124   1.558   2.087   0.673 -0.2811  0.0540  0.0717
14728TIP3    H144125   1.484   2.133   0.634 -0.0273 -0.6109 -1.2457
14728TIP3    H244126   1.634   2.115   0.622 -0.0900 -1.6014 -0.6433
14729TIP3   OH244127   4.387   3.191   5.675  0.2971  0.1756  0.2881
14729TIP3    H144128   4.434   3.108   5.677 -0.8301 -0.5150 -0.3641
14729TIP3    H244129   4.455   3.257   5.667  1.2094 -0.6930  0.5610
14730TIP3   OH244130   0.859   3.572   4.630  0.0229  0.7049 -0.5947
14730TIP3    H144131   0.893   3.662   4.628  0.3845  0.6069  0.3145
14730TIP3    H244132   0.937   3.517   4.633 -0.1971  0.3570 -1.1315
14731TIP3   OH244133   2.368   4.001   1.822 -0.0343 -0.1097 -0.3053
14731TIP3    H144134   2.351   4.091   1.797 -2.2092 -0.2898  0.3292
14731TIP3    H244135   2.391   4.005   1.915 -0.7628 -0.2267 -0.1070
14732TIP3   OH244136   2.591   2.435   2.828  0.0870 -0.0465  0.1553
14732TIP3    H144137   2.625   2.347   2.842  2.1145  0.8183  1.0548
14732TIP3    H244138   2.496   2.424   2.831  0.2814 -2.1434  0.5386
14733TIP3   OH244139   0.924   2.028   1.039  0.0779 -0.8782  0.3756
14733TIP3    H144140   0.985   2.016   0.967  3.5259  0.5165  2.7664
14733TIP3    H244141   0.920   1.942   1.082 -0.2727 -1.1765 -0.2522
14734TIP3   OH244142   2.749   5.455   1.516  0.1331  0.1955 -0.6175
14734TIP3    H144143   2.720   5.451   1.425 -0.2560 -3.1644 -0.4989
14734TIP3    H244144   2.669   5.445   1.567  0.4858  0.7750  0.0597
14735TIP3   OH244145   4.789   3.887   0.011  0.0023 -0.4513  0.0661
14735TIP3    H144146   4.734   3.814   0.040  1.4391 -1.6405 -0.0702
14735TIP3    H244147   4.876   3.848  -0.000  1.1460  1.5862  1.3314
14736TIP3   OH244148   4.905   4.575   3.615 -0.5444 -0.0877  0.3333
14736TIP3    H144149   4.844   4.568   3.688 -1.3769  0.7315 -0.2583
14736TIP3    H244150   4.912   4.669   3.598  1.9539 -0.0436  1.2508
14737TIP3   OH244151   7.250   3.657   4.562 -0.0084  0.6121  0.0463
14737TIP3    H144152   7.272   3.636   4.472 -3.7247 -1.1773 -0.6488
14737TIP3    H244153   7.183   3.725   4.555 -2.5541 -1.5938  1.1079
14738TIP3   OH244154   5.474   3.908   2.670 -0.5452 -0.2289  0.3423
14738TIP3    H144155   5.444   3.984   2.621  1.4147  0.3465 -0.0387
14738TIP3    H244156   5.401   3.887   2.728 -2.7211 -0.5423 -2.2946
14739TIP3   OH244157   0.189   7.635   0.574  0.1028  0.2128  0.4523
14739TIP3    H144158   0.213   7.624   0.482 -1.6991 -2.8583  0.2156
14739TIP3    H244159   0.271   7.624   0.622  1.1971  2.5115 -0.6940
14740TIP3   OH244160   4.596   5.434   0.883 -0.5860  0.1281  0.1607
14740TIP3    H144161   4.683   5.459   0.852  0.6447 -0.8720  2.5355
14740TIP3    H244162   4.574   5.356   0.833  0.0085  0.2107 -0.2457
14741TIP3   OH244163   1.982   1.100   4.014  0.0842 -0.2193 -0.4924
14741TIP3    H144164   2.016   1.171   3.959  0.0157  0.3243  0.1480
14741TIP3    H244165   2.060   1.057   4.049  0.1269 -0.0821 -0.4160
14742TIP3   OH244166   4.324   0.812   3.751 -0.2453  0.2057  0.8716
14742TIP3    H144167   4.381   0.753   3.703 -1.3052 -0.4781  0.4362
14742TIP3    H244168   4.355   0.900   3.727  0.7657 -0.1398  0.8410
14743TIP3   OH244169   2.029   6.289   4.539 -0.1326 -0.1289  0.3114
14743TIP3    H144170   1.997   6.203   4.568  0.8886  0.2998  2.9876
14743TIP3    H244171   1.955   6.348   4.556  0.0221 -0.0892  0.8640
14744TIP3   OH244172   7.291   3.654   0.374 -0.3067  0.1799  0.7671
14744TIP3    H144173   7.296   3.742   0.411 -0.8849  0.1272  0.9844
14744TIP3    H244174   7.382   3.626   0.364 -0.1126 -0.1417  2.9622
14745TIP3   OH244175   1.687   5.896   3.429 -0.0634 -0.0408 -0.0955
14745TIP3    H144176   1.670   5.956   3.502 -0.3516  0.5214 -0.6108
14745TIP3    H244177   1.782   5.882   3.432 -0.0694  0.0033  0.3637
14746TIP3   OH244178   1.826   7.853   0.574 -0.1740 -0.8175 -0.2299
14746TIP3    H144179   1.783   7.933   0.544  0.1074 -0.8106 -0.6193
14746TIP3    H244180   1.756   7.803   0.616 -0.4431 -0.5578 -0.3640
14747TIP3   OH244181   0.052   3.280   6.345  0.1594  0.1979  0.0308
14747TIP3    H144182   0.085   3.190   6.344 -0.1303  0.0906 -1.0672
14747TIP3    H244183   0.122   3.330   6.387  0.7305 -0.4012 -0.1834
14748TIP3   OH244184   7.349   5.081   4.823  0.1827 -0.1984  0.7550
14748TIP3    H144185   7.391   5.167   4.823 -0.3626  0.0773  0.1326
14748TIP3    H244186   7.290   5.084   4.899 -0.2585  0.1914  0.4001
14749TIP3   OH244187   3.467   4.102   6.430 -0.2334  0.8929 -0.1863
14749TIP3    H144188   3.484   4.102   6.336 -0.2746  1.2190 -0.1957
14749TIP3    H244189   3.534   4.044   6.467  0.0874  1.1517 -0.3606
14750TIP3   OH244190   2.225   6.461   0.917 -0.1715  0.3918 -0.1759
14750TIP3    H144191   2.185   6.376   0.936  0.2242  0.7405  2.5191
14750TIP3    H244192   2.152   6.523   0.925 -0.1166  0.4990 -0.4867
14751TIP3   OH244193   2.654   6.842   6.394 -0.6444  0.6601  0.2765
14751TIP3    H144194   2.713   6.767   6.403  1.2702  2.0285 -0.3684
14751TIP3    H244195   2.594   6.833   6.468  1.8698  0.4861  2.4721
14752TIP3   OH244196   5.575   1.117   2.008 -0.2934  0.2229  0.5067
14752TIP3    H144197   5.518   1.060   2.059 -0.5381 -0.2133 -0.2422
14752TIP3    H244198   5.535   1.204   2.016 -0.0896  0.2518  1.3918
14753TIP3   OH244199   1.811   5.003   2.162  0.0248  0.1862 -0.1009
14753TIP3    H144200   1.717   4.988   2.151  0.4883 -1.0949 -3.8130
14753TIP3    H244201   1.831   4.965   2.248 -2.3097 -2.6886 -0.6646
14754TIP3   OH244202   3.549   1.355   2.036 -0.2051 -0.4176  0.3951
14754TIP3    H144203   3.503   1.438   2.018  3.2708  1.8350  1.0381
14754TIP3    H244204   3.616   1.350   1.968 -0.6762 -3.1071  0.0310
14755TIP3   OH244205   7.635   3.533   3.150  0.7803 -0.2201  0.4574
14755TIP3    H144206   7.594   3.500   3.230  0.4963 -2.4387 -0.5277
14755TIP3    H244207   7.612   3.627   3.149 -1.0616 -0.5811  1.8591
14756TIP3   OH244208   5.559   3.973   3.433  0.6406  0.0773 -0.2476
14756TIP3    H144209   5.580   4.024   3.512 -1.5647 -1.3989  1.4103
14756TIP3    H244210   5.465   3.956   3.440  0.7548 -1.7433 -2.2527
14757TIP3   OH244211   3.666   3.289   4.081 -0.2201 -0.8962 -0.1129
14757TIP3    H144212   3.622   3.358   4.031 -1.2846 -2.1996 -1.0594
14757TIP3    H244213   3.758   3.298   4.056 -0.2234  0.5763  0.2977
14758TIP3   OH244214   5.772   0.237   4.525 -0.4155 -0.2388  0.1311
14758TIP3    H144215   5.703   0.272   4.468 -0.0368 -1.7170 -1.3298
14758TIP3    H244216   5.777   0.144   4.502  1.2330 -0.4230  1.0702
14759TIP3   OH244217   5.811   1.152   5.688  0.5045 -0.7246  0.6732
14759TIP3    H144218   5.825   1.231   5.740 -2.5968  1.8256 -1.9332
14759TIP3    H244219   5.867   1.164   5.611 -0.4833 -0.6709 -0.0555
14760TIP3   OH244220   8.281   6.392   2.828  0.0691 -0.2066 -0.5948
14760TIP3    H144221   8.186   6.392   2.820 -0.0318 -1.4499  0.3215
14760TIP3    H244222   8.313   6.407   2.739 -0.9721  0.1803 -0.9189
14761TIP3   OH244223   2.369   6.852   2.839 -0.7042  0.0002 -0.4125
14761TIP3    H144224   2.370   6.894   2.753 -0.5927 -0.7636 -0.7906
14761TIP3    H244225   2.461   6.850   2.865 -0.9132  2.7261  1.0007
14762TIP3   OH244226   0.494   1.034   5.140  0.6462  0.2215 -0.0135
14762TIP3    H144227   0.462   0.968   5.079 -0.9211 -0.9038  1.9006
14762TIP3    H244228   0.566   1.076   5.094 -1.2597  0.3700 -3.1456
14763TIP3   OH244229   6.684   4.136   0.992  0.5460 -0.2700 -0.6453
14763TIP3    H144230   6.720   4.054   0.960  0.3047 -0.3837 -0.6283
14763TIP3    H244231   6.606   4.150   0.940  1.7149  1.0406 -2.1313
14764TIP3   OH244232   1.852   3.743   3.356 -0.6038 -0.0680 -0.2033
14764TIP3    H144233   1.870   3.823   3.404 -1.0664 -0.6220  0.9211
14764TIP3    H244234   1.763   3.755   3.321 -0.6985 -0.1188  0.0200
14765TIP3   OH244235   5.123   6.103   5.751 -0.4085 -0.1132 -0.1157
14765TIP3    H144236   5.042   6.058   5.728 -1.0357  0.2792  1.2543
14765TIP3    H244237   5.099   6.164   5.820  0.5146  2.0535 -1.5772
14766TIP3   OH244238   1.141   2.058   1.633  0.1329  0.2241 -0.2044
14766TIP3    H144239   1.112   1.972   1.604 -1.5091  1.5933 -3.0837
14766TIP3    H244240   1.061   2.103   1.660  0.8690  1.0621  0.6849
14767TIP3   OH244241   2.067   3.043   3.133  0.3038 -0.2067 -0.3563
14767TIP3    H144242   2.111   3.062   3.216 -1.9561 -3.0295  1.6881
14767TIP3    H244243   1.974   3.057   3.151 -0.1270  2.5696 -3.6164
14768TIP3   OH244244   1.776   4.143   3.178  0.0396 -0.0189 -0.0783
14768TIP3    H144245   1.767   4.090   3.099  1.0286  0.4885 -0.5399
14768TIP3    H244246   1.838   4.212   3.155 -0.3742  0.6976  0.8522
14769TIP3   OH244247   7.731   4.618   0.697  0.8836 -0.5551  0.1793
14769TIP3    H144248   7.733   4.713   0.707  0.0715 -0.6581  1.6787
14769TIP3    H244249   7.783   4.584   0.770 -0.5666 -1.2797  0.9389
14770TIP3   OH244250   2.017   1.660   4.214 -0.6763 -0.3414  0.3706
14770TIP3    H144251   2.105   1.625   4.204 -0.7174 -0.0192 -1.4895
14770TIP3    H244252   1.962   1.582   4.228 -0.0539 -0.4867  2.3046
14771TIP3   OH244253   7.011   1.148   0.275 -0.1382 -0.2252 -0.1643
14771TIP3    H144254   7.093   1.189   0.248 -0.5015 -1.4060 -3.5195
14771TIP3    H244255   7.036   1.062   0.308  0.0008 -1.1702 -2.5260
14772TIP3   OH244256   4.431   2.325   1.779  0.0797  0.2613 -0.3658
14772TIP3    H144257   4.367   2.395   1.769  1.5147  1.7798  0.5565
14772TIP3    H244258   4.515   2.365   1.758  0.9714 -1.1638  0.2845
14773TIP3   OH244259   1.938   4.313   3.047  0.1611 -0.3447  0.2721
14773TIP3    H144260   1.883   4.379   3.005 -0.6703 -0.3745  1.2668
14773TIP3    H244261   2.019   4.313   2.996 -0.2289  0.6929 -0.3794
14774TIP3   OH244262   5.080   1.746   2.100  0.2136  0.1261  0.0998
14774TIP3    H144263   5.002   1.773   2.150 -0.4821  0.9141 -1.3578
14774TIP3    H244264   5.137   1.823   2.100 -1.2195  1.3418 -2.9882
14775TIP3   OH244265   8.265   6.604   4.074  0.6048 -0.0069 -0.5036
14775TIP3    H144266   8.257   6.513   4.047  3.1340 -0.6007  0.4206
14775TIP3    H244267   8.270   6.600   4.170 -2.3128  1.4628 -0.1821
14776TIP3   OH244268   5.298   0.204   1.667 -0.0499 -0.6343 -0.0646
14776TIP3    H144269   5.291   0.212   1.762  0.8869 -1.0309  0.0441
14776TIP3    H244270   5.336   0.288   1.639 -1.2894 -0.0936 -0.2238
14777TIP3   OH244271   6.374   1.504   4.891 -0.1187 -0.3036  0.1544
14777TIP3    H144272   6.402   1.533   4.804 -0.0425 -1.5422 -0.2437
14777TIP3    H244273   6.444   1.532   4.949  0.4188 -0.5488 -0.3664
14778TIP3   OH244274   6.810   4.088   0.556  0.2965 -0.2198 -0.0153
14778TIP3    H144275   6.872   4.046   0.496  0.9712  0.9124 -0.1518
14778TIP3    H244276   6.727   4.043   0.541  1.1655 -2.0633  0.4685
14779TIP3   OH244277   7.736   4.315   0.943 -0.1626  0.0493 -0.0527
14779TIP3    H144278   7.678   4.357   1.008 -0.2113 -0.8410  0.4884
14779TIP3    H244279   7.696   4.230   0.927 -0.9299  0.7411 -2.3067
14780TIP3   OH244280   5.139   1.716   6.096  0.5012 -0.2150 -0.1700
14780TIP3    H144281   5.212   1.777   6.091  1.4421 -1.0990  1.8173
14780TIP3    H244282   5.080   1.743   6.025  1.6597  1.9252 -0.3857
14781TIP3   OH244283   7.088   2.549   1.907  0.3463  0.1925  0.1272
14781TIP3    H144284   7.042   2.480   1.859  1.8113 -0.9400  0.2938
14781TIP3    H244285   7.055   2.542   1.997  1.5363 -1.3124  0.4893
14782TIP3   OH244286   4.398   6.517   5.405 -0.1636  0.2091  0.5515
14782TIP3    H144287   4.344   6.441   5.383  0.8474 -0.6341  0.9043
14782TIP3    H244288   4.439   6.493   5.489  1.2807  0.5332 -0.0397
14783TIP3   OH244289   2.697   2.000   4.507  0.6330 -0.4012  0.6109
14783TIP3    H144290   2.691   1.912   4.469  1.1101 -1.8777  3.6697
14783TIP3    H244291   2.654   2.056   4.443 -0.3207 -2.9373 -1.1491
14784TIP3   OH244292   4.025   0.962   6.876  0.0589 -0.4594  0.2205
14784TIP3    H144293   3.984   1.036   6.831  1.1886 -0.9543 -1.7035
14784TIP3    H244294   4.003   0.886   6.823 -0.0285 -1.3552  1.4888
14785TIP3   OH244295   3.211   6.730   1.061  0.0062 -0.2348  0.9146
14785TIP3    H144296   3.227   6.655   1.004 -1.0796  1.9384 -2.6079
14785TIP3    H244297   3.116   6.733   1.071  0.0416  0.5584  1.0898
14786TIP3   OH244298   2.634   2.005   5.245  0.5171  0.2099  0.1694
14786TIP3    H144299   2.689   1.932   5.272  1.8738  0.9432 -0.4938
14786TIP3    H244300   2.612   2.050   5.327 -0.0611 -0.7492  0.5477
14787TIP3   OH244301   0.216   0.199   0.582  0.1118  0.1564  0.3583
14787TIP3    H144302   0.208   0.154   0.498  1.6172 -0.7693  0.6742
14787TIP3    H244303   0.215   0.129   0.647 -0.9061  0.8523  1.1206
14788TIP3   OH244304   7.980   4.443   1.960 -0.1862 -0.4738 -0.0943
14788TIP3    H144305   7.900   4.495   1.964 -0.9680 -1.7151  1.6924
14788TIP3    H244306   8.030   4.481   1.888 -2.1630  0.6325 -0.9532
14789TIP3   OH244307   2.597   3.258   6.064  0.4315 -0.6650  0.4227
14789TIP3    H144308   2.537   3.285   5.994 -0.0112  1.8742  1.6571
14789TIP3    H244309   2.591   3.163   6.065  0.0642 -0.7611 -2.6168
14790TIP3   OH244310   2.833   1.948   1.718 -0.4563  0.3041  0.5562
14790TIP3    H144311   2.880   1.970   1.637 -1.6610 -0.0941 -0.2756
14790TIP3    H244312   2.902   1.918   1.778  0.3793 -0.0986 -0.5601
14791TIP3   OH244313   5.423   2.701   2.982 -0.9146  0.0807 -0.1794
14791TIP3    H144314   5.421   2.771   3.047  0.7398 -0.1609  0.1780
14791TIP3    H244315   5.374   2.735   2.908 -0.4046  1.4977  0.1061
14792TIP3   OH244316   0.620   3.360   0.804  0.5211  0.0499 -0.4883
14792TIP3    H144317   0.549   3.303   0.773 -0.1414  1.1169 -1.0114
14792TIP3    H244318   0.686   3.300   0.839 -0.5608 -0.9840 -0.1439
14793TIP3   OH244319   0.208   6.969   3.133 -0.3984 -0.1887 -0.4573
14793TIP3    H144320   0.173   6.982   3.044  0.1338 -0.5144 -0.7181
14793TIP3    H244321   0.133   6.938   3.184 -0.6808 -0.1125 -0.8221
14794TIP3   OH244322   7.532   5.613   6.518 -0.0631 -0.0138  0.4903
14794TIP3    H144323   7.600   5.657   6.466 -0.1468  0.5042  0.8133
14794TIP3    H244324   7.486   5.558   6.454  0.2432  0.1296  0.1386
14795TIP3   OH244325   5.905   7.182   5.350  0.2519  0.3087 -0.4170
14795TIP3    H144326   5.824   7.230   5.364  0.3035  0.1036  0.6909
14795TIP3    H244327   5.879   7.105   5.299  0.4180  2.2279 -3.6543
14796TIP3   OH244328   7.892   4.664   0.440  0.1333  0.4350 -0.1845
14796TIP3    H144329   7.836   4.647   0.516  0.7458 -1.6997 -0.1343
14796TIP3    H244330   7.976   4.624   0.463  0.9501  1.4973 -1.2092
14797TIP3   OH244331   2.886   2.656   5.020  0.1644 -0.3317  0.1969
14797TIP3    H144332   2.803   2.610   5.005  0.4372 -0.2910 -1.6037
14797TIP3    H244333   2.931   2.603   5.086 -0.5982 -1.2348  0.0140
14798TIP3   OH244334   4.269   5.234   5.461 -0.3856 -0.4728  0.3131
14798TIP3    H144335   4.265   5.266   5.372 -1.7121  0.3352  0.6368
14798TIP3    H244336   4.361   5.211   5.475 -0.0114  0.1969 -0.9619
14799TIP3   OH244337   7.864   4.803   1.019 -0.0510  0.4755 -0.0460
14799TIP3    H144338   7.812   4.882   1.003 -0.6442  0.1305  0.1688
14799TIP3    H244339   7.816   4.733   0.974  0.2560  0.1607  0.1108
14800TIP3   OH244340   3.571   2.876   3.907  0.0087 -0.6976 -0.5728
14800TIP3    H144341   3.532   2.792   3.884  0.4095 -0.7175 -1.2111
14800TIP3    H244342   3.642   2.888   3.844  0.3731 -0.1809 -0.0809
14801TIP3   OH244343   4.464   6.552   2.037  0.6645 -0.0384 -0.3160
14801TIP3    H144344   4.440   6.631   1.990 -1.2686 -0.7700 -0.6395
14801TIP3    H244345   4.551   6.571   2.073  0.1224  2.3366 -0.0879
14802TIP3   OH244346   2.054   6.830   4.286 -0.2206 -0.4559 -0.6946
14802TIP3    H144347   2.020   6.775   4.357  0.6512  0.1265  0.1945
14802TIP3    H244348   2.023   6.918   4.307 -0.0874 -0.3098 -1.1127
14803TIP3   OH244349   3.054   6.693   6.210  0.2757  0.2858 -0.2504
14803TIP3    H144350   2.993   6.736   6.151  0.9678  0.8440 -0.5699
14803TIP3    H244351   3.020   6.712   6.298 -0.5214 -0.1978 -0.4509
14804TIP3   OH244352   2.570   7.797   2.680  0.0592 -0.1458  0.0496
14804TIP3    H144353   2.541   7.708   2.658 -0.4108 -0.0314  0.1892
14804TIP3    H244354   2.566   7.845   2.597  1.3923 -0.5293 -0.2641
14805TIP3   OH244355   1.687   3.458   0.821  0.3891  0.4933 -0.0125
14805TIP3    H144356   1.772   3.445   0.779 -0.7256 -2.2715 -1.7227
14805TIP3    H244357   1.625   3.464   0.748 -1.2097 -0.5621  1.1885
14806TIP3   OH244358   4.384   0.630   1.397  0.2861  0.2279 -0.2491
14806TIP3    H144359   4.458   0.675   1.439  0.5697 -0.6916  0.2838
14806TIP3    H244360   4.425   0.578   1.327 -0.0245  0.7271 -0.8076
14807TIP3   OH244361   2.503   3.580   4.917 -0.1327  0.2640  0.3666
14807TIP3    H144362   2.459   3.659   4.885 -1.4566 -0.7546 -0.3786
14807TIP3    H244363   2.585   3.613   4.955 -0.5349  1.9666 -0.1493
14808TIP3   OH244364   2.709   5.176   1.723 -0.0398 -0.4283  0.3773
14808TIP3    H144365   2.757   5.097   1.745  0.8030 -0.7043 -2.0813
14808TIP3    H244366   2.682   5.163   1.632 -0.5922  1.7672  0.1598
14809TIP3   OH244367   3.482   6.021   1.305 -0.7079  0.2318 -0.9960
14809TIP3    H144368   3.501   6.111   1.277 -0.3414  0.4123 -0.2209
14809TIP3    H244369   3.394   6.026   1.342  0.9542  1.4532  3.4946
14810TIP3   OH244370   6.745   1.011   1.237  0.4075  0.4274  0.0478
14810TIP3    H144371   6.739   1.106   1.228  0.8987  0.7051  2.0762
14810TIP3    H244372   6.707   0.993   1.323  3.5268 -0.7473  1.3506
14811TIP3   OH244373   4.757   2.529   3.851  0.2780  0.0740  0.9661
14811TIP3    H144374   4.732   2.442   3.820  1.1168  0.4855 -0.9457
14811TIP3    H244375   4.819   2.562   3.787 -0.1380  2.1734  1.5444
14812TIP3   OH244376   3.008   5.159   0.796 -0.3049 -0.1759  0.0385
14812TIP3    H144377   3.102   5.141   0.796 -0.5212 -1.3546 -0.1785
14812TIP3    H244378   2.996   5.222   0.868  0.7939  0.8520 -0.6404
14813TIP3   OH244379   3.661   7.511   3.304  0.4022 -0.2908 -0.0138
14813TIP3    H144380   3.620   7.580   3.252  0.8430  0.7607  0.9821
14813TIP3    H244381   3.589   7.452   3.327  0.1886 -0.7635 -1.7236
14814TIP3   OH244382   4.390   3.317   4.808 -0.4756  0.2448  0.0864
14814TIP3    H144383   4.345   3.371   4.744 -0.5687 -0.8980 -0.8348
14814TIP3    H244384   4.365   3.228   4.787  1.0187 -0.3047  0.5008
14815TIP3   OH244385   1.617   7.163   1.992  0.4746  0.0819 -0.1179
14815TIP3    H144386   1.539   7.108   1.987  0.4789 -0.0869  1.2150
14815TIP3    H244387   1.667   7.141   1.913 -0.9384  0.4093 -1.1453
14816TIP3   OH244388   4.713   4.372   2.616 -0.2342  0.4782  0.1902
14816TIP3    H144389   4.777   4.383   2.686 -0.4308 -1.8869  0.8380
14816TIP3    H244390   4.629   4.365   2.661 -0.3331 -1.3234 -0.1776
14817TIP3   OH244391   4.485   2.742   2.172 -0.3183  0.3678 -0.4210
14817TIP3    H144392   4.560   2.690   2.143 -0.0893  1.0622 -1.1041
14817TIP3    H244393   4.424   2.678   2.207  0.4127 -0.2543 -0.2454
14818TIP3   OH244394   4.090   2.901   5.049  0.2497  0.4062  0.1577
14818TIP3    H144395   4.096   2.995   5.031 -1.8591  0.1485 -2.7564
14818TIP3    H244396   4.016   2.894   5.110  1.1557  0.6763  1.3135
14819TIP3   OH244397   0.215   6.308   2.109  0.3448  0.0852  0.2423
14819TIP3    H144398   0.257   6.322   2.194 -0.1912 -1.8471  0.8859
14819TIP3    H244399   0.201   6.396   2.074 -0.4995  1.0023  2.6937
14820TIP3   OH244400   2.981   5.028   2.844  0.0345 -0.1605  0.1100
14820TIP3    H144401   2.944   5.057   2.928 -0.4566 -0.2535 -0.0720
14820TIP3    H244402   3.067   4.993   2.867 -0.0855 -0.1632  0.5749
14821TIP3   OH244403   5.867   1.666   6.323  0.1436 -0.0133  0.1463
14821TIP3    H144404   5.779   1.627   6.316 -0.3725  1.0809  0.2978
14821TIP3    H244405   5.863   1.720   6.402 -0.3929  3.2432 -1.9174
14822TIP3   OH244406   5.065   2.935   6.823 -0.0501  0.4446 -0.3955
14822TIP3    H144407   5.032   2.968   6.906 -0.2846  0.7139 -0.5925
14822TIP3    H244408   4.990   2.889   6.784  0.0691  0.2864 -0.4430
14823TIP3   OH244409   8.322   7.681   1.250 -0.0138  0.6079  0.3625
14823TIP3    H144410   8.310   7.745   1.179 -0.2630  0.3652  0.1828
14823TIP3    H244411   8.266   7.713   1.321 -0.7778  0.1637 -0.0176
14824TIP3   OH244412   2.800   7.760   2.970  1.0511 -0.4846  0.3182
14824TIP3    H144413   2.729   7.740   3.032 -0.9234  0.5936 -1.4706
14824TIP3    H244414   2.825   7.675   2.933 -0.8358 -0.6897 -0.5721
14825TIP3   OH244415   5.415   4.473   1.455  0.0920 -0.3378 -0.0306
14825TIP3    H144416   5.431   4.406   1.522  2.6571 -0.7480 -0.9573
14825TIP3    H244417   5.435   4.429   1.372 -1.1928  0.7142 -0.9399
14826TIP3   OH244418   0.025   4.726   5.684 -0.2804 -0.4526 -0.2392
14826TIP3    H144419   0.060   4.766   5.764 -0.3015 -0.8846 -0.0080
14826TIP3    H244420   0.100   4.720   5.625 -0.0346 -1.0537  0.1237
14827TIP3   OH244421   5.666   0.536   4.968 -0.0392 -0.5592 -0.1354
14827TIP3    H144422   5.743   0.549   5.022 -0.0419  0.0900 -0.2737
14827TIP3    H244423   5.686   0.459   4.915  1.2239  0.5715 -1.3764
14828TIP3   OH244424   4.702   1.065   4.082 -1.0136 -0.3960  0.0471
14828TIP3    H144425   4.762   1.136   4.106  1.2153 -2.2669  0.3711
14828TIP3    H244426   4.681   1.021   4.164 -1.4191 -0.8317 -0.2816
14829TIP3   OH244427   3.389   3.251   4.922  0.1122  0.1790  0.2248
14829TIP3    H144428   3.471   3.275   4.965 -0.5215  0.5660  1.2636
14829TIP3    H244429   3.413   3.181   4.862  1.3881  1.0270 -0.2945
14830TIP3   OH244430   1.075   0.253   1.812 -0.5646  0.0518  0.0377
14830TIP3    H144431   1.008   0.241   1.745  0.6320 -2.5385 -0.8591
14830TIP3    H244432   1.157   0.230   1.768  0.1861 -2.6053  2.5184
14831TIP3   OH244433   0.943   7.382   6.320  0.1258  0.1334 -0.1808
14831TIP3    H144434   0.938   7.474   6.347  0.9752 -0.0474  0.6349
14831TIP3    H244435   1.025   7.351   6.358 -1.2502 -1.6174  1.4831
14832TIP3   OH244436   6.291   2.443   3.772  0.3419  0.1928 -0.2187
14832TIP3    H144437   6.288   2.457   3.867  1.0694 -0.0995 -0.1478
14832TIP3    H244438   6.234   2.368   3.757 -0.9971  1.1698 -0.2067
14833TIP3   OH244439   7.240   7.663   0.233  0.4734  0.4924 -0.6495
14833TIP3    H144440   7.218   7.686   0.143 -0.3886  0.3669 -0.4791
14833TIP3    H244441   7.318   7.607   0.226  0.3182  0.3618 -1.3261
14834TIP3   OH244442   3.616   1.565   1.821 -0.0077 -0.4572  0.3402
14834TIP3    H144443   3.672   1.588   1.896 -0.7667 -1.3057  1.1901
14834TIP3    H244444   3.632   1.635   1.757  2.0616 -0.7073  0.5229
14835TIP3   OH244445   4.542   6.416   4.921  0.5503  0.6784 -0.1784
14835TIP3    H144446   4.586   6.475   4.982 -1.2154 -0.2619  2.1015
14835TIP3    H244447   4.471   6.468   4.883  0.9652  0.9241 -0.6418
14836TIP3   OH244448   3.488   7.142   5.968 -0.4744 -0.6377 -0.3384
14836TIP3    H144449   3.481   7.061   6.018 -0.6704 -0.6446 -0.3748
14836TIP3    H244450   3.481   7.211   6.033  0.2244 -0.6520 -0.2449
14837TIP3   OH244451   3.347   0.468   5.066 -0.1177  0.6333 -0.3401
14837TIP3    H144452   3.334   0.374   5.058 -0.0469  0.5170  0.7640
14837TIP3    H244453   3.389   0.479   5.152 -3.0949  1.9376  1.0756
14838TIP3   OH244454   8.276   0.076   5.744  0.3700 -0.3783 -0.2446
14838TIP3    H144455   8.359   0.123   5.752  0.2170 -0.1747  0.1958
14838TIP3    H244456   8.212   0.143   5.721  0.1274 -0.3356  0.5177
14839TIP3   OH244457   3.099   4.578   5.832 -0.5378 -0.1362 -0.0683
14839TIP3    H144458   3.004   4.576   5.843 -0.4376  0.7762  1.3333
14839TIP3    H244459   3.126   4.657   5.879  1.0486 -1.1510  0.8287
14840TIP3   OH244460   1.979   4.758   5.359  1.2435 -0.4457  0.1801
14840TIP3    H144461   2.050   4.710   5.316 -1.5302 -3.9322 -0.9577
14840TIP3    H244462   1.939   4.694   5.418 -0.9466  1.3710  0.7986
14841TIP3   OH244463   2.583   4.341   5.018  0.4368 -0.0504  0.0639
14841TIP3    H144464   2.613   4.371   4.932 -1.1332 -0.7457 -0.7711
14841TIP3    H244465   2.629   4.398   5.080  1.0909  0.9346 -1.2529
14842TIP3   OH244466   0.514   5.807   3.690 -0.0580  0.2370 -0.0693
14842TIP3    H144467   0.522   5.829   3.783  0.4160  1.2034 -0.3294
14842TIP3    H244468   0.568   5.872   3.645  2.3152 -2.0848 -0.8345
14843TIP3   OH244469   1.246   4.084   3.563 -0.0624  0.0364 -0.1448
14843TIP3    H144470   1.153   4.104   3.549 -0.5371 -0.2895  2.0826
14843TIP3    H244471   1.261   4.003   3.514 -1.1397 -0.2496 -0.0260
14844TIP3   OH244472   6.282   4.992   4.178  0.6043  0.5123 -0.0239
14844TIP3    H144473   6.192   5.014   4.203  1.1224  0.5964  1.9510
14844TIP3    H244474   6.313   5.067   4.129  0.9378  2.4898  2.9528
14845TIP3   OH244475   8.039   5.424   0.490  0.0893  0.5127  0.1573
14845TIP3    H144476   8.131   5.442   0.504 -0.0921  1.5429  0.1080
14845TIP3    H244477   7.993   5.499   0.530 -0.5376  2.6695 -4.0299
14846TIP3   OH244478   3.817   6.134   1.188  0.0584  0.1912 -0.4050
14846TIP3    H144479   3.874   6.152   1.263  1.4259  0.0787 -1.3927
14846TIP3    H244480   3.736   6.180   1.209  1.3181  2.4046 -0.0439
14847TIP3   OH244481   8.037   1.808   0.995 -0.0568  0.6029 -0.1370
14847TIP3    H144482   7.951   1.767   0.989 -0.1190  0.7312 -0.1231
14847TIP3    H244483   8.091   1.744   1.041  0.0326  0.2297 -0.7392
14848TIP3   OH244484   4.663   6.701   5.718 -0.4099 -0.1375 -0.5945
14848TIP3    H144485   4.645   6.627   5.776  0.6787 -0.1556 -0.2538
14848TIP3    H244486   4.756   6.718   5.730 -1.0301  2.7341  1.0324
14849TIP3   OH244487   0.571   6.655   0.048  0.1896  0.1986 -0.2081
14849TIP3    H144488   0.633   6.665  -0.024  0.5241  0.0090  0.0480
14849TIP3    H244489   0.538   6.566   0.040  1.0940 -0.2235  0.5398
14850TIP3   OH244490   4.389   0.185   2.145  0.2431  0.5787  0.1793
14850TIP3    H144491   4.464   0.245   2.146 -0.1837  1.1141  0.9491
14850TIP3    H244492   4.406   0.124   2.216  0.3303  0.2153 -0.1527
14851TIP3   OH244493   4.407   1.836   1.371 -0.1902  0.6361 -0.5040
14851TIP3    H144494   4.322   1.826   1.415  0.1527 -2.3487 -0.3243
14851TIP3    H244495   4.453   1.901   1.423 -1.8843  1.3863  0.1431
14852TIP3   OH244496   0.375   7.504   0.143  0.1109  0.4259 -0.1485
14852TIP3    H144497   0.316   7.508   0.068 -1.2631  0.1665  0.8823
14852TIP3    H244498   0.447   7.447   0.115 -0.7237 -0.2090 -1.0245
14853TIP3   OH244499   5.915   7.226   3.599  0.2124 -0.1135  0.0538
14853TIP3    H144500   5.934   7.220   3.693 -1.4506 -0.3137  0.4058
14853TIP3    H244501   5.934   7.139   3.565  0.0666 -0.2647  0.3581
14854TIP3   OH244502   5.765   1.850   5.232 -0.1729 -0.5715  0.5522
14854TIP3    H144503   5.734   1.940   5.247 -1.1298 -0.5988 -1.0299
14854TIP3    H244504   5.735   1.802   5.309  1.6897  0.7374  2.1725
14855TIP3   OH244505   7.341   2.479   1.412  0.4544  0.5310  0.1676
14855TIP3    H144506   7.381   2.415   1.353 -0.8109  0.3838 -0.5633
14855TIP3    H244507   7.331   2.433   1.495  1.4667  0.4631  0.2597
14856TIP3   OH244508   5.859   0.714   5.590 -0.0242 -0.7851 -0.0352
14856TIP3    H144509   5.875   0.691   5.681  1.3520  0.6408  0.1314
14856TIP3    H244510   5.882   0.807   5.584  0.6536 -1.0267 -1.9792
14857TIP3   OH244511   3.058   6.876   3.587  0.0724 -0.0302  0.2245
14857TIP3    H144512   3.145   6.852   3.620  0.0319 -1.1139 -0.4152
14857TIP3    H244513   3.000   6.863   3.662  0.5671  1.4980  0.8976
14858TIP3   OH244514   0.105   0.815   4.866 -0.0743  0.0491  0.4317
14858TIP3    H144515   0.054   0.752   4.917 -1.8823  0.5676 -0.6740
14858TIP3    H244516   0.112   0.775   4.779  1.1661  0.1433  0.4690
14859TIP3   OH244517   7.069   2.113   3.703  0.5902 -0.2749 -0.3647
14859TIP3    H144518   6.979   2.131   3.673 -0.3715 -1.3144  1.6997
14859TIP3    H244519   7.074   2.018   3.710  1.6143 -0.1945  0.2172
14860TIP3   OH244520   2.216   0.038   1.226  0.1608  0.1526  0.3672
14860TIP3    H144521   2.159  -0.010   1.166 -0.6208  0.7814  0.6042
14860TIP3    H244522   2.165   0.114   1.253  1.0554  0.6458  0.6984
14861TIP3   OH244523   0.025   0.936   2.618  0.1454 -0.3641  0.0236
14861TIP3    H144524  -0.005   0.969   2.533  1.2430 -1.1346 -0.6941
14861TIP3    H244525   0.035   0.842   2.605 -1.0963 -0.7335  1.4713
14862TIP3   OH244526   5.366   5.778   5.160  0.1149  0.3209  0.2094
14862TIP3    H144527   5.455   5.754   5.133 -0.3435 -0.3520 -0.7738
14862TIP3    H244528   5.323   5.805   5.079 -1.0580 -0.9302  0.3725
14863TIP3   OH244529   8.291   0.209   4.002 -0.0129 -0.3908  0.2495
14863TIP3    H144530   8.314   0.196   3.910  0.9678  0.1648  0.4073
14863TIP3    H244531   8.211   0.262   3.999 -0.0957 -0.5346 -0.2733
14864TIP3   OH244532   1.270   7.632   5.455  0.6137 -0.2710 -0.1220
14864TIP3    H144533   1.226   7.595   5.532 -0.9309  1.5868 -0.0255
14864TIP3    H244534   1.363   7.623   5.474  0.2667 -1.0005  1.3987
14865TIP3   OH244535   1.656   7.486   5.307 -0.5062 -0.3638 -0.0976
14865TIP3    H144536   1.623   7.527   5.227  1.6215 -0.7624 -1.2399
14865TIP3    H244537   1.633   7.548   5.376 -0.8094  0.8668 -1.2501
14866TIP3   OH244538   3.468   4.208   3.189  0.4626  0.0036  0.2373
14866TIP3    H144539   3.563   4.199   3.195  0.4507  0.2699  0.9405
14866TIP3    H244540   3.452   4.303   3.190  0.1856 -0.0383  0.1127
14867TIP3   OH244541   5.982   2.564   6.368 -0.6275 -0.0681 -1.0119
14867TIP3    H144542   6.024   2.487   6.406 -0.7820  0.6446  0.6762
14867TIP3    H244543   6.051   2.606   6.316 -0.0031 -0.3149 -0.3895
14868TIP3   OH244544   1.204   3.048   1.061  0.4651 -0.2166  0.4093
14868TIP3    H144545   1.260   3.103   1.006 -0.6329  1.3207  0.7709
14868TIP3    H244546   1.211   2.961   1.022  1.3431  0.4001 -0.8902
14869TIP3   OH244547   1.356   0.585   1.705 -0.2203 -0.0517  0.5622
14869TIP3    H144548   1.450   0.576   1.688 -0.5926 -0.9912 -1.1863
14869TIP3    H244549   1.331   0.501   1.744 -0.2962  0.3324  1.3732
14870TIP3   OH244550   8.053   2.585   0.480 -0.2307  0.5342  0.2097
14870TIP3    H144551   8.043   2.586   0.575  0.2210 -1.4087  0.3180
14870TIP3    H244552   8.108   2.508   0.462 -0.2212  0.9159 -1.6180
14871TIP3   OH244553   0.420   3.366   4.310  0.3398 -0.0118  0.3983
14871TIP3    H144554   0.349   3.370   4.374 -0.5037  3.0338 -0.5738
14871TIP3    H244555   0.495   3.403   4.356  0.6031 -0.8081  0.6136
14872TIP3   OH244556   1.528   1.190   1.521  0.0386 -0.0808 -0.0054
14872TIP3    H144557   1.495   1.216   1.607  0.0435 -0.6258  0.1709
14872TIP3    H244558   1.601   1.248   1.504  0.8926 -0.8293  0.9739
14873TIP3   OH244559   1.876   5.160   4.530  0.2464  0.5939 -0.0958
14873TIP3    H144560   1.947   5.211   4.492  0.7691 -0.2397 -0.2614
14873TIP3    H244561   1.831   5.122   4.455 -0.2155  0.9021  0.0214
14874TIP3   OH244562   1.442   1.299   3.696  0.2390 -0.2218  0.1416
14874TIP3    H144563   1.356   1.260   3.710  0.9534 -2.2325 -0.6693
14874TIP3    H244564   1.437   1.339   3.609  0.3929 -1.1515 -0.2997
14875TIP3   OH244565   4.373   5.447   2.709  0.3097 -0.0251  0.2622
14875TIP3    H144566   4.466   5.432   2.723  0.0413 -0.1037  2.2254
14875TIP3    H244567   4.345   5.375   2.652  1.2135 -0.6799  0.6354
14876TIP3   OH244568   5.874   2.818   6.377 -0.0951  0.5654  0.3925
14876TIP3    H144569   5.945   2.870   6.339 -0.4272  1.6966  1.2840
14876TIP3    H244570   5.914   2.733   6.395  0.5182  0.5567 -0.8720
14877TIP3   OH244571   1.005   2.412   1.964 -0.6515  0.0055 -0.2315
14877TIP3    H144572   1.098   2.419   1.942 -0.2117 -0.8127  1.1813
14877TIP3    H244573   0.966   2.492   1.929  0.4291  0.0109 -1.5136
14878TIP3   OH244574   6.848   3.123   1.304  0.0864 -0.0392 -0.2999
14878TIP3    H144575   6.872   3.179   1.230  0.1507 -0.1014 -0.3274
14878TIP3    H244576   6.924   3.128   1.362  0.6174 -1.0570 -0.8744
14879TIP3   OH244577   1.764   4.707   5.998  0.0551  0.0992  0.3752
14879TIP3    H144578   1.670   4.715   6.015  0.3797 -0.1818  2.5905
14879TIP3    H244579   1.797   4.797   6.007 -0.2931  0.7660 -3.2228
14880TIP3   OH244580   6.691   2.929   5.776  0.1660  0.1202 -0.5736
14880TIP3    H144581   6.717   2.952   5.686 -3.0887  0.8923 -1.4805
14880TIP3    H244582   6.657   2.839   5.768 -1.8110  0.8212 -0.6083
14881TIP3   OH244583   3.297   6.764   3.665  0.4468  0.2179 -0.3432
14881TIP3    H144584   3.365   6.728   3.608  0.8338 -0.5558  0.5971
14881TIP3    H244585   3.282   6.697   3.731 -0.2002  0.9852  0.3136
14882TIP3   OH244586   0.927   5.065   3.869  0.2330  0.0978  0.6217
14882TIP3    H144587   0.996   5.030   3.811  0.1314  1.6099 -0.4752
14882TIP3    H244588   0.877   4.988   3.895  0.3703 -0.6699 -1.2219
14883TIP3   OH244589   5.607   2.799   5.330 -0.0685  0.6679 -0.0622
14883TIP3    H144590   5.670   2.758   5.270 -0.9223 -0.4822 -0.1980
14883TIP3    H244591   5.526   2.803   5.281 -0.6541  0.1611  0.8309
14884TIP3   OH244592   3.511   7.771   1.430 -0.4981  0.0725 -0.7611
14884TIP3    H144593   3.495   7.769   1.336  1.8402  1.7289 -1.3066
14884TIP3    H244594   3.558   7.854   1.444  1.1448 -1.1256  1.4775
14885TIP3   OH244595   0.177   7.144   5.513 -0.2327 -0.0190  0.0666
14885TIP3    H144596   0.214   7.232   5.503 -0.0650 -0.0175  0.7020
14885TIP3    H244597   0.164   7.114   5.423  0.8608  0.1677 -0.1663
14886TIP3   OH244598   5.944   1.334   1.421 -0.5351  0.4048 -0.0527
14886TIP3    H144599   5.905   1.417   1.446 -1.7088  0.4203 -1.8183
14886TIP3    H244600   5.922   1.275   1.494 -1.5479  1.0965  0.2268
14887TIP3   OH244601   1.342   4.122   5.740 -0.4420 -0.1055  0.1570
14887TIP3    H144602   1.364   4.095   5.651  0.4030 -0.5496  0.4921
14887TIP3    H244603   1.421   4.164   5.773 -1.6939  2.9800 -0.3750
14888TIP3   OH244604   3.752   2.283   4.838 -0.0220 -0.1850  0.0876
14888TIP3    H144605   3.797   2.344   4.779 -0.5011 -0.0168 -0.1043
14888TIP3    H244606   3.810   2.277   4.914  0.1453  0.3253  0.0078
14889TIP3   OH244607   0.530   1.589   0.094 -0.0114  0.7491 -0.4697
14889TIP3    H144608   0.579   1.558   0.018 -0.7599 -1.2897 -0.1739
14889TIP3    H244609   0.591   1.580   0.167 -0.0193  0.6048 -0.4817
14890TIP3   OH244610   7.975   5.259   3.897 -0.4189 -0.1568  0.1339
14890TIP3    H144611   7.927   5.337   3.870  0.5225  0.2254 -0.4647
14890TIP3    H244612   8.051   5.292   3.944  0.0844 -0.7052 -0.2838
14891TIP3   OH244613   1.913   3.339   1.456  0.3367  0.1478 -0.2315
14891TIP3    H144614   1.868   3.283   1.393  1.5651 -0.4399 -0.6314
14891TIP3    H244615   1.902   3.294   1.540 -0.1665  0.2281 -0.2525
14892TIP3   OH244616   6.022   4.480   4.612 -0.0942 -0.0668 -0.2568
14892TIP3    H144617   5.962   4.527   4.670 -1.1719 -0.5214 -0.9676
14892TIP3    H244618   6.057   4.409   4.666  2.0106  1.8337  1.0075
14893TIP3   OH244619   6.575   5.369   1.405  0.3681 -0.2024  0.2230
14893TIP3    H144620   6.505   5.362   1.469  1.1217  0.0106  1.0978
14893TIP3    H244621   6.537   5.418   1.332  0.2158  1.8146  1.5963
14894TIP3   OH244622   0.400   7.080   4.179 -0.0136 -0.6119  0.3464
14894TIP3    H144623   0.439   7.160   4.145  0.5619 -0.5653  1.0867
14894TIP3    H244624   0.475   7.029   4.211 -0.4943 -0.8308  1.1514
14895TIP3   OH244625   4.210   4.715   4.185 -0.5894  0.0262  0.3637
14895TIP3    H144626   4.158   4.688   4.109  0.4763  0.0774 -0.4094
14895TIP3    H244627   4.286   4.759   4.147  0.4148 -0.7378  1.4241
14896TIP3   OH244628   5.164   1.303   6.760  0.2904 -0.0658 -0.3229
14896TIP3    H144629   5.210   1.387   6.759  1.6870 -0.8210 -1.3112
14896TIP3    H244630   5.104   1.308   6.686  2.1490 -0.8547 -1.9523
14897TIP3   OH244631   3.798   2.359   6.702 -0.0416 -0.1417 -0.2341
14897TIP3    H144632   3.719   2.326   6.659 -0.3804  1.5774 -1.0120
14897TIP3    H244633   3.767   2.396   6.784  0.3450 -1.7406  0.6637
14898TIP3   OH244634   4.592   6.889   6.586  0.4198  0.4470  0.5749
14898TIP3    H144635   4.519   6.829   6.598  1.5408 -1.2201 -0.5123
14898TIP3    H244636   4.627   6.903   6.674 -0.0227 -0.2800  0.8745
14899TIP3   OH244637   2.885   6.521   1.704  0.6145 -0.3975  0.2420
14899TIP3    H144638   2.894   6.439   1.655 -1.1065 -0.4572 -0.0402
14899TIP3    H244639   2.837   6.579   1.646 -0.5477 -0.1082  1.4374
14900TIP3   OH244640   3.261   0.942   0.756 -0.3674 -0.1730  0.1381
14900TIP3    H144641   3.254   0.849   0.778  1.1173 -0.1090  1.0080
14900TIP3    H244642   3.174   0.978   0.776 -0.7298 -1.2231  0.5158
14901TIP3   OH244643   7.677   0.314   5.627  0.5720 -0.5474 -0.4005
14901TIP3    H144644   7.664   0.222   5.605 -0.1932 -0.7494  0.8116
14901TIP3    H244645   7.614   0.331   5.697 -0.0093  1.1621 -1.2855
14902TIP3   OH244646   1.591   6.730   1.909 -0.7323 -0.0848  0.2691
14902TIP3    H144647   1.500   6.746   1.885 -0.5224 -0.1484 -0.6018
14902TIP3    H244648   1.588   6.707   2.002 -1.8276 -1.8862 -0.1579
14903TIP3   OH244649   2.669   4.014   6.661 -0.4502 -0.2815 -0.1299
14903TIP3    H144650   2.686   3.937   6.715  0.1034 -0.1462 -0.1082
14903TIP3    H244651   2.742   4.073   6.679 -0.1359 -0.3239 -1.1855
14904TIP3   OH244652   5.311   3.097   2.257  0.1768  0.5273  0.0179
14904TIP3    H144653   5.243   3.143   2.209  0.4474  0.1336 -0.7631
14904TIP3    H244654   5.381   3.084   2.193  0.3514 -0.4382  0.3794
14905TIP3   OH244655   3.450   5.176   3.789  0.2394 -0.4042 -0.2473
14905TIP3    H144656   3.517   5.114   3.819 -0.3280 -0.7518  0.3400
14905TIP3    H244657   3.492   5.225   3.719  1.1724 -0.4874  0.2381
14906TIP3   OH244658   2.319   4.113   0.057  0.4666 -0.0455  0.3566
14906TIP3    H144659   2.272   4.156   0.129 -0.1324  0.3784 -0.2833
14906TIP3    H244660   2.408   4.149   0.061  0.9171 -1.1996  1.8667
14907TIP3   OH244661   6.631   5.178   1.809  0.0440 -0.5336 -0.0049
14907TIP3    H144662   6.563   5.196   1.874 -0.2519 -0.5670 -0.2999
14907TIP3    H244663   6.676   5.100   1.843  0.4593 -0.0436  0.5944
14908TIP3   OH244664   3.676   1.477   0.879 -0.9026  0.0488 -0.2914
14908TIP3    H144665   3.670   1.467   0.784 -2.9809 -0.0937 -0.1911
14908TIP3    H244666   3.608   1.419   0.914  2.8798 -3.8565  1.6270
14909TIP3   OH244667   6.758   3.484   0.889 -0.0781  0.4292 -0.2278
14909TIP3    H144668   6.839   3.510   0.932  0.3655  2.4510 -2.0766
14909TIP3    H244669   6.689   3.527   0.939  0.2628  1.1684 -0.3798
14910TIP3   OH244670   6.135   3.509   1.156 -0.2630  0.5212 -0.0712
14910TIP3    H144671   6.058   3.564   1.174  0.9106  2.2635 -0.1021
14910TIP3    H244672   6.155   3.525   1.064 -0.0441 -0.1569 -0.1443
14911TIP3   OH244673   4.977   1.800   6.605  0.2532 -0.5011 -0.2441
14911TIP3    H144674   4.901   1.849   6.637 -0.3155 -3.0015  2.8015
14911TIP3    H244675   4.940   1.737   6.544  0.2497 -0.1994 -0.5544
14912TIP3   OH244676   8.179   3.650   3.197  0.3409  0.2520  0.2943
14912TIP3    H144677   8.219   3.706   3.130 -0.2725 -0.7442 -0.9528
14912TIP3    H244678   8.127   3.709   3.250 -0.5290  0.8710 -1.1693
14913TIP3   OH244679   6.459   5.858   3.852 -0.5057  0.0337  0.1051
14913TIP3    H144680   6.551   5.880   3.846 -0.3609 -0.3318  0.8221
14913TIP3    H244681   6.453   5.800   3.929 -1.2588 -0.2909 -0.1853
14914TIP3   OH244682   2.350   2.165   6.828 -0.5490 -0.2046 -0.3079
14914TIP3    H144683   2.395   2.125   6.754  0.1581  1.1647 -0.6580
14914TIP3    H244684   2.305   2.241   6.791 -1.4104 -0.3417  0.4180
14915TIP3   OH244685   2.911   5.254   4.749 -0.6621 -0.0978  0.5492
14915TIP3    H144686   2.906   5.226   4.658 -0.3574  1.0914  0.1451
14915TIP3    H244687   2.860   5.189   4.797 -0.4245 -1.0079 -0.3983
14916TIP3   OH244688   3.564   5.733   6.473  0.1691  0.0564  0.2811
14916TIP3    H144689   3.609   5.801   6.423 -0.0422  0.4648  0.6415
14916TIP3    H244690   3.633   5.691   6.524  0.3013 -0.0069  0.0532
14917TIP3   OH244691   5.667   1.965   0.052  0.2926  0.5182  0.0154
14917TIP3    H144692   5.674   2.029   0.123 -1.2512  0.0110  0.6614
14917TIP3    H244693   5.574   1.965   0.029  0.1200 -1.8640  0.4127
14918TIP3   OH244694   4.742   6.346   1.919  0.1598  0.2272 -0.3331
14918TIP3    H144695   4.694   6.364   1.838  0.2297  0.3485 -0.3476
14918TIP3    H244696   4.827   6.315   1.890  1.6408  3.8277 -0.3917
14919TIP3   OH244697   0.691   1.145   4.938  0.2678 -0.5379 -0.5204
14919TIP3    H144698   0.753   1.179   4.874  1.9108 -2.3457  0.0117
14919TIP3    H244699   0.632   1.090   4.887  1.0340 -1.2802 -0.6205
14920TIP3   OH244700   3.823   2.673   0.609 -0.5194 -0.0578  0.0636
14920TIP3    H144701   3.732   2.679   0.581 -0.6365  0.9585  0.5954
14920TIP3    H244702   3.873   2.701   0.533 -0.6503 -0.6235 -0.2317
14921TIP3   OH244703   2.352   7.691   1.764  0.1353 -0.2545  0.5547
14921TIP3    H144704   2.369   7.658   1.852  0.4081 -0.4610  0.4253
14921TIP3    H244705   2.368   7.616   1.706  0.5146  0.0332  0.2806
14922TIP3   OH244706   5.716   4.708   5.325  0.2045 -0.3628 -0.4669
14922TIP3    H144707   5.632   4.665   5.338 -1.1612  1.9756 -1.1261
14922TIP3    H244708   5.744   4.733   5.413 -0.1939 -0.4030 -0.3303
14923TIP3   OH244709   0.099   3.851   5.349 -0.0604 -0.2725  0.1942
14923TIP3    H144710   0.004   3.849   5.353 -0.0180 -0.7508  1.1426
14923TIP3    H244711   0.119   3.916   5.282 -1.0541 -0.3994 -0.2378
14924TIP3   OH244712   1.774   3.628   5.689 -0.6072 -0.1067  1.1815
14924TIP3    H144713   1.779   3.639   5.594 -1.9523  0.6251  1.1752
14924TIP3    H244714   1.860   3.593   5.714 -0.8033 -2.0088 -0.5146
14925TIP3   OH244715   2.486   3.926   2.328 -0.5245 -0.4551 -0.3315
14925TIP3    H144716   2.480   3.863   2.256 -2.5226 -0.7388  0.0387
14925TIP3    H244717   2.553   3.890   2.386  0.1054 -0.9499 -1.3308
14926TIP3   OH244718   3.875   4.524   3.178 -0.0481 -0.0576  0.0997
14926TIP3    H144719   3.963   4.488   3.183 -0.0088 -0.0887 -0.6787
14926TIP3    H244720   3.822   4.468   3.235  0.1514 -0.9143 -0.5362
14927TIP3   OH244721   0.466   2.163   1.954 -0.2146  0.9437 -0.6101
14927TIP3    H144722   0.374   2.160   1.929 -0.6392  2.0642  0.6755
14927TIP3    H244723   0.464   2.180   2.049  1.3001 -1.2234 -0.1318
14928TIP3   OH244724   4.254   3.079   0.701 -0.4940 -0.1626 -0.3158
14928TIP3    H144725   4.270   3.019   0.774  0.1384  0.0394 -0.2832
14928TIP3    H244726   4.177   3.043   0.657  0.5973 -1.7391 -1.0486
14929TIP3   OH244727   2.161   4.266   0.382  0.5334  0.1061  0.3137
14929TIP3    H144728   2.168   4.315   0.300  0.1302 -0.2982  0.0293
14929TIP3    H244729   2.119   4.327   0.442  1.3771  0.6113  0.4041
14930TIP3   OH244730   1.301   3.338   5.458  0.1214 -0.0891  0.7633
14930TIP3    H144731   1.363   3.397   5.500  2.3068 -0.6971 -1.4075
14930TIP3    H244732   1.337   3.251   5.471 -0.5508 -0.5167 -0.0777
14931TIP3   OH244733   5.900   0.948   3.584 -0.1436 -0.2162  0.2612
14931TIP3    H144734   5.959   1.012   3.623 -0.3537 -0.1671  0.5000
14931TIP3    H244735   5.816   0.994   3.579 -0.4045 -0.6269  0.8527
14932TIP3   OH244736   2.931   4.733   2.621 -0.1700  0.9783 -0.2376
14932TIP3    H144737   2.864   4.783   2.668 -1.0854  0.0638 -0.5290
14932TIP3    H244738   2.887   4.701   2.543  0.6332  0.4065 -0.4717
14933TIP3   OH244739   3.237   2.523   6.514 -0.3089  1.0751 -0.4761
14933TIP3    H144740   3.329   2.547   6.520 -0.5083  1.7098  0.1322
14933TIP3    H244741   3.223   2.509   6.420  0.5176  0.4762 -0.5253
14934TIP3   OH244742   0.565   4.118   5.274 -0.0202  0.0266 -0.9335
14934TIP3    H144743   0.585   4.110   5.181 -1.7568 -0.7966 -1.2817
14934TIP3    H244744   0.597   4.037   5.314  2.1313  1.0245 -0.4752
14935TIP3   OH244745   3.583   1.043   6.071 -0.4814  0.0901  0.3443
14935TIP3    H144746   3.611   1.130   6.098  1.1874  0.2662 -1.6427
14935TIP3    H244747   3.663   0.990   6.074 -0.7726 -0.5352 -1.4352
14936TIP3   OH244748   7.921   4.447   3.122  0.5876  0.2427  0.2151
14936TIP3    H144749   7.981   4.522   3.129  0.8097  0.2974 -1.6867
14936TIP3    H244750   7.838   4.486   3.096  0.1247  0.0124  1.3211
14937TIP3   OH244751   1.106   3.466   6.456  0.2476 -0.0925 -0.0481
14937TIP3    H144752   1.028   3.472   6.511  0.1376  1.8919 -0.3509
14937TIP3    H244753   1.079   3.501   6.371  1.3843  0.3896 -0.2319
14938TIP3   OH244754   4.929   7.203   0.401  0.1973  0.0283 -0.1216
14938TIP3    H144755   4.953   7.286   0.442 -1.7345  0.4190  0.3381
14938TIP3    H244756   4.943   7.138   0.470  1.1090  0.0400 -0.2809
14939TIP3   OH244757   2.189   4.261   3.291 -0.0413 -0.3704 -0.1033
14939TIP3    H144758   2.215   4.176   3.326  3.7736 -0.4981 -2.6472
14939TIP3    H244759   2.113   4.242   3.237 -0.7654 -1.6487  1.2960
14940TIP3   OH244760   7.824   0.729   2.003 -0.1058 -0.0636  0.1446
14940TIP3    H144761   7.755   0.740   2.069  0.3731  1.9305  0.3576
14940TIP3    H244762   7.889   0.672   2.045  0.1987  1.1784  1.4216
14941TIP3   OH244763   4.795   0.572   1.351 -0.1479 -0.2226 -0.4184
14941TIP3    H144764   4.810   0.578   1.257 -1.8117  2.1914 -0.6217
14941TIP3    H244765   4.846   0.496   1.379  1.3404 -0.3065 -3.0487
14942TIP3   OH244766   8.353   6.426   5.742 -0.8343 -0.5470  0.4991
14942TIP3    H144767   8.395   6.456   5.661 -2.7442 -1.9541 -1.1170
14942TIP3    H244768   8.326   6.507   5.786 -2.2368  0.2953 -1.7116
14943TIP3   OH244769   5.613   1.724   5.448  0.4337 -0.7522 -0.4007
14943TIP3    H144770   5.621   1.633   5.420  2.0334 -1.4240  1.9285
14943TIP3    H244771   5.671   1.730   5.524 -1.2953  1.6687  0.8188
14944TIP3   OH244772   6.591   7.240   3.248 -0.2477  0.1062 -0.2220
14944TIP3    H144773   6.562   7.275   3.332 -0.8214  0.8918 -0.7332
14944TIP3    H244774   6.683   7.219   3.261 -0.7121 -1.2960  1.0752
14945TIP3   OH244775   4.063   4.269   3.916  0.5002 -0.3693 -0.1146
14945TIP3    H144776   4.098   4.285   4.004  0.8721 -0.0468 -0.3180
14945TIP3    H244777   4.032   4.178   3.918 -1.5420  0.2747  1.0452
14946TIP3   OH244778   1.407   3.312   4.630 -0.0823  0.0767  0.1584
14946TIP3    H144779   1.357   3.319   4.711  0.9047 -1.1079  0.9158
14946TIP3    H244780   1.378   3.230   4.590  0.4015 -0.0243  0.0048
14947TIP3   OH244781   2.721   5.412   3.149 -0.2535 -0.0504 -0.7782
14947TIP3    H144782   2.771   5.446   3.223  0.7846 -0.8555 -1.0811
14947TIP3    H244783   2.704   5.488   3.093  0.8359  0.2099 -0.7710
14948TIP3   OH244784   0.844   4.168   2.407 -0.3175  0.2032 -0.7550
14948TIP3    H144785   0.859   4.161   2.312  0.9163 -0.6080 -0.5148
14948TIP3    H244786   0.917   4.121   2.447 -0.7021  0.7230  0.6204
14949TIP3   OH244787   2.396   2.206   0.660  0.2423 -0.5566  0.3203
14949TIP3    H144788   2.486   2.192   0.687 -0.1980 -1.7279  1.2281
14949TIP3    H244789   2.347   2.214   0.742 -0.4005  0.7227 -0.1568
14950TIP3   OH244790   4.577   5.805   3.615 -0.3294  0.0082 -0.3621
14950TIP3    H144791   4.668   5.833   3.619 -0.3873  0.3032 -1.0033
14950TIP3    H244792   4.526   5.885   3.621 -0.5962 -0.2299  1.0793
14951TIP3   OH244793   8.430   0.323   5.788  0.2663 -0.2262  0.1343
14951TIP3    H144794   8.335   0.326   5.794  0.0783  1.7660 -2.0886
14951TIP3    H244795   8.449   0.352   5.698  2.9794  0.0229  0.6975
14952TIP3   OH244796   8.259   4.796   4.216 -0.4373  1.0147  0.1407
14952TIP3    H144797   8.193   4.728   4.232  1.4259 -1.0398 -0.5135
14952TIP3    H244798   8.300   4.810   4.302  0.3495 -0.0101 -0.0504
14953TIP3   OH244799   4.808   7.891   1.127  0.1081 -0.2938 -0.0392
14953TIP3    H144800   4.751   7.955   1.084  1.8356  0.8104 -0.8204
14953TIP3    H244801   4.797   7.907   1.220 -0.0756  0.6313 -0.2146
14954TIP3   OH244802   5.294   3.036   1.128  0.6640  0.1377  0.3204
14954TIP3    H144803   5.361   3.077   1.073 -0.7911  0.1276 -1.5794
14954TIP3    H244804   5.211   3.068   1.092 -0.4134 -1.6380  1.0990
14955TIP3   OH244805   4.629   0.516   3.324 -0.4045 -0.2468  0.1297
14955TIP3    H144806   4.624   0.427   3.358 -0.4818 -0.8562 -1.4395
14955TIP3    H244807   4.568   0.518   3.250  0.3214  0.8319 -0.4713
14956TIP3   OH244808   7.003   0.885   0.112  0.4075  0.4921  0.2237
14956TIP3    H144809   7.069   0.938   0.069 -0.5228  1.4849 -0.0159
14956TIP3    H244810   7.037   0.871   0.201  0.4918  1.8102  0.4114
14957TIP3   OH244811   7.849   6.595   0.762 -0.0486 -0.0687  0.0724
14957TIP3    H144812   7.854   6.686   0.733  1.2760 -0.4542 -1.0282
14957TIP3    H244813   7.895   6.594   0.846 -0.9008  0.4274  0.5619
14958TIP3   OH244814   7.332   1.815   6.388  0.4321  0.1837 -0.0421
14958TIP3    H144815   7.323   1.764   6.469 -1.5931  1.9209  0.9158
14958TIP3    H244816   7.375   1.896   6.416 -0.4640  0.8857 -0.6392
14959TIP3   OH244817   6.864   1.576   2.771  0.0015  0.1459 -0.2261
14959TIP3    H144818   6.903   1.489   2.778 -0.2220  0.0877  0.3847
14959TIP3    H244819   6.935   1.636   2.794  0.1457  0.1283 -0.6123
14960TIP3   OH244820   0.456   5.528   5.688 -0.5526 -0.4826  0.1397
14960TIP3    H144821   0.506   5.482   5.621 -0.3381  1.2299 -0.9450
14960TIP3    H244822   0.517   5.539   5.760  0.9227  2.0275 -1.3600
14961TIP3   OH244823   6.316   5.235   4.057  0.2919  0.4682 -0.2328
14961TIP3    H144824   6.340   5.268   3.971 -0.2395  0.8929 -0.2206
14961TIP3    H244825   6.304   5.314   4.111 -0.6169  0.2524 -0.1031
14962TIP3   OH244826   6.753   3.328   4.673  0.1368 -0.1074  0.7254
14962TIP3    H144827   6.750   3.333   4.768  1.3360  0.7887  0.7347
14962TIP3    H244828   6.843   3.352   4.650 -0.0156 -0.7175 -0.6099
14963TIP3   OH244829   1.553   7.107   0.116 -0.4082 -0.5305  0.9926
14963TIP3    H144830   1.613   7.034   0.135 -0.6672 -1.1950 -0.5886
14963TIP3    H244831   1.565   7.168   0.189  3.4207  0.1584  0.0028
14964TIP3   OH244832   5.509   1.212   0.382 -0.7500 -0.5009  0.4273
14964TIP3    H144833   5.533   1.163   0.460 -2.4043 -0.0088  1.3016
14964TIP3    H244834   5.591   1.248   0.350  0.0306 -1.1077  1.6518
14965TIP3   OH244835   1.109   3.543   4.005 -0.0700  0.1948  0.2744
14965TIP3    H144836   1.141   3.457   3.977 -0.5360 -0.5924  2.0187
14965TIP3    H244837   1.041   3.565   3.942 -1.3374 -1.6725  0.9140
14966TIP3   OH244838   4.230   3.391   1.251 -0.3250 -0.1541 -0.5714
14966TIP3    H144839   4.168   3.343   1.305 -0.7103 -0.5670 -1.3502
14966TIP3    H244840   4.237   3.477   1.292  0.6320 -0.9623  1.0393
14967TIP3   OH244841   3.650   7.042   2.913  0.0957  0.5665  0.7589
14967TIP3    H144842   3.601   7.123   2.933  0.1240  0.4565  1.3039
14967TIP3    H244843   3.625   7.020   2.824  0.5684  1.5235  0.3786
14968TIP3   OH244844   0.284   1.386   1.816  0.4705  0.4269  0.5276
14968TIP3    H144845   0.375   1.409   1.797  0.5714  0.6957  1.2874
14968TIP3    H244846   0.264   1.315   1.756  1.7688 -0.8676  1.5423
14969TIP3   OH244847   5.910   1.112   4.844 -0.0307 -0.2121 -0.1005
14969TIP3    H144848   5.968   1.070   4.779 -1.5338 -2.5071 -0.0915
14969TIP3    H244849   5.883   1.194   4.803 -1.0518 -1.6620 -2.5210
14970TIP3   OH244850   0.977   6.470   5.211 -0.1129 -0.0441  0.1665
14970TIP3    H144851   1.032   6.546   5.192  0.1453  0.2265  1.8705
14970TIP3    H244852   0.889   6.496   5.181 -0.5970  2.0061  2.9883
14971TIP3   OH244853   6.294   1.520   3.357 -0.5113  0.5951  0.1864
14971TIP3    H144854   6.336   1.484   3.435 -0.3263 -0.3590 -0.3390
14971TIP3    H244855   6.237   1.589   3.390  0.1555  0.7312  1.0875
14972TIP3   OH244856   0.893   2.787   3.677 -0.1316 -0.1846  0.8155
14972TIP3    H144857   0.895   2.880   3.699  2.0548 -0.2066  0.9767
14972TIP3    H244858   0.878   2.786   3.582  0.9274  0.4053  0.6236
14973TIP3   OH244859   4.872   7.825   4.028 -0.6107  0.2205  0.1998
14973TIP3    H144860   4.928   7.798   3.955 -0.9533 -1.2207  0.4430
14973TIP3    H244861   4.820   7.898   3.993  1.9017  2.1306  0.2044
14974TIP3   OH244862   3.339   3.796   6.329 -0.0141  0.2298  0.1014
14974TIP3    H144863   3.342   3.829   6.240  0.3230 -1.3000 -0.4797
14974TIP3    H244864   3.428   3.763   6.345  0.3433  1.7244  1.5170
14975TIP3   OH244865   7.160   5.133   5.618  0.3045 -0.0636 -0.2455
14975TIP3    H144866   7.199   5.099   5.698  1.7886 -0.4151 -1.0743
14975TIP3    H244867   7.207   5.215   5.602  0.3269 -0.2175 -0.9853
14976TIP3   OH244868   4.052   7.686   3.386  0.0577  0.1297 -0.0131
14976TIP3    H144869   4.041   7.691   3.481 -3.2457 -0.5418 -0.2391
14976TIP3    H244870   4.056   7.778   3.358  0.7882  0.3341  0.7079
14977TIP3   OH244871   2.241   3.666   2.418  0.1538 -0.1238  0.2441
14977TIP3    H144872   2.147   3.679   2.412 -0.0113 -1.2787  0.0743
14977TIP3    H244873   2.279   3.732   2.360 -0.6323 -0.6169 -0.8561
14978TIP3   OH244874   1.822   1.269   2.871 -0.3802 -0.1684 -0.0521
14978TIP3    H144875   1.782   1.322   2.803 -0.3896 -2.8047 -2.2545
14978TIP3    H244876   1.901   1.232   2.831 -0.0684 -1.3478  1.5257
14979TIP3   OH244877   8.127   4.746   6.196 -0.4299  0.7002 -0.5239
14979TIP3    H144878   8.067   4.707   6.132 -1.4194  0.6803  0.3906
14979TIP3    H244879   8.084   4.733   6.280  0.3914  1.5913  0.0548
14980TIP3   OH244880   7.561   2.440   4.113  0.4504  0.1831  0.1172
14980TIP3    H144881   7.555   2.378   4.041  0.0735  0.5879 -0.2083
14980TIP3    H244882   7.604   2.392   4.183  1.7191  0.0862 -0.7026
14981TIP3   OH244883   0.758   2.002   5.839  0.4172  0.1198  0.5248
14981TIP3    H144884   0.770   1.940   5.912  1.1458 -1.1086 -0.5883
14981TIP3    H244885   0.783   1.952   5.761  0.5747  1.6929 -0.4753
14982TIP3   OH244886   7.834   5.677   4.242 -0.2596  0.1413 -0.3090
14982TIP3    H144887   7.894   5.737   4.197 -0.8778  0.2297 -1.0238
14982TIP3    H244888   7.837   5.596   4.190 -0.4856  0.0245 -0.1424
14983TIP3   OH244889   6.444   4.979   3.530 -0.0836  0.4110  0.2280
14983TIP3    H144890   6.505   5.043   3.565  0.5992 -0.4329  0.6174
14983TIP3    H244891   6.495   4.899   3.522 -1.2815 -0.4861  1.1852
14984TIP3   OH244892   0.160   3.430   1.192 -0.0882 -0.9434 -0.2536
14984TIP3    H144893   0.120   3.489   1.128 -1.1844 -1.5098 -0.1133
14984TIP3    H244894   0.176   3.486   1.268  2.6524  0.1192 -1.4629
14985TIP3   OH244895   3.752   1.591   4.439 -0.5269 -0.0018  0.1894
14985TIP3    H144896   3.760   1.505   4.398 -0.6009 -0.2449  0.6780
14985TIP3    H244897   3.669   1.587   4.486  0.2251 -0.2537  1.5550
14986TIP3   OH244898   0.699   6.885   1.285 -0.7939 -0.2769 -0.0004
14986TIP3    H144899   0.615   6.848   1.258 -1.3361  0.4274  0.6659
14986TIP3    H244900   0.739   6.817   1.339 -0.6085 -0.8945 -0.9003
14987TIP3   OH244901   8.389   3.784   2.547 -0.3076  0.0774 -0.3786
14987TIP3    H144902   8.469   3.830   2.522  0.2781 -0.6374  0.1334
14987TIP3    H244903   8.320   3.850   2.541 -0.1627  0.1187 -3.4228
14988TIP3   OH244904   3.348   4.152   4.401  0.4326 -0.1813 -0.3633
14988TIP3    H144905   3.349   4.088   4.330  1.1942  0.5048 -0.9904
14988TIP3    H244906   3.410   4.219   4.374 -0.0352  0.6167  0.4723
14989TIP3   OH244907   2.027   5.242   6.262 -0.3363  0.1203  0.4033
14989TIP3    H144908   1.999   5.204   6.346 -0.9203  0.6565  0.4631
14989TIP3    H244909   2.122   5.238   6.264 -0.3152  0.8562  1.4437
14990TIP3   OH244910   6.333   0.619   2.586 -0.1891 -0.5181  0.2113
14990TIP3    H144911   6.411   0.664   2.555 -0.5309 -0.2883 -0.3266
14990TIP3    H244912   6.295   0.579   2.507 -0.6649 -0.5452  0.4517
14991TIP3   OH244913   5.776   7.630   6.300 -0.2302 -0.7823 -0.2197
14991TIP3    H144914   5.750   7.592   6.384  0.2830 -0.0416  0.2866
14991TIP3    H244915   5.694   7.637   6.250 -0.3752 -2.2972 -0.2438
14992TIP3   OH244916   2.471   6.305   4.229  0.3236  0.2380  0.2642
14992TIP3    H144917   2.501   6.223   4.189 -0.5315  0.2024 -0.3248
14992TIP3    H244918   2.445   6.280   4.317 -1.0744 -0.3828 -0.3002
14993TIP3   OH244919   7.039   3.764   0.015  0.0899  0.0299 -0.0905
14993TIP3    H144920   7.102   3.698   0.044  0.3555 -0.2855 -1.2965
14993TIP3    H244921   6.957   3.740   0.056  0.1409 -1.1755 -0.6483
14994TIP3   OH244922   1.134   7.546   6.643  0.5068 -0.4321  0.1413
14994TIP3    H144923   1.144   7.522   6.735  2.5448  1.1017  0.3880
14994TIP3    H244924   1.094   7.633   6.645 -0.9510 -1.0563 -0.5129
14995TIP3   OH244925   3.552   3.773   3.619  0.7643 -0.0436 -0.1235
14995TIP3    H144926   3.643   3.758   3.644  0.5231  0.2278  0.9630
14995TIP3    H244927   3.556   3.846   3.558  1.4105 -0.9792 -1.2332
14996TIP3   OH244928   3.430   0.753   2.861 -0.0147 -0.0720  0.8219
14996TIP3    H144929   3.375   0.830   2.847  2.0586  1.0820 -1.9357
14996TIP3    H244930   3.406   0.693   2.790 -0.5672 -1.4144  2.0765
14997TIP3   OH244931   0.052   4.116   3.775 -0.5788 -0.7327  0.1592
14997TIP3    H144932   0.071   4.049   3.709  3.1163  0.0169  0.2615
14997TIP3    H244933  -0.022   4.165   3.738 -0.3135 -1.9385 -2.1608
14998TIP3   OH244934   7.135   7.148   2.907 -0.0550 -0.1289  0.4407
14998TIP3    H144935   7.116   7.189   2.991 -0.2092  0.5335  0.0947
14998TIP3    H244936   7.144   7.055   2.926  0.0606  0.0348  1.2122
14999TIP3   OH244937   6.445   0.957   2.653 -0.5557  0.0664  0.4143
14999TIP3    H144938   6.511   0.916   2.708 -1.2700  0.3287  1.5009
14999TIP3    H244939   6.370   0.897   2.655 -0.5942  0.0797 -0.2817
15000TIP3   OH244940   6.697   0.500   5.122  0.1154  0.0398  0.2306
15000TIP3    H144941   6.775   0.551   5.145  0.1260 -0.7394  2.1283
15000TIP3    H244942   6.730   0.432   5.064  0.5118  0.7950 -0.4501
15001TIP3   OH244943   3.526   2.952   3.612  0.1796  0.0108 -0.4062
15001TIP3    H144944   3.459   2.975   3.676  0.9380  0.4691  0.2240
15001TIP3    H244945   3.609   2.961   3.658  0.7602  0.6266 -1.5235
15002TIP3   OH244946   2.041   6.403   6.523 -0.3823 -0.4164  0.2433
15002TIP3    H144947   1.985   6.410   6.446  1.0879  0.4008 -0.7886
15002TIP3    H244948   2.096   6.327   6.506  0.4457  0.1954  0.1353
15003TIP3   OH244949   3.962   1.620  -0.007 -0.6579  0.0661  0.2950
15003TIP3    H144950   4.036   1.559  -0.006  0.7293  1.6893  0.1787
15003TIP3    H244951   3.909   1.594   0.069  0.8184 -0.1905  1.2831
15004TIP3   OH244952   5.184   3.049   5.612 -0.4332  0.1815  0.4954
15004TIP3    H144953   5.138   3.103   5.548  0.8516  3.6565  2.1943
15004TIP3    H244954   5.269   3.031   5.572 -1.3939 -2.0064 -0.6793
15005TIP3   OH244955   3.665   1.579   2.640 -0.5328  0.8256 -0.7507
15005TIP3    H144956   3.707   1.608   2.559  0.0498 -0.0074 -0.7593
15005TIP3    H244957   3.738   1.566   2.701 -0.6395 -1.5524 -1.0486
15006TIP3   OH244958   6.886   4.604   6.318  0.1759  0.2156  0.0799
15006TIP3    H144959   6.793   4.598   6.337 -0.5074  0.0775 -2.8491
15006TIP3    H244960   6.912   4.515   6.296 -0.1578  0.8382 -3.3959
15007TIP3   OH244961   7.327   3.539   0.645  1.1966  0.2407  0.2349
15007TIP3    H144962   7.362   3.452   0.627  1.4012 -0.1005  2.0999
15007TIP3    H244963   7.358   3.593   0.572  1.2186 -1.1790 -0.8554
15008TIP3   OH244964   2.482   3.954   5.578 -0.1262 -0.1064  0.1346
15008TIP3    H144965   2.439   3.944   5.663  0.8464 -1.7154  0.4745
15008TIP3    H244966   2.544   3.881   5.574  0.2426  0.2691 -1.7228
15009TIP3   OH244967   0.328   4.364   4.954 -0.0817 -0.2347 -0.1207
15009TIP3    H144968   0.332   4.268   4.957 -1.1060 -0.2723  1.3374
15009TIP3    H244969   0.293   4.384   4.868 -2.5473 -1.3418  0.5393
15010TIP3   OH244970   3.898   0.238   4.711  0.5667  0.1285 -0.2036
15010TIP3    H144971   3.982   0.272   4.741 -0.2731  1.3555  0.8399
15010TIP3    H244972   3.867   0.185   4.784  0.9391 -1.3013 -1.0430
15011TIP3   OH244973   6.555   5.507   2.315 -0.2262  0.1371  0.0021
15011TIP3    H144974   6.528   5.423   2.352  1.4691 -0.3269  0.2491
15011TIP3    H244975   6.599   5.484   2.233  1.5010  0.6492  0.7599
15012TIP3   OH244976   3.949   5.902   1.965  0.4092 -0.1385  0.1408
15012TIP3    H144977   3.875   5.871   1.912 -0.1772 -0.8059  1.3202
15012TIP3    H244978   4.025   5.856   1.928 -0.2222 -1.8604  0.8602
15013TIP3   OH244979   7.506   7.663   1.616 -0.4723  0.7390 -0.0207
15013TIP3    H144980   7.555   7.684   1.696  0.5980 -1.8831  0.1109
15013TIP3    H244981   7.574   7.653   1.549 -0.8009 -2.0735 -0.0416
15014TIP3   OH244982   6.409   0.473   6.383 -0.5531 -0.3732 -0.0930
15014TIP3    H144983   6.501   0.460   6.363 -0.6437 -2.5292  0.6646
15014TIP3    H244984   6.408   0.532   6.458  0.2804 -1.2658  0.6337
15015TIP3   OH244985   8.298   4.132   5.043 -0.8519  0.3862  0.3223
15015TIP3    H144986   8.326   4.192   4.974 -0.5979  0.9587  0.9130
15015TIP3    H244987   8.208   4.108   5.019  0.2734 -2.0169 -1.9708
15016TIP3   OH244988   0.790   3.259   4.287  0.2608  0.5133  0.3417
15016TIP3    H144989   0.781   3.183   4.229  0.2707 -0.5992  1.7680
15016TIP3    H244990   0.739   3.237   4.364  2.4233  0.7545  1.9382
15017TIP3   OH244991   3.245   3.557   5.636 -0.5304 -0.2465  0.2002
15017TIP3    H144992   3.279   3.520   5.718 -0.8041 -1.3505 -0.1741
15017TIP3    H244993   3.161   3.596   5.660 -1.2431 -1.7262  0.2183
15018TIP3   OH244994   0.055   7.671   2.991  0.2316  0.3190  0.8037
15018TIP3    H144995   0.005   7.737   2.942  1.9517  0.3371 -1.0166
15018TIP3    H244996   0.076   7.715   3.074  1.4821  2.1715 -0.4153
15019TIP3   OH244997   4.503   6.822   3.455  0.0387  0.5773 -0.3783
15019TIP3    H144998   4.503   6.918   3.456  0.0130  0.5742  0.1971
15019TIP3    H244999   4.417   6.798   3.421 -1.1394  0.7674  2.1751
15020TIP3   OH245000   1.926   3.559   6.468 -0.1086 -0.6752  0.1930
15020TIP3    H145001   2.014   3.522   6.480 -1.0157 -2.2278  2.9102
15020TIP3    H245002   1.918   3.623   6.539 -2.1335 -2.7038  1.9332
15021TIP3   OH245003   4.448   2.203   3.687  0.3080  0.0897 -0.0519
15021TIP3    H145004   4.361   2.183   3.721  0.6180  1.5032  1.7275
15021TIP3    H245005   4.437   2.284   3.636  0.6764  0.6686  0.7672
15022TIP3   OH245006   7.480   3.835   6.637 -0.7588 -0.4745 -0.4087
15022TIP3    H145007   7.509   3.905   6.695  0.7006 -2.0025  0.8080
15022TIP3    H245008   7.524   3.853   6.554 -1.5362  0.8135 -0.5618
15023TIP3   OH245009   8.360   4.791   2.208 -0.0788  1.0242  0.0026
15023TIP3    H145010   8.349   4.761   2.298  1.7404 -1.2149 -0.4418
15023TIP3    H245011   8.420   4.865   2.215  1.3108 -0.1021  0.5546
15024TIP3   OH245012   0.177   4.991   5.985 -1.1374  0.1031  0.3918
15024TIP3    H145013   0.177   5.048   5.908 -2.0659  1.2308  1.1940
15024TIP3    H245014   0.222   4.912   5.956  0.5099  1.3583 -0.6727
15025TIP3   OH245015   7.541   6.725   6.611 -0.7387 -0.2519 -0.1950
15025TIP3    H145016   7.506   6.657   6.669 -0.9070 -0.0201 -0.0229
15025TIP3    H245017   7.466   6.781   6.592 -0.4269  0.3381  0.2992
15026TIP3   OH245018   4.035   1.342   5.060 -0.5299 -0.4378 -0.2171
15026TIP3    H145019   3.992   1.411   5.010 -0.5896 -1.4873 -1.6654
15026TIP3    H245020   4.067   1.387   5.139  0.0279  1.3949 -1.4109
15027TIP3   OH245021   0.404   0.184   4.278  0.0423  0.1515 -1.4390
15027TIP3    H145022   0.398   0.125   4.353 -0.9307  3.4117  1.2593
15027TIP3    H245023   0.321   0.173   4.232 -0.5339  0.0837 -0.4089
15028TIP3   OH245024   7.856   3.596   3.400 -1.0676 -0.5799 -0.0897
15028TIP3    H145025   7.869   3.509   3.361 -1.8850 -0.6931 -0.1254
15028TIP3    H245026   7.849   3.655   3.325 -1.3052 -0.6010 -0.0845
15029TIP3   OH245027   2.597   4.807   1.798  0.3697 -0.3780  0.3261
15029TIP3    H145028   2.660   4.878   1.787 -0.7949  0.7670  0.8691
15029TIP3    H245029   2.574   4.782   1.708 -0.6847  1.3133  0.0785
15030TIP3   OH245030   2.017   7.339   1.271  0.0752 -0.1999 -0.4518
15030TIP3    H145031   2.022   7.290   1.189  0.6483 -0.5639 -0.2098
15030TIP3    H245032   2.021   7.431   1.245 -1.4620 -0.2416 -0.9509
15031TIP3   OH245033   1.175   4.027   1.190  0.1632 -0.4470 -0.1179
15031TIP3    H145034   1.131   4.096   1.239 -2.8890 -0.8430 -1.9955
15031TIP3    H245035   1.168   3.949   1.246  2.4981  0.4012  1.4622
15032TIP3   OH245036   6.618   2.459   5.005  0.0720  0.0287 -0.2601
15032TIP3    H145037   6.611   2.430   4.914  1.5415  0.3528 -0.5057
15032TIP3    H245038   6.603   2.380   5.056  1.9489 -0.7838 -0.8736
15033TIP3   OH245039   4.325   4.476   2.209 -0.3204  0.9284 -0.2153
15033TIP3    H145040   4.300   4.514   2.124  0.5743  0.2576 -0.7991
15033TIP3    H245041   4.389   4.409   2.187  1.0002  1.6926  1.1056
15034TIP3   OH245042   3.781   2.130   0.579 -0.2049 -0.7022 -0.0431
15034TIP3    H145043   3.731   2.136   0.660  1.5486  1.6805  0.9786
15034TIP3    H245044   3.812   2.040   0.577 -0.6832 -0.9473  1.7062
15035TIP3   OH245045   0.193   3.696   6.403 -0.5589 -0.3828 -0.3377
15035TIP3    H145046   0.168   3.775   6.355 -0.3050 -0.8264 -1.2286
15035TIP3    H245047   0.155   3.624   6.352 -1.3852 -0.8036  0.8417
15036TIP3   OH245048   0.173   2.094   1.986 -0.6403 -0.7688  0.4460
15036TIP3    H145049   0.168   2.072   1.893 -0.0007  0.6964  0.0433
15036TIP3    H245050   0.093   2.141   2.005  0.2404  0.9693  0.0390
15037TIP3   OH245051   1.584   5.368   3.273 -0.0433 -0.0562  0.3285
15037TIP3    H145052   1.543   5.395   3.191  0.3449 -0.6032 -0.0508
15037TIP3    H245053   1.676   5.393   3.263  0.2859 -1.3443  0.0400
15038TIP3   OH245054   0.243   3.915   5.921  0.5406 -0.8646 -0.5704
15038TIP3    H145055   0.236   3.991   5.864 -0.4824  0.8634  1.7176
15038TIP3    H245056   0.171   3.858   5.894 -3.2462  2.2039  2.0074
15039TIP3   OH245057   3.985   0.962   0.952  0.1711  0.2895 -0.1743
15039TIP3    H145058   4.057   0.945   0.892  0.0756 -0.5916 -0.0500
15039TIP3    H245059   4.016   1.032   1.008  0.2793  1.1093 -1.2241
15040TIP3   OH245060   7.907   0.372   1.827 -0.1787  0.3861  0.4623
15040TIP3    H145061   7.887   0.377   1.920 -0.6607 -0.4252  0.4136
15040TIP3    H245062   7.927   0.462   1.801 -1.0533  0.7770  1.1183
15041TIP3   OH245063   4.238   7.299   4.745 -0.0964 -0.4468  0.2173
15041TIP3    H145064   4.204   7.297   4.834  0.6030  0.8959  0.5412
15041TIP3    H245065   4.320   7.348   4.751  0.1084 -0.5745 -1.1140
15042TIP3   OH245066   3.207   0.701   5.917  0.1555 -0.0837  0.7027
15042TIP3    H145067   3.266   0.769   5.883  1.7041 -0.7006  2.0684
15042TIP3    H245068   3.173   0.738   5.999 -0.3924 -0.2618  0.5638
15043TIP3   OH245069   6.078   2.775   5.887 -0.5559  0.1932 -0.2138
15043TIP3    H145070   6.168   2.753   5.909 -0.4499  1.9218  1.2908
15043TIP3    H245071   6.031   2.775   5.970 -1.8755 -0.2767 -0.9179
15044TIP3   OH245072   2.797   6.927   0.851 -0.2184 -0.1084 -0.3270
15044TIP3    H145073   2.774   7.019   0.863 -0.0922  0.5841 -4.1958
15044TIP3    H245074   2.715   6.883   0.830 -0.3154 -1.0178  1.7028
15045TIP3   OH245075   1.731   6.193   6.037 -0.1124  0.3022 -1.0081
15045TIP3    H145076   1.727   6.111   5.988 -0.5442 -0.8232  0.7876
15045TIP3    H245077   1.696   6.259   5.978 -1.5976 -1.1667 -1.8509
15046TIP3   OH245078   3.819   0.942   6.389  0.1483 -0.0801  0.0151
15046TIP3    H145079   3.828   0.930   6.294 -0.6823 -0.4470 -0.0268
15046TIP3    H245080   3.729   0.973   6.401 -0.1537 -1.1808  0.7771
15047TIP3   OH245081   4.144   5.739   5.013  0.1599 -0.7174  0.1815
15047TIP3    H145082   4.115   5.744   5.104  0.3371  0.2812  0.1914
15047TIP3    H245083   4.070   5.772   4.962 -0.2007 -1.9108 -0.1076
15048TIP3   OH245084   6.340   5.236   3.744 -0.1610 -0.3021  0.4356
15048TIP3    H145085   6.382   5.318   3.772 -0.2946 -0.4499  1.0744
15048TIP3    H245086   6.339   5.242   3.649 -2.3381  1.5624  0.4945
15049TIP3   OH245087   4.587   2.900   0.225 -0.5948 -0.1684  0.3204
15049TIP3    H145088   4.656   2.937   0.280 -0.5509 -0.8451  0.7305
15049TIP3    H245089   4.619   2.812   0.202 -0.3822  0.2759 -1.1979
15050TIP3   OH245090   5.097   1.252   1.576 -0.5000 -0.4161  0.1620
15050TIP3    H145091   5.137   1.214   1.655 -1.7617 -0.9504  0.5612
15050TIP3    H245092   5.033   1.187   1.548 -0.9123  0.3066 -0.6145
15051TIP3   OH245093   7.856   0.670   5.779 -0.3645  0.1137  0.0013
15051TIP3    H145094   7.822   0.584   5.807  0.2749  0.1177  0.8496
15051TIP3    H245095   7.810   0.733   5.835 -0.2954  0.2643 -0.1113
15052TIP3   OH245096   7.623   0.758   5.101  0.0903  0.1277  0.3335
15052TIP3    H145097   7.708   0.727   5.133 -1.0027 -2.1607  1.2852
15052TIP3    H245098   7.564   0.747   5.176 -1.8446 -2.2051 -1.3535
15053TIP3   OH245099   5.618   6.576   0.974  0.4606 -0.0216  0.1303
15053TIP3    H145100   5.591   6.611   1.059  1.0665 -1.8558  1.1289
15053TIP3    H245101   5.581   6.637   0.911 -1.4631  0.4840  1.6372
15054TIP3   OH245102   4.827   7.388   1.447 -0.3276  0.1885 -0.2353
15054TIP3    H145103   4.912   7.395   1.489 -0.9227  0.8550  0.8954
15054TIP3    H245104   4.826   7.459   1.382  0.2479 -0.2888 -0.7804
15055TIP3   OH245105   0.518   2.743   0.521 -0.2906  0.2990  0.1322
15055TIP3    H145106   0.531   2.656   0.559  0.6676 -0.1543 -1.1607
15055TIP3    H245107   0.597   2.758   0.469  0.4020  2.6930  1.6902
15056TIP3   OH245108   0.974   6.426   4.175  0.1369 -0.3847 -0.4228
15056TIP3    H145109   0.885   6.446   4.205 -0.0794  0.5506 -1.5781
15056TIP3    H245110   0.994   6.340   4.212 -0.7680 -0.0672  0.8707
15057TIP3   OH245111   1.572   2.867   0.811 -0.0644 -0.2406 -1.2449
15057TIP3    H145112   1.646   2.923   0.833  0.2681 -1.0989 -0.0439
15057TIP3    H245113   1.540   2.900   0.727 -0.2307  2.0689 -0.3346
15058TIP3   OH245114   3.807   5.580   2.198  0.4277  0.1212  0.5892
15058TIP3    H145115   3.848   5.514   2.254 -0.4702 -1.2041 -0.2685
15058TIP3    H245116   3.784   5.534   2.118 -3.8201  0.3797  1.4085
15059TIP3   OH245117   2.884   4.777   1.190 -0.1115 -0.2380 -0.3174
15059TIP3    H145118   2.896   4.837   1.264 -1.6065 -0.9145  0.5102
15059TIP3    H245119   2.856   4.695   1.230 -2.5646 -0.1694 -1.6959
15060TIP3   OH245120   6.873   2.606   6.688 -0.2754  0.5631 -0.2087
15060TIP3    H145121   6.806   2.632   6.752 -0.4124 -1.5711  0.5940
15060TIP3    H245122   6.824   2.562   6.618  0.1911 -0.3810  0.0387
15061TIP3   OH245123   3.784   4.070   1.527 -0.0926  0.4025 -0.1276
15061TIP3    H145124   3.802   4.130   1.600  1.6950  0.4852 -0.5936
15061TIP3    H245125   3.767   3.986   1.570 -0.8677  0.8368  0.4505
15062TIP3   OH245126   7.538   4.738   4.478 -0.1180 -0.0515  0.6050
15062TIP3    H145127   7.533   4.833   4.485  0.0925 -0.0241  0.3920
15062TIP3    H245128   7.452   4.713   4.443  0.6410  0.2821 -1.6169
15063TIP3   OH245129   3.112   0.161   5.039 -0.2684  0.3195 -0.3652
15063TIP3    H145130   3.071   0.138   5.122  0.2405  0.7215  0.0039
15063TIP3    H245131   3.041   0.196   4.985 -0.4218  0.9621  0.2486
15064TIP3   OH245132   5.366   7.147   2.840  0.5707  0.0176  0.5086
15064TIP3    H145133   5.383   7.138   2.747 -0.3098 -1.8114  0.4723
15064TIP3    H245134   5.282   7.194   2.845  0.4454 -0.1894  0.3589
15065TIP3   OH245135   0.279   7.747   5.170  0.3241  0.4252 -0.9070
15065TIP3    H145136   0.206   7.801   5.139  0.0818 -0.2991 -1.6474
15065TIP3    H245137   0.340   7.809   5.210 -0.0395  1.2193 -1.5484
15066TIP3   OH245138   7.969   7.358   3.816  0.4302  0.2322  0.4947
15066TIP3    H145139   7.887   7.388   3.776 -0.8735 -0.3791  2.5562
15066TIP3    H245140   7.979   7.269   3.783 -0.1043  0.0750  0.7380
15067TIP3   OH245141   0.143   2.617   3.494 -0.3753  0.0065 -0.2500
15067TIP3    H145142   0.222   2.579   3.456 -0.5515  0.3346 -0.9515
15067TIP3    H245143   0.084   2.630   3.420 -1.0912 -0.2281  0.2643
15068TIP3   OH245144   2.821   1.001   4.385  0.5127  0.6731  0.6492
15068TIP3    H145145   2.886   1.069   4.367  0.7066  0.6612  1.3045
15068TIP3    H245146   2.856   0.923   4.342 -0.0402  1.1293 -0.6919
15069TIP3   OH245147   3.626   1.415   5.886  0.3355 -0.3922 -0.1390
15069TIP3    H145148   3.608   1.461   5.968  0.1810 -0.7506  0.0285
15069TIP3    H245149   3.679   1.339   5.911  0.5160 -0.3553 -0.4040
15070TIP3   OH245150   4.932   6.481   5.731  0.5446  0.8594 -0.4723
15070TIP3    H145151   4.892   6.465   5.645 -2.1663 -0.3160  0.8862
15070TIP3    H245152   4.858   6.477   5.793  2.5708  0.3388  2.0644
15071TIP3   OH245153   4.438   7.812   1.418 -0.4115  0.0517  0.6711
15071TIP3    H145154   4.400   7.759   1.348 -2.2102  0.4707  1.2689
15071TIP3    H245155   4.489   7.750   1.470  0.0976 -0.4608 -0.3999
15072TIP3   OH245156   4.638   1.419   2.224 -0.2987 -0.0071  0.0755
15072TIP3    H145157   4.724   1.431   2.185 -0.9760  0.4146 -1.3675
15072TIP3    H245158   4.654   1.417   2.319  1.3801 -0.9022 -0.1991
15073TIP3   OH245159   7.011   7.563   6.239 -0.1475 -0.6021  0.1850
15073TIP3    H145160   6.991   7.599   6.325  1.1421 -1.9864  1.1159
15073TIP3    H245161   6.945   7.495   6.225 -1.2287  0.5594 -0.5951
15074TIP3   OH245162   3.417   3.959   3.081  0.0566  0.1940 -0.2004
15074TIP3    H145163   3.513   3.958   3.074 -0.0645 -0.6820 -2.7262
15074TIP3    H245164   3.396   4.049   3.106  1.4795  0.9842 -1.6487
15075TIP3   OH245165   4.825   0.626   4.459  0.1122  0.2975 -0.0875
15075TIP3    H145166   4.857   0.716   4.467 -0.3710  0.4797 -0.1283
15075TIP3    H245167   4.743   0.626   4.509  0.1074 -0.1177 -0.0976
15076TIP3   OH245168   1.180   0.052   2.438  0.3022  0.5376  0.3241
15076TIP3    H145169   1.234  -0.027   2.427  0.7563  0.9503 -0.4675
15076TIP3    H245170   1.105   0.037   2.380  0.9365  1.1608 -0.6786
15077TIP3   OH245171   6.607   7.587   5.915 -0.0033  0.5800  0.1450
15077TIP3    H145172   6.624   7.626   6.001  0.2465  1.9564 -0.4876
15077TIP3    H245173   6.675   7.623   5.858  1.2638 -2.1057 -0.1810
15078TIP3   OH245174   2.019   1.071   2.224  0.1146  0.2103  0.0033
15078TIP3    H145175   1.991   0.999   2.168 -0.7846  0.1384  0.5238
15078TIP3    H245176   2.025   1.033   2.311 -2.0033  1.0938  0.6012
15079TIP3   OH245177   4.777   6.093   5.574 -0.0663 -1.4008 -0.0498
15079TIP3    H145178   4.773   6.172   5.519 -1.5930 -1.6413 -0.3307
15079TIP3    H245179   4.687   6.061   5.576 -0.2583 -1.0353  3.1680
15080TIP3   OH245180   5.449   6.108   4.428  0.2075 -0.3161  0.1646
15080TIP3    H145181   5.403   6.105   4.512  0.6315  0.0082  0.4098
15080TIP3    H245182   5.537   6.074   4.447 -0.8510 -4.2368 -0.9520
15081TIP3   OH245183   0.428   4.113   5.567 -0.0571 -0.0481  0.1553
15081TIP3    H145184   0.518   4.085   5.584  0.1375 -0.2089 -1.0193
15081TIP3    H245185   0.376   4.032   5.572  0.1291 -0.2383 -0.8038
15082TIP3   OH245186   6.819   1.574   6.110  0.3045 -0.3952  0.2027
15082TIP3    H145187   6.810   1.615   6.196 -0.8637 -0.4507  0.1189
15082TIP3    H245188   6.730   1.566   6.077  0.6826 -0.9941 -0.7324
15083TIP3   OH245189   4.579   0.340   6.691 -1.1228 -1.0126 -0.2803
15083TIP3    H145190   4.536   0.393   6.624  0.9956 -0.0655 -0.9928
15083TIP3    H245191   4.621   0.404   6.749 -0.4527 -1.8770  0.2148
15084TIP3   OH245192   8.281   5.236   4.399 -0.2998  0.2668 -0.4453
15084TIP3    H145193   8.314   5.236   4.309 -1.7541  1.0043 -0.9938
15084TIP3    H245194   8.290   5.327   4.428  3.1845 -0.4648  1.3701
15085TIP3   OH245195   6.929   4.275   1.910 -0.1339  0.1317 -0.4024
15085TIP3    H145196   6.945   4.365   1.884  1.3848  0.1930  0.6310
15085TIP3    H245197   7.016   4.238   1.926 -0.8073 -0.7761  1.5522
15086TIP3   OH245198   1.131   2.032   6.182 -0.4610 -0.0416  0.1582
15086TIP3    H145199   1.201   1.986   6.227  0.3892  1.6123  0.5969
15086TIP3    H245200   1.050   1.998   6.222  0.1897 -0.0934  1.4700
15087TIP3   OH245201   3.146   3.511   6.568  0.0467 -0.0521  0.1604
15087TIP3    H145202   3.147   3.583   6.505  0.1844 -1.5891 -1.6758
15087TIP3    H245203   3.109   3.437   6.520 -0.5937 -1.0974  2.1421
15088TIP3   OH245204   2.340   1.426   1.043 -0.2411  0.1343  1.0680
15088TIP3    H145205   2.275   1.470   0.989 -0.5023  1.1221  2.1358
15088TIP3    H245206   2.353   1.341   1.002 -1.2349  0.4336  0.0991
15089TIP3   OH245207   3.510   2.372   0.748  0.1361 -0.6059  0.1877
15089TIP3    H145208   3.422   2.354   0.715 -0.4832  0.8353  0.9429
15089TIP3    H245209   3.532   2.296   0.801 -1.2399 -0.3790  1.1200
15090TIP3   OH245210   6.862   2.469   3.525 -0.0358  0.0733 -0.2941
15090TIP3    H145211   6.871   2.463   3.430  1.8316  0.1551 -0.1422
15090TIP3    H245212   6.834   2.381   3.551  0.0955 -0.1358 -0.8392
15091TIP3   OH245213   6.111   1.381   3.197 -0.1864  0.2627  0.1889
15091TIP3    H145214   6.175   1.441   3.235  1.8860  0.2293 -2.9220
15091TIP3    H245215   6.108   1.308   3.259  0.3436  1.6634  1.9849
15092TIP3   OH245216   5.706   6.342   4.889  0.1355 -0.5326 -0.3481
15092TIP3    H145217   5.793   6.303   4.894  0.1372 -0.4221  0.7216
15092TIP3    H245218   5.670   6.310   4.806  0.1528 -2.8077  0.4638
15093TIP3   OH245219   6.200   7.637   1.392 -0.4460  0.4460  0.1254
15093TIP3    H145220   6.134   7.579   1.355  0.2437 -0.7511  0.7150
15093TIP3    H245221   6.257   7.580   1.444  1.4983  1.2888 -0.9392
15094TIP3   OH245222   2.821   6.326   6.755  0.2256  0.3569  0.9140
15094TIP3    H145223   2.813   6.407   6.806  0.4721  0.2159  1.1808
15094TIP3    H245224   2.821   6.256   6.820 -0.8570  0.0753  0.6335
15095TIP3   OH245225   0.088   4.474   4.435  0.3324 -0.2404 -0.5601
15095TIP3    H145226   0.053   4.522   4.360  0.1196 -2.6123 -2.0938
15095TIP3    H245227   0.183   4.479   4.425  0.3093 -1.4014 -1.6498
15096TIP3   OH245228   2.891   3.277   1.068  0.3604  0.1829  0.0451
15096TIP3    H145229   2.832   3.310   0.999  0.3131  0.0383  0.0161
15096TIP3    H245230   2.901   3.184   1.048  2.4818  0.6530 -1.3275
15097TIP3   OH245231   4.701   4.709   2.861 -0.0965 -0.5316  0.4506
15097TIP3    H145232   4.788   4.748   2.858 -1.7831  3.9292  1.9832
15097TIP3    H245233   4.672   4.705   2.770  0.9872 -0.2821  0.0929
15098TIP3   OH245234   7.031   3.926   6.475  0.7414 -0.3672  0.8965
15098TIP3    H145235   7.099   3.926   6.543 -0.2806  1.1459  1.9974
15098TIP3    H245236   6.986   4.010   6.487  1.0717  0.3841 -2.2555
15099TIP3   OH245237   2.222   0.489   6.546 -0.8627  0.3102  0.2389
15099TIP3    H145238   2.273   0.412   6.520 -1.0389  0.4099 -0.4210
15099TIP3    H245239   2.288   0.554   6.571 -0.7217 -0.1654  1.1352
15100TIP3   OH245240   2.440   3.077   1.381  0.0529  0.1912 -0.3605
15100TIP3    H145241   2.360   3.124   1.403 -1.2028 -1.4073 -1.3066
15100TIP3    H245242   2.427   2.989   1.417  2.4036  0.4990  1.5111
15101TIP3   OH245243   0.613   3.856   5.397  0.4365  0.8548  0.5188
15101TIP3    H145244   0.596   3.786   5.334 -0.7655  2.2250 -0.7593
15101TIP3    H245245   0.551   3.839   5.468  0.2765  0.5239  0.3020
15102TIP3   OH245246   7.455   3.054   0.290 -0.3842 -0.2711  0.0300
15102TIP3    H145247   7.377   2.997   0.295 -0.8197  0.3550  0.6017
15102TIP3    H245248   7.470   3.065   0.197 -1.2219 -0.0982 -0.0980
15103TIP3   OH245249   6.572   2.962   5.339  0.0548 -0.3052  0.5944
15103TIP3    H145250   6.598   2.949   5.248 -0.1559  0.1849  0.4568
15103TIP3    H245251   6.517   3.041   5.337  0.2426 -0.1534  1.1791
15104TIP3   OH245252   1.827   1.954   1.797 -0.4428 -0.3799  0.7908
15104TIP3    H145253   1.913   1.980   1.828 -0.1942  0.8278 -0.8266
15104TIP3    H245254   1.772   1.956   1.876  0.5261  0.9103  1.4763
15105TIP3   OH245255   5.753   7.706   0.929  0.2444 -0.3171 -0.3813
15105TIP3    H145256   5.794   7.729   1.012  1.4622 -1.2035 -0.6953
15105TIP3    H245257   5.666   7.674   0.952  0.5631 -0.5450  0.5518
15106TIP3   OH245258   5.136   1.607   4.397  0.5606 -0.3832  0.0286
15106TIP3    H145259   5.055   1.623   4.349  0.6581 -0.0815 -0.0402
15106TIP3    H245260   5.110   1.555   4.473  0.5063 -1.5168 -0.7341
15107TIP3   OH245261   4.358   2.399   5.721 -0.4345 -0.6321  0.5969
15107TIP3    H145262   4.328   2.398   5.630 -0.0965 -0.0951  0.4784
15107TIP3    H245263   4.317   2.477   5.759  1.8362  0.8957  0.0773
15108TIP3   OH245264   1.781   0.761   5.300 -0.5977  0.0391  0.3283
15108TIP3    H145265   1.813   0.850   5.315 -0.0873 -0.1639  0.4651
15108TIP3    H245266   1.787   0.749   5.205 -1.8164  0.5687  0.1548
15109TIP3   OH245267   3.751   4.498   5.357 -0.1537  0.0201  0.2076
15109TIP3    H145268   3.736   4.544   5.275  0.6390 -1.0171 -0.5388
15109TIP3    H245269   3.777   4.409   5.331 -2.2969 -1.1085  1.6118
15110TIP3   OH245270   5.345   4.233   1.265  0.2518  0.2261  0.2116
15110TIP3    H145271   5.289   4.177   1.210 -0.6463 -0.0386  1.3391
15110TIP3    H245272   5.311   4.220   1.354  1.8847  0.3550  0.8960
15111TIP3   OH245273   7.068   2.010   4.686  0.5503 -0.2751  0.6804
15111TIP3    H145274   7.111   1.941   4.737  1.8955  0.3940  0.5012
15111TIP3    H245275   7.100   2.092   4.724  2.1675  0.2516 -1.6339
15112TIP3   OH245276   3.109   7.820   5.723  0.0697 -0.5641 -0.0417
15112TIP3    H145277   3.032   7.850   5.771  0.2489 -0.9500  0.4982
15112TIP3    H245278   3.184   7.855   5.772  0.2447 -0.4044 -0.4163
15113TIP3   OH245279   3.142   4.369   6.002 -0.0911 -0.6484  0.1075
15113TIP3    H145280   3.234   4.396   6.009 -0.9891  2.2363  3.5159
15113TIP3    H245281   3.105   4.425   5.935  0.5696 -1.9432 -1.4087
15114TIP3   OH245282   6.354   3.339   0.521  0.4218 -0.5292 -0.2314
15114TIP3    H145283   6.340   3.378   0.435  2.4525  0.4919 -0.1581
15114TIP3    H245284   6.385   3.250   0.501 -0.7189 -0.8851 -0.4880
15115TIP3   OH245285   4.296   2.933   0.939 -0.3349 -0.1037 -0.3835
15115TIP3    H145286   4.367   2.870   0.922 -0.2166  0.3851 -1.7754
15115TIP3    H245287   4.216   2.881   0.934 -0.2270 -0.1832 -1.3381
15116TIP3   OH245288   1.820   4.787   5.705  0.5980  0.3992  0.5068
15116TIP3    H145289   1.885   4.802   5.773 -0.1256 -0.2656  1.3847
15116TIP3    H245290   1.843   4.701   5.668  0.9655  0.7404 -0.0763
15117TIP3   OH245291   5.269   3.664   2.237  0.1326 -0.5490 -0.1016
15117TIP3    H145292   5.181   3.669   2.275  0.2953 -0.2130  0.2486
15117TIP3    H245293   5.315   3.740   2.275  1.0841 -1.6524  1.0608
15118TIP3   OH245294   6.903   4.732   0.595 -0.1388 -0.2852 -1.0240
15118TIP3    H145295   6.818   4.693   0.575  0.0796 -1.1807 -0.2913
15118TIP3    H245296   6.927   4.695   0.680 -0.5380  2.5252  0.4217
15119TIP3   OH245297   5.589   4.676   0.550 -0.7036 -0.2869  0.4594
15119TIP3    H145298   5.526   4.666   0.478 -2.8186  1.0607  1.9988
15119TIP3    H245299   5.560   4.755   0.596  2.3854  0.6123  1.0853
15120TIP3   OH245300   6.777   6.905   0.934  0.6118  0.2967 -0.0610
15120TIP3    H145301   6.688   6.875   0.915  0.3486 -0.0588  1.6170
15120TIP3    H245302   6.766   6.996   0.962  0.7735  0.2596  0.1231
15121TIP3   OH245303   0.674   0.312   0.890 -0.3043 -0.6141 -0.2328
15121TIP3    H145304   0.666   0.365   0.810  0.7899 -1.3022 -0.8351
15121TIP3    H245305   0.636   0.227   0.867  1.3691 -1.3196 -0.5662
15122TIP3   OH245306   4.778   1.029   6.834 -0.2778 -0.3576 -0.4662
15122TIP3    H145307   4.851   1.008   6.892  1.5561  1.1220 -2.0792
15122TIP3    H245308   4.745   1.113   6.867  0.3344  0.1535 -1.1194
15123TIP3   OH245309   1.724   6.861   0.885  0.5078  0.0007 -0.8798
15123TIP3    H145310   1.760   6.914   0.813  0.5615  2.3832  0.7802
15123TIP3    H245311   1.631   6.853   0.863  0.6207  0.2204 -1.4854
15124TIP3   OH245312   2.557   6.811   4.683 -0.5527 -0.2572 -0.0638
15124TIP3    H145313   2.512   6.747   4.627  2.1767 -0.8081 -1.8225
15124TIP3    H245314   2.629   6.843   4.629  1.7180 -0.1161  2.8159
15125TIP3   OH245315   0.276   2.810   5.752  0.2295  0.1807 -0.0497
15125TIP3    H145316   0.292   2.790   5.844  0.4684  1.4325  0.1963
15125TIP3    H245317   0.256   2.725   5.712  2.7836 -0.8200  0.5951
15126TIP3   OH245318   4.123   6.101   1.033 -0.0722  0.2593  0.9557
15126TIP3    H145319   4.125   6.178   1.091  0.5669  1.9078 -1.1067
15126TIP3    H245320   4.065   6.127   0.961  0.4859 -1.0296 -0.0012
15127TIP3   OH245321   5.310   0.545   1.065  0.0577  0.3872  0.1326
15127TIP3    H145322   5.345   0.510   0.983  1.2528 -1.0227  1.1878
15127TIP3    H245323   5.387   0.581   1.110 -0.5105  0.7553  0.8161
15128TIP3   OH245324   4.172   4.024   5.804  0.0693  0.5447  0.1743
15128TIP3    H145325   4.118   4.101   5.788 -0.2315  0.9139  2.5484
15128TIP3    H245326   4.229   4.049   5.877  0.5413 -1.2050  0.4535
15129TIP3   OH245327   4.714   0.309   6.294  0.0358  0.3763  0.2707
15129TIP3    H145328   4.707   0.400   6.265 -3.5952 -0.2852 -1.5393
15129TIP3    H245329   4.799   0.280   6.261  0.2600  2.4740 -1.2068
15130TIP3   OH245330   8.182   6.566   3.637 -0.0849  0.2398  0.2110
15130TIP3    H145331   8.262   6.522   3.610 -1.0039 -2.4028  1.4108
15130TIP3    H245332   8.202   6.605   3.722  0.4698  1.4036 -0.4324
15131TIP3   OH245333   3.677   4.053   3.439  0.3409 -0.1847  0.1835
15131TIP3    H145334   3.646   4.064   3.529  1.6684 -1.9632  0.9235
15131TIP3    H245335   3.764   4.013   3.448 -0.0415 -1.6793 -1.8793
15132TIP3   OH245336   8.165   3.795   2.261  0.5007  0.0484  0.1333
15132TIP3    H145337   8.110   3.795   2.339  1.8627  1.2763  1.1634
15132TIP3    H245338   8.206   3.708   2.261  0.4326  0.0102  0.7499
15133TIP3   OH245339   1.712   5.675   1.608  0.4043 -0.1800 -0.2371
15133TIP3    H145340   1.631   5.675   1.660  1.7746  0.2034  2.0047
15133TIP3    H245341   1.723   5.766   1.582  0.8708  0.0483  0.7289
15134TIP3   OH245342   1.202   4.002   0.261 -0.4451 -0.0144 -0.0665
15134TIP3    H145343   1.203   3.911   0.230 -0.5807  0.0383 -0.2289
15134TIP3    H245344   1.109   4.025   0.263 -0.3882  0.2566 -0.4332
15135TIP3   OH245345   5.456   1.896   0.267  0.8749  0.1355  0.1961
15135TIP3    H145346   5.550   1.880   0.258  1.1550  1.4971  0.4286
15135TIP3    H245347   5.442   1.907   0.361  0.2996 -1.0086  0.2569
15136TIP3   OH245348   1.436   6.383   4.528 -0.3470 -0.3578 -0.0178
15136TIP3    H145349   1.427   6.332   4.608  0.5571 -0.3215  0.1152
15136TIP3    H245350   1.355   6.432   4.522 -0.0275  0.3994  1.4130
15137TIP3   OH245351   5.624   4.437   3.647  0.1343  0.3610  0.1253
15137TIP3    H145352   5.540   4.482   3.653 -0.4509 -0.3347 -1.9601
15137TIP3    H245353   5.656   4.457   3.559  1.1028 -1.1365  0.1008
15138TIP3   OH245354   8.104   6.124   1.663 -0.0026 -0.7162  0.3266
15138TIP3    H145355   8.166   6.175   1.716  0.2797  0.5042 -1.0954
15138TIP3    H245356   8.018   6.162   1.684 -0.0918 -1.3242  1.0946
15139TIP3   OH245357   6.302   6.251   6.004 -0.2011 -0.4001  0.2739
15139TIP3    H145358   6.329   6.214   5.921  2.2621  0.2050  0.7223
15139TIP3    H245359   6.234   6.315   5.982 -0.7620 -1.4105 -1.0410
15140TIP3   OH245360   7.999   0.098   2.207 -0.1484  0.0424  0.2066
15140TIP3    H145361   8.073   0.067   2.259  2.1038  2.5204 -1.2663
15140TIP3    H245362   8.015   0.062   2.119  0.5333  2.2355 -0.6289
15141TIP3   OH245363   6.767   3.547   3.608  0.4442  0.1281 -0.6477
15141TIP3    H145364   6.759   3.510   3.521  1.1863 -1.7846  0.0500
15141TIP3    H245365   6.694   3.610   3.614  0.4145  0.3530 -2.6220
15142TIP3   OH245366   8.148   6.971   2.456  0.3390  0.2313  0.0029
15142TIP3    H145367   8.085   6.993   2.524 -0.4482  0.5509 -0.8018
15142TIP3    H245368   8.234   6.992   2.494  0.1769 -2.0424  1.8451
15143TIP3   OH245369   3.797   1.132   5.569 -0.2305  0.5425 -0.5680
15143TIP3    H145370   3.871   1.128   5.508  1.0015 -1.4534  0.9684
15143TIP3    H245371   3.805   1.218   5.610 -0.2696  1.3578 -2.1860
15144TIP3   OH245372   4.777   3.259   2.133  0.1564  0.0171  0.1460
15144TIP3    H145373   4.834   3.225   2.201 -0.6111 -2.4851 -0.3636
15144TIP3    H245374   4.818   3.232   2.051 -0.7029 -0.0619 -0.2725
15145TIP3   OH245375   0.584   5.022   2.567 -0.4133  0.3757 -0.3783
15145TIP3    H145376   0.644   5.096   2.555  0.3232 -0.1437  0.0444
15145TIP3    H245377   0.634   4.945   2.541 -0.8725 -0.0765  0.0514
15146TIP3   OH245378   1.073   4.045   0.762  0.1139  0.0211  0.9409
15146TIP3    H145379   1.144   4.037   0.826  1.0619  1.6430  0.1381
15146TIP3    H245380   1.116   4.076   0.682 -1.3477 -0.0566  0.0972
15147TIP3   OH245381   3.799   4.082   6.378  0.1145 -0.2495  0.2266
15147TIP3    H145382   3.784   4.140   6.452 -1.1665  0.0376 -0.2339
15147TIP3    H245383   3.857   4.130   6.320  0.1331  0.0231  0.4715
15148TIP3   OH245384   6.324   0.788   5.428  0.1649 -0.1600  0.2844
15148TIP3    H145385   6.300   0.754   5.341 -2.9036  0.0776  0.9006
15148TIP3    H245386   6.332   0.883   5.415 -0.3847 -0.1129  0.2375
15149TIP3   OH245387   5.735   3.948   0.664 -0.8438 -0.1049 -0.1271
15149TIP3    H145388   5.670   3.885   0.632 -1.7429  0.6469  0.1692
15149TIP3    H245389   5.686   4.003   0.726  0.3793 -0.3071  1.0521
15150TIP3   OH245390   7.201   2.358   3.742 -0.5327 -0.4775 -0.1273
15150TIP3    H145391   7.207   2.263   3.740 -0.5089 -0.4658 -2.1967
15150TIP3    H245392   7.111   2.376   3.772 -0.8045 -1.1566 -0.5238
15151TIP3   OH245393   2.536   3.951   2.952 -0.4414  0.0645 -0.0729
15151TIP3    H145394   2.458   3.944   2.897 -0.5271  0.1891  0.0354
15151TIP3    H245395   2.517   3.898   3.029 -0.3711 -0.0050 -0.1029
15152TIP3   OH245396   5.090   5.463   6.454 -0.1140  0.1316 -0.2497
15152TIP3    H145397   5.037   5.538   6.429 -0.6787 -0.5833 -1.2883
15152TIP3    H245398   5.084   5.460   6.549 -2.2965 -0.1568 -0.3451
15153TIP3   OH245399   2.052   3.829   3.130 -0.2987  0.6368 -0.3533
15153TIP3    H145400   2.010   3.749   3.163  1.2308 -1.0170 -2.1730
15153TIP3    H245401   2.093   3.867   3.208 -0.0028 -1.0499  0.3826
15154TIP3   OH245402   2.665   0.287   0.074  0.0766 -0.8598  0.7721
15154TIP3    H145403   2.715   0.356   0.029  1.6527 -2.2440  0.3015
15154TIP3    H245404   2.624   0.238   0.003 -1.1305 -0.3791  1.1129
15155TIP3   OH245405   1.754   4.426   6.325 -0.3009 -0.5332 -0.2786
15155TIP3    H145406   1.753   4.522   6.332  2.5362 -0.3723 -0.9093
15155TIP3    H245407   1.721   4.408   6.237  3.2356  0.3125 -1.9961
15156TIP3   OH245408   2.709   6.491   1.971  0.1082 -0.8219  0.0331
15156TIP3    H145409   2.748   6.409   1.941  0.3578 -0.3063 -1.1367
15156TIP3    H245410   2.783   6.544   2.000  0.0488 -0.6607 -0.1063
15157TIP3   OH245411   1.027   1.374   4.313 -0.6226  0.4965  0.4195
15157TIP3    H145412   0.976   1.312   4.261 -1.6814  1.1852  0.6036
15157TIP3    H245413   1.023   1.456   4.263  2.8813 -0.1150 -1.1274
15158TIP3   OH245414   4.374   3.429   0.726 -0.1334 -0.2142  0.0814
15158TIP3    H145415   4.291   3.385   0.744  0.1263 -1.4723 -1.5560
15158TIP3    H245416   4.437   3.386   0.784 -0.3749 -0.1636  0.3849
15159TIP3   OH245417   1.503   4.039   1.211 -0.4825  0.0754  0.0028
15159TIP3    H145418   1.416   4.068   1.185 -0.5975 -0.3301 -0.0772
15159TIP3    H245419   1.504   3.945   1.189  0.2086  0.2237 -0.6201
15160TIP3   OH245420   8.080   4.132   3.003 -0.1892  0.0523 -0.4618
15160TIP3    H145421   8.138   4.105   2.932 -0.4849 -2.0298  0.0163
15160TIP3    H245422   8.137   4.136   3.080 -0.2514  0.2829 -0.4280
15161TIP3   OH245423   0.758   2.685   4.045  0.2263  0.3043 -0.6300
15161TIP3    H145424   0.739   2.761   3.989 -1.5589  0.4240  0.0579
15161TIP3    H245425   0.688   2.623   4.024  1.3884 -0.9835 -0.8398
15162TIP3   OH245426   3.102   6.439   6.436  0.6545  0.3391 -0.3676
15162TIP3    H145427   3.115   6.425   6.530  0.8832  0.2836 -0.4086
15162TIP3    H245428   3.183   6.480   6.406  0.1404  1.4223 -0.3230
15163TIP3   OH245429   8.139   4.739   1.959 -0.2826  0.2970  0.0376
15163TIP3    H145430   8.068   4.712   2.017  1.2209  0.7986  2.2263
15163TIP3    H245431   8.098   4.801   1.897 -1.9602 -0.3701  0.4410
15164TIP3   OH245432   6.730   4.071   2.969 -0.3790 -0.3384 -0.4302
15164TIP3    H145433   6.680   3.998   3.007  0.3309 -0.8725 -0.5023
15164TIP3    H245434   6.676   4.148   2.985 -1.1476 -0.8824 -0.3522
15165TIP3   OH245435   7.828   4.890   4.264  0.1079  0.2831  0.9537
15165TIP3    H145436   7.903   4.945   4.242 -1.8298  2.3163 -1.1582
15165TIP3    H245437   7.789   4.930   4.341  0.6954 -0.2841  1.5542
15166TIP3   OH245438   6.432   5.366   3.437 -0.0112 -0.2273  0.0860
15166TIP3    H145439   6.460   5.385   3.348  0.9497  0.0379  0.4333
15166TIP3    H245440   6.337   5.367   3.433  0.0158 -0.5762 -1.0104
15167TIP3   OH245441   3.302   6.015   1.949 -0.3628 -0.3802 -0.1474
15167TIP3    H145442   3.296   5.973   2.035 -0.6466  0.2817  0.1638
15167TIP3    H245443   3.392   6.048   1.946 -0.4506 -0.1195  0.0343
15168TIP3   OH245444   2.549   3.130   2.548  0.4912 -0.1677  0.1846
15168TIP3    H145445   2.459   3.119   2.516  1.5079  0.4311 -3.3842
15168TIP3    H245446   2.588   3.043   2.541  1.1015  0.2122 -1.8172
15169TIP3   OH245447   1.964   4.451   2.651 -0.6013  0.1805 -0.0690
15169TIP3    H145448   2.052   4.419   2.671  0.1644  0.8221 -2.1015
15169TIP3    H245449   1.959   4.537   2.692 -0.1755  0.2493 -0.1596
15170TIP3   OH245450   0.625   4.785   6.418  0.0800  0.2497 -0.4766
15170TIP3    H145451   0.674   4.852   6.465 -1.9714  1.0401  0.6352
15170TIP3    H245452   0.681   4.763   6.344  0.9184  3.0596 -0.8049
15171TIP3   OH245453   4.628   2.630   4.942 -0.3940 -0.1091 -0.3537
15171TIP3    H145454   4.592   2.556   4.894  0.5952 -0.2120 -0.9815
15171TIP3    H245455   4.552   2.675   4.979 -1.1221 -0.4922 -1.3471
15172TIP3   OH245456   1.425   6.736   3.950 -0.4632 -0.2859  0.1140
15172TIP3    H145457   1.354   6.799   3.961 -0.3223 -0.5529  3.7221
15172TIP3    H245458   1.383   6.651   3.949 -0.2896 -0.4675  2.6271
15173TIP3   OH245459   3.983   7.432   1.947 -0.3821 -0.2694  0.3057
15173TIP3    H145460   3.926   7.445   1.870  0.5529 -1.4729 -0.6231
15173TIP3    H245461   4.061   7.484   1.927 -0.5351  0.1964  0.9027
15174TIP3   OH245462   7.511   5.691   4.972  0.1266 -0.0331 -0.0216
15174TIP3    H145463   7.433   5.639   4.989  0.4655 -0.7763 -0.6963
15174TIP3    H245464   7.511   5.757   5.041 -1.9090  0.9338 -0.8582
15175TIP3   OH245465   7.547   2.093   4.118  0.8753 -0.2534 -0.0771
15175TIP3    H145466   7.504   2.155   4.059  0.1597  0.5264  1.2094
15175TIP3    H245467   7.474   2.045   4.159  1.2924 -0.1202  0.8554
15176TIP3   OH245468   3.162   6.228   5.597  0.4873 -0.4009 -0.1490
15176TIP3    H145469   3.119   6.228   5.512  1.1717 -0.8203 -0.5032
15176TIP3    H245470   3.255   6.239   5.577  0.8898 -2.4631  0.4069
15177TIP3   OH245471   7.651   4.687   5.235 -0.0126 -0.1345 -0.3216
15177TIP3    H145472   7.644   4.620   5.303 -0.1983 -0.2821 -0.4859
15177TIP3    H245473   7.601   4.652   5.161 -0.6354  0.4582 -0.1925
15178TIP3   OH245474   0.568   3.696   3.691 -0.8322  0.1361  0.2184
15178TIP3    H145475   0.480   3.714   3.656 -0.6431 -0.1459 -0.4136
15178TIP3    H245476   0.624   3.762   3.651 -0.9143  0.9983  1.4415
15179TIP3   OH245477   7.812   6.498   2.380  0.4624 -0.2589 -0.1683
15179TIP3    H145478   7.847   6.557   2.446 -0.2939 -0.1797  0.1737
15179TIP3    H245479   7.804   6.414   2.426  0.2222 -0.2780 -0.2439
15180TIP3   OH245480   1.633   7.793   3.759  0.3138  0.1051  0.4337
15180TIP3    H145481   1.642   7.714   3.706  2.0552  0.4720  0.1398
15180TIP3    H245482   1.682   7.775   3.839 -0.6083  0.3160  1.0671
15181TIP3   OH245483   2.076   3.024   0.496  0.2370  0.0117 -0.0620
15181TIP3    H145484   2.045   2.943   0.456  1.8660 -0.4619 -0.4236
15181TIP3    H245485   2.169   3.027   0.475  0.8863  0.4060  2.5869
15182TIP3   OH245486   1.491   4.696   1.766  0.0871  0.1320  0.2420
15182TIP3    H145487   1.539   4.628   1.718  0.8610  0.0352  1.1196
15182TIP3    H245488   1.447   4.648   1.837 -0.7614  0.3201 -0.1463
15183TIP3   OH245489   3.967   6.910   4.823  0.6455 -0.3869  0.0557
15183TIP3    H145490   3.969   6.924   4.918 -1.0021 -0.9644  0.2025
15183TIP3    H245491   3.900   6.843   4.810 -0.4206  0.9506 -1.6746
15184TIP3   OH245492   5.065   0.721   1.218 -0.6087 -0.3740 -0.0703
15184TIP3    H145493   5.044   0.694   1.128 -0.8630 -1.5647  0.3415
15184TIP3    H245494   5.124   0.653   1.250 -1.5758 -0.6636  1.1217
15185TIP3   OH245495   2.683   5.770   0.605 -0.2656 -0.3323  0.1813
15185TIP3    H145496   2.681   5.865   0.599 -2.1867 -0.3787 -0.7614
15185TIP3    H245497   2.614   5.748   0.668 -0.4216 -1.1235 -0.2470
15186TIP3   OH245498   5.577   4.704   1.506  0.1043 -0.0781  0.2110
15186TIP3    H145499   5.567   4.765   1.433  2.1086 -0.3839 -0.3742
15186TIP3    H245500   5.504   4.643   1.496 -0.7293  0.9737 -0.4074
15187TIP3   OH245501   5.059   0.935   2.494  0.0065 -0.3166  0.8301
15187TIP3    H145502   5.006   0.886   2.557 -0.5758  0.2933  0.8145
15187TIP3    H245503   5.143   0.889   2.494 -0.8676 -1.9969  0.0029
15188TIP3   OH245504   4.326   1.826   5.972 -0.1261 -0.3097 -0.2047
15188TIP3    H145505   4.258   1.765   5.943  0.9743 -1.3132 -0.7342
15188TIP3    H245506   4.286   1.873   6.045 -1.9563  0.2743 -1.5139
15189TIP3   OH245507   2.585   0.965   4.501  0.2684  0.0097  0.4572
15189TIP3    H145508   2.662   0.991   4.450  0.0825  0.6057  0.4837
15189TIP3    H245509   2.593   1.014   4.583  0.1741 -0.3839  0.7045
15190TIP3   OH245510   8.247   7.744   3.511 -0.2385 -0.5118 -0.2339
15190TIP3    H145511   8.303   7.809   3.554 -0.6949 -0.7391  0.7398
15190TIP3    H245512   8.263   7.757   3.417 -1.9199  2.4966 -0.2484
15191TIP3   OH245513   5.752   3.982   4.285  0.1117  0.4733  0.3295
15191TIP3    H145514   5.669   4.027   4.298  0.5602  2.1761 -2.0433
15191TIP3    H245515   5.732   3.912   4.224  0.1282 -0.2806  1.1612
15192TIP3   OH245516   3.048   3.027   5.065  0.2069  0.2142 -0.0909
15192TIP3    H145517   3.070   3.114   5.030  0.9727 -0.1528 -0.5363
15192TIP3    H245518   3.079   3.030   5.156  2.3121 -0.3365 -0.7400
15193TIP3   OH245519   1.212   1.375   0.593 -0.5292 -0.4115  0.4683
15193TIP3    H145520   1.304   1.395   0.614 -0.0784 -1.0599 -0.7708
15193TIP3    H245521   1.165   1.391   0.674  0.5676  0.6662  0.9274
15194TIP3   OH245522   6.409   1.843   3.889  0.7386 -0.3033  0.2071
15194TIP3    H145523   6.379   1.831   3.799  0.3393  1.3235  0.0811
15194TIP3    H245524   6.346   1.904   3.927  0.4979 -1.4945  1.8301
15195TIP3   OH245525   8.329   1.757   1.367 -0.5888  0.2492 -0.1245
15195TIP3    H145526   8.392   1.757   1.295 -0.2460  1.4247  0.1535
15195TIP3    H245527   8.271   1.684   1.348  0.0742 -0.0508 -1.0797
15196TIP3   OH245528   7.451   4.913   3.582  0.2548 -0.4662  0.0036
15196TIP3    H145529   7.362   4.906   3.616  1.0914 -1.5099  2.1519
15196TIP3    H245530   7.485   4.823   3.582  1.7158  0.0556  0.3995
15197TIP3   OH245531   1.532   3.947   6.349 -0.0323 -0.6604 -0.2312
15197TIP3    H145532   1.561   3.859   6.370 -2.3638 -1.0728  1.7334
15197TIP3    H245533   1.497   3.940   6.260  0.1949 -1.6327 -0.2532
15198TIP3   OH245534   0.232   2.374   6.548 -0.4037  0.1289 -0.0926
15198TIP3    H145535   0.256   2.448   6.602  0.2524 -0.1487  0.0049
15198TIP3    H245536   0.294   2.375   6.476 -1.1232  0.3578 -0.7266
15199TIP3   OH245537   5.973   5.821   0.315 -0.1117 -0.0779 -0.1842
15199TIP3    H145538   5.948   5.728   0.316 -0.2070 -0.0508  0.1273
15199TIP3    H245539   5.916   5.860   0.249 -1.7314  0.1974  1.2872
15200TIP3   OH245540   1.385   7.534   0.494 -0.1156  0.6022 -0.0708
15200TIP3    H145541   1.317   7.566   0.435 -0.8933 -1.9598 -0.7142
15200TIP3    H245542   1.466   7.576   0.463 -0.8004  0.7269 -1.8311
15201TIP3   OH245543   0.328   5.348   1.656 -0.2591 -0.6509 -0.2102
15201TIP3    H145544   0.297   5.293   1.728 -1.5222 -1.3132 -1.2142
15201TIP3    H245545   0.297   5.304   1.577  2.4490 -0.8198 -1.2987
15202TIP3   OH245546   6.851   6.882   3.004 -0.2317  0.9138 -0.0664
15202TIP3    H145547   6.893   6.968   3.011 -0.7153  1.0459  1.8197
15202TIP3    H245548   6.800   6.874   3.084 -0.1014 -1.1974 -0.1350
15203TIP3   OH245549   5.809   7.294   5.914  0.0595 -0.1560  0.0588
15203TIP3    H145550   5.832   7.387   5.913  0.0780 -0.1416  0.8862
15203TIP3    H245551   5.743   7.284   5.846 -0.7439  0.6917  0.6859
15204TIP3   OH245552   7.925   1.872   6.649  0.2181  0.3064  0.2378
15204TIP3    H145553   8.007   1.914   6.622 -0.8113  1.9506 -0.5150
15204TIP3    H245554   7.916   1.893   6.742  1.9484 -2.2341  1.0889
15205TIP3   OH245555   4.107   1.441   4.418  0.3504 -0.3681  0.4728
15205TIP3    H145556   4.146   1.481   4.496 -0.1087  0.9224  0.0598
15205TIP3    H245557   4.048   1.373   4.453  1.0668 -0.6453  1.1845
15206TIP3   OH245558   6.447   2.134   2.800 -0.8649  0.3307 -0.5699
15206TIP3    H145559   6.471   2.128   2.893  0.4822 -2.2404 -0.9837
15206TIP3    H245560   6.527   2.164   2.757 -0.8802 -0.3629 -1.0963
15207TIP3   OH245561   1.846   2.350   3.922 -0.1085 -0.2691 -0.2120
15207TIP3    H145562   1.926   2.375   3.968 -0.4248 -1.2838  0.9342
15207TIP3    H245563   1.875   2.332   3.832  0.6556  0.9187 -0.2278
15208TIP3   OH245564   1.828   1.231   0.217 -0.1514 -0.1468  0.3056
15208TIP3    H145565   1.880   1.161   0.177 -0.4225 -0.5816  0.6956
15208TIP3    H245566   1.884   1.267   0.285 -0.6312 -1.1408  1.2525
15209TIP3   OH245567   3.242   5.016   2.552  0.4195  0.2510 -0.3398
15209TIP3    H145568   3.235   4.931   2.595 -2.6760  0.7937  0.4511
15209TIP3    H245569   3.168   5.020   2.492  0.0399  2.6207  0.1725
15210TIP3   OH245570   4.021   0.965   4.940  0.0506  0.3259 -0.5610
15210TIP3    H145571   3.931   0.941   4.920 -0.5985  1.0604  1.2314
15210TIP3    H245572   4.058   0.888   4.983 -0.7128  0.9958  1.4073
15211TIP3   OH245573   0.024   1.948   1.557 -0.0316 -0.6666 -1.1686
15211TIP3    H145574   0.039   1.892   1.633 -0.8718 -0.3947 -0.7914
15211TIP3    H245575  -0.018   1.891   1.493 -3.0277  0.0012  0.0466
15212TIP3   OH245576   1.535   7.403   1.849 -0.8723  0.3087  0.5957
15212TIP3    H145577   1.560   7.332   1.790 -1.6595 -0.0038  0.6187
15212TIP3    H245578   1.557   7.371   1.936 -1.0622  0.1593  0.5902
15213TIP3   OH245579   4.006   0.297   1.666 -0.1499  0.1248  0.0511
15213TIP3    H145580   3.982   0.240   1.740  1.3022  0.3972  0.7774
15213TIP3    H245581   4.048   0.238   1.603 -2.7528 -0.3928 -1.3191
15214TIP3   OH245582   7.548   6.544   3.898 -0.0061 -0.1104  0.4469
15214TIP3    H145583   7.559   6.490   3.976  0.5728  0.3086  0.6659
15214TIP3    H245584   7.490   6.615   3.926  0.5878  0.3064  0.6396
15215TIP3   OH245585   2.077   1.166   4.830 -0.0786  0.2805  0.6156
15215TIP3    H145586   2.005   1.117   4.790  0.0538 -0.0822  0.8160
15215TIP3    H245587   2.038   1.211   4.905 -0.5556  1.7789 -0.4738
15216TIP3   OH245588   2.061   2.094   6.616  1.2766  0.4060  0.2958
15216TIP3    H145589   2.019   2.140   6.544 -1.9785  0.0615  1.7996
15216TIP3    H245590   2.045   2.001   6.597  1.0130  0.2862  1.0683
15217TIP3   OH245591   0.774   1.817   5.615 -0.4039  0.1204  0.2303
15217TIP3    H145592   0.784   1.731   5.574  0.8805  0.4001 -0.1072
15217TIP3    H245593   0.862   1.855   5.611 -1.3616  2.3739 -1.6973
15218TIP3   OH245594   7.879   0.668   5.143 -0.4969  0.6629  0.0189
15218TIP3    H145595   7.947   0.663   5.211 -1.1710 -1.3900  0.6471
15218TIP3    H245596   7.925   0.653   5.061  0.2163  2.3891  0.0709
15219TIP3   OH245597   4.306   5.681   3.295 -0.1304 -0.1571 -0.1986
15219TIP3    H145598   4.232   5.620   3.287 -1.4805  1.4240 -0.1664
15219TIP3    H245599   4.289   5.728   3.376  0.0158  1.3723 -1.0258
15220TIP3   OH245600   6.133   2.483   1.279 -0.3512  0.3623 -0.3715
15220TIP3    H145601   6.189   2.465   1.203  0.0021  1.3940 -0.3660
15220TIP3    H245602   6.061   2.536   1.244 -2.5573 -2.6604 -0.8112
15221TIP3   OH245603   6.369   1.971   5.508  0.4444 -0.7206  0.0677
15221TIP3    H145604   6.454   1.988   5.548  0.8694  0.5313 -1.2893
15221TIP3    H245605   6.370   2.020   5.426 -2.7262  1.8960  1.3563
15222TIP3   OH245606   6.143   4.237   4.462 -0.2647  0.1814  0.6392
15222TIP3    H145607   6.135   4.330   4.484 -0.5554  0.3413 -0.0865
15222TIP3    H245608   6.061   4.216   4.417  0.2917 -0.1067 -0.2855
15223TIP3   OH245609   5.561   3.252   1.078 -0.2445 -0.1893 -0.2380
15223TIP3    H145610   5.566   3.278   0.986 -1.5160  1.6764  0.1641
15223TIP3    H245611   5.496   3.311   1.116 -1.0415 -2.0397  1.4875
15224TIP3   OH245612   0.486   3.159   2.004 -0.0099  0.0799 -0.1492
15224TIP3    H145613   0.502   3.177   1.911  1.4400 -0.5869 -0.0554
15224TIP3    H245614   0.514   3.068   2.016 -1.0306 -0.1375  0.7732
15225TIP3   OH245615   2.358   7.768   5.484 -0.3591  0.4438  0.0917
15225TIP3    H145616   2.432   7.707   5.487 -0.9880 -0.3314 -0.0731
15225TIP3    H245617   2.385   7.840   5.542  1.3914  1.1790 -1.5345
15226TIP3   OH245618   7.175   0.570   1.347  0.0122  0.0542  0.1553
15226TIP3    H145619   7.145   0.659   1.330  0.2727 -0.1481 -1.6533
15226TIP3    H245620   7.110   0.515   1.302  0.4580 -0.6075  0.3053
15227TIP3   OH245621   5.601   3.042   5.135 -0.0466 -0.1039  0.5159
15227TIP3    H145622   5.544   3.048   5.058  0.9858 -0.5222 -0.2960
15227TIP3    H245623   5.549   2.994   5.200 -1.2518  0.9922  0.4029
15228TIP3   OH245624   4.298   5.932   2.266  0.3303  0.1510  0.0089
15228TIP3    H145625   4.218   5.906   2.220  0.6857  0.2240 -0.6655
15228TIP3    H245626   4.269   5.949   2.356 -0.5865  1.0866 -0.4390
15229TIP3   OH245627   5.652   5.290   2.567  0.7492  0.0469 -0.7816
15229TIP3    H145628   5.559   5.284   2.543  0.5584  2.1246 -0.6978
15229TIP3    H245629   5.697   5.293   2.483  0.6542  0.0692 -0.8327
15230TIP3   OH245630   6.463   7.440   6.393 -0.6698 -0.1017 -0.0702
15230TIP3    H145631   6.373   7.472   6.391 -0.8232 -0.5575 -1.8362
15230TIP3    H245632   6.455   7.345   6.386 -0.0434 -0.1360 -0.3652
15231TIP3   OH245633   5.242   2.569   2.631  0.7283 -0.3517 -0.7205
15231TIP3    H145634   5.309   2.591   2.696 -1.0282 -1.3150  1.5628
15231TIP3    H245635   5.189   2.648   2.624 -0.9491 -1.1335  1.5747
15232TIP3   OH245636   8.075   6.840   4.244 -0.6102  0.3352 -0.6103
15232TIP3    H145637   8.141   6.790   4.292 -0.1056  1.2602 -0.3205
15232TIP3    H245638   8.074   6.800   4.157  0.7536  0.6692 -0.8027
15233TIP3   OH245639   1.210   3.227   5.797  0.2697 -0.1954  0.1064
15233TIP3    H145640   1.255   3.302   5.758  0.9773 -1.2909 -1.2699
15233TIP3    H245641   1.279   3.180   5.844 -0.5437  1.0438  2.7510
15234TIP3   OH245642   1.763   3.348   3.133 -0.2834  0.1694 -0.1034
15234TIP3    H145643   1.812   3.318   3.056 -2.2378 -1.4956 -0.7991
15234TIP3    H245644   1.724   3.431   3.106  0.6920  0.6258 -0.1531
15235TIP3   OH245645   7.341   0.846   4.804 -0.4618 -0.3094 -0.2232
15235TIP3    H145646   7.342   0.915   4.871 -0.4300 -0.2610 -0.2731
15235TIP3    H245647   7.401   0.878   4.736 -0.4594 -0.3790 -0.2540
15236TIP3   OH245648   4.367   6.969   3.109  0.0767 -0.7647  0.0278
15236TIP3    H145649   4.329   6.926   3.033  0.4775  0.1924 -0.7311
15236TIP3    H245650   4.309   6.946   3.181 -1.4690 -0.0662 -0.9323
15237TIP3   OH245651   2.644   2.977   3.829 -0.1092  0.3834  0.3863
15237TIP3    H145652   2.695   2.899   3.852  0.7702  0.7477 -0.2603
15237TIP3    H245653   2.705   3.050   3.842 -0.1676  0.7511 -1.2897
15238TIP3   OH245654   7.191   1.058   2.676  0.1787 -0.0733  0.2149
15238TIP3    H145655   7.141   1.086   2.599  1.8226 -2.1231 -1.7288
15238TIP3    H245656   7.158   0.970   2.695  0.2616  0.1535  1.4739
15239TIP3   OH245657   3.266   1.698   2.300 -0.1923 -0.3304  0.1560
15239TIP3    H145658   3.343   1.675   2.248 -0.0079  0.6694 -0.0193
15239TIP3    H245659   3.194   1.651   2.259 -0.0387  0.4003 -0.9829
15240TIP3   OH245660   7.114   3.642   0.747 -0.1404  0.2528 -0.1828
15240TIP3    H145661   7.185   3.588   0.713 -0.5345 -1.3499  1.3687
15240TIP3    H245662   7.106   3.714   0.685  2.6881  0.3868 -0.5175
15241TIP3   OH245663   5.010   7.877   4.861 -0.1347 -0.0335  0.4606
15241TIP3    H145664   5.061   7.902   4.937 -0.5339  1.4107  0.2676
15241TIP3    H245665   4.961   7.799   4.889 -1.0649  1.0733  2.0276
15242TIP3   OH245666   5.257   2.223   4.160  0.1055  0.5646 -0.2074
15242TIP3    H145667   5.202   2.297   4.188 -3.0717 -1.1848 -1.2919
15242TIP3    H245668   5.267   2.170   4.238 -1.7304 -0.1708 -0.4051
15243TIP3   OH245669   2.996   0.524   0.694  0.1478  0.4380 -0.0672
15243TIP3    H145670   2.923   0.462   0.698 -1.4668  2.3078  0.8079
15243TIP3    H245671   2.995   0.556   0.604 -1.4768  1.9185  0.4132
15244TIP3   OH245672   6.435   1.129   0.037 -0.0572  0.2740 -0.4170
15244TIP3    H145673   6.512   1.182   0.059  0.2305 -0.1717 -0.3502
15244TIP3    H245674   6.469   1.058  -0.018 -0.4007  0.0024 -0.2835
15245TIP3   OH245675   5.450   0.320   0.319  0.3397 -0.3639 -0.3872
15245TIP3    H145676   5.413   0.394   0.271 -0.1067 -1.3975 -1.7012
15245TIP3    H245677   5.379   0.256   0.321  0.9930 -1.0894 -0.0192
15246TIP3   OH245678   8.129   5.864   2.562  0.2754 -0.5727  0.2024
15246TIP3    H145679   8.082   5.851   2.480  0.4137 -0.1901  0.0600
15246TIP3    H245680   8.067   5.911   2.618  0.8068  0.8164 -0.3241
15247TIP3   OH245681   7.202   7.560   4.671  0.5810  0.6116 -0.4988
15247TIP3    H145682   7.294   7.537   4.682  0.3749 -0.5204 -0.9907
15247TIP3    H245683   7.184   7.624   4.740  1.6807  0.7042 -0.2875
15248TIP3   OH245684   1.251   0.468   1.155  0.4828  0.0249  0.7203
15248TIP3    H145685   1.211   0.503   1.235  1.1956  0.0917  1.0606
15248TIP3    H245686   1.312   0.401   1.186  0.7339  0.0187  0.2325
15249TIP3   OH245687   4.289   0.660   3.060  0.0014 -0.3142  0.3781
15249TIP3    H145688   4.289   0.714   2.981  1.4041 -0.2494  0.3988
15249TIP3    H245689   4.319   0.719   3.129  0.7901 -0.8885  0.5454
15250TIP3   OH245690   1.381   2.218   1.091 -0.9449 -0.4923 -0.1418
15250TIP3    H145691   1.346   2.298   1.132  1.7681 -0.4262  2.3362
15250TIP3    H245692   1.351   2.148   1.149  1.4564 -0.5898  1.0771
15251TIP3   OH245693   1.701   3.003   0.062 -0.1515 -0.1109 -0.0563
15251TIP3    H145694   1.781   2.986   0.011 -1.1686  0.0654 -1.7717
15251TIP3    H245695   1.733   3.047   0.142  1.4445  0.1192 -0.7745
15252TIP3   OH245696   0.490   4.366   2.134 -0.1572  0.8198  0.2137
15252TIP3    H145697   0.467   4.450   2.175 -0.5554  0.2115  1.2634
15252TIP3    H245698   0.580   4.349   2.163 -0.6465  0.1016  1.3345
15253TIP3   OH245699   5.907   4.447   6.771  0.2879 -0.6910  0.0373
15253TIP3    H145700   5.960   4.423   6.847  0.5338 -0.6678 -0.1278
15253TIP3    H245701   5.967   4.443   6.697  1.0098  2.6638  0.2807
15254TIP3   OH245702   3.391   4.408   0.719 -0.1148  0.1750 -0.0452
15254TIP3    H145703   3.469   4.354   0.707  0.4138  0.9057  0.0449
15254TIP3    H245704   3.421   4.498   0.707 -1.2121  0.4032 -1.3765
15255TIP3   OH245705   7.433   2.492   3.747 -0.3338  0.5368 -0.1258
15255TIP3    H145706   7.445   2.476   3.653 -0.3780  0.9676 -0.2098
15255TIP3    H245707   7.347   2.456   3.767  0.2835 -0.8702  0.0696
15256TIP3   OH245708   3.395   1.066   5.187 -0.3405 -0.0826  0.1327
15256TIP3    H145709   3.370   1.133   5.123  0.0070 -1.8373 -1.9718
15256TIP3    H245710   3.447   1.003   5.137  1.8299 -0.4871  2.6657
15257TIP3   OH245711   7.661   7.915   4.504 -0.0655  0.1585 -0.3924
15257TIP3    H145712   7.735   7.855   4.502  0.2159  0.5138 -1.2606
15257TIP3    H245713   7.695   7.994   4.546  0.0430  0.2962 -0.7285
15258TIP3   OH245714   0.145   6.633   0.237 -0.3412 -0.2261 -0.6818
15258TIP3    H145715   0.169   6.667   0.151 -2.7397  0.2577 -1.2206
15258TIP3    H245716   0.073   6.572   0.220 -0.5656 -0.4599  0.9550
15259TIP3   OH245717   6.483   0.470   4.972  0.4568  0.2063 -0.4059
15259TIP3    H145718   6.468   0.549   4.921  3.4295  1.3978  0.3039
15259TIP3    H245719   6.566   0.486   5.017  0.4380 -2.7416  0.9613
15260TIP3   OH245720   3.769   3.834   2.566 -0.0264  0.3998  0.1418
15260TIP3    H145721   3.729   3.920   2.551 -0.3986  0.3568  0.8689
15260TIP3    H245722   3.700   3.772   2.544 -0.0499  0.3045  0.4856
15261TIP3   OH245723   4.344   5.773   4.851 -0.3924 -0.6214 -0.2795
15261TIP3    H145724   4.417   5.717   4.877 -0.1188 -0.2145 -0.1554
15261TIP3    H245725   4.286   5.775   4.926  0.3942  0.5521  0.3336
15262TIP3   OH245726   2.869   0.478   4.199 -0.5004  0.1544  0.0088
15262TIP3    H145727   2.880   0.409   4.264 -0.1700  0.3594  0.1722
15262TIP3    H245728   2.793   0.451   4.148 -0.9224  0.1182  0.6455
15263TIP3   OH245729   4.992   4.738   1.655  0.0482 -0.0154 -0.2148
15263TIP3    H145730   5.023   4.825   1.631  0.8070  0.1481  1.2459
15263TIP3    H245731   5.061   4.679   1.625 -0.5529 -0.1413 -1.3709
15264TIP3   OH245732   0.916   3.053   3.748  0.1048 -0.3104 -0.7600
15264TIP3    H145733   0.992   3.091   3.703 -0.3291 -0.1102 -1.3382
15264TIP3    H245734   0.922   3.086   3.837  0.1526  0.5339 -1.0631
15265TIP3   OH245735   3.280   5.842   5.192 -0.2477  0.0213 -0.0454
15265TIP3    H145736   3.278   5.899   5.115 -1.1838  0.8754  0.5795
15265TIP3    H245737   3.230   5.890   5.258  0.3200 -0.8112  1.0161
15266TIP3   OH245738   0.740   0.179   6.395  0.2210  0.8797 -0.1095
15266TIP3    H145739   0.825   0.190   6.352  0.2691  1.2260  0.0711
15266TIP3    H245740   0.755   0.210   6.484  0.3715 -0.6743  0.4374
15267TIP3   OH245741   2.697   3.275   5.722 -0.7525  0.0806 -0.3770
15267TIP3    H145742   2.677   3.289   5.630 -0.3074 -1.9107 -0.8311
15267TIP3    H245743   2.692   3.362   5.762  0.1665  1.1628 -2.4887
15268TIP3   OH245744   2.317   2.000   0.484 -0.5181 -0.1068 -0.1139
15268TIP3    H145745   2.245   1.951   0.522 -1.4164  1.1208 -0.1907
15268TIP3    H245746   2.331   2.073   0.544  0.0844  0.1543 -0.5603
15269TIP3   OH245747   5.376   3.836   5.599  0.1238 -0.2881 -0.0828
15269TIP3    H145748   5.465   3.856   5.628 -0.2566  2.2280 -0.3845
15269TIP3    H245749   5.368   3.882   5.515 -1.3610 -0.7517 -0.2206
15270TIP3   OH245750   6.893   7.056   2.632  0.2081 -0.4394 -0.0887
15270TIP3    H145751   6.865   7.133   2.683 -1.7241 -0.5375 -0.9101
15270TIP3    H245752   6.974   7.028   2.674 -1.7813 -1.1788  3.6947
15271TIP3   OH245753   2.326   6.974   5.492  0.3311 -0.2084  0.3339
15271TIP3    H145754   2.261   6.990   5.561 -0.6941  0.5242 -0.7753
15271TIP3    H245755   2.276   6.934   5.421  1.3115 -0.6216 -0.1368
15272TIP3   OH245756   5.321   5.139   6.231  0.2534 -0.1654  0.3647
15272TIP3    H145757   5.338   5.224   6.270 -2.2960  0.4985  0.2545
15272TIP3    H245758   5.344   5.076   6.299 -1.1870  0.8261  1.8594
15273TIP3   OH245759   6.955   6.878   5.722 -0.3319 -0.0709  0.3826
15273TIP3    H145760   6.949   6.973   5.736 -2.0146  0.1417 -1.2764
15273TIP3    H245761   6.999   6.869   5.638 -2.3717 -0.5763 -0.7130
15274TIP3   OH245762   7.605   1.603   5.390 -0.0807 -0.2782  0.1196
15274TIP3    H145763   7.585   1.691   5.358  0.5881 -0.1181  0.1411
15274TIP3    H245764   7.520   1.569   5.420 -0.0260  1.1839  2.1603
15275TIP3   OH245765   0.265   6.997   6.491  0.2383 -0.5514  0.1440
15275TIP3    H145766   0.323   6.977   6.564  1.2137 -1.4218 -0.8421
15275TIP3    H245767   0.322   7.004   6.415 -0.6994  0.8193 -0.4788
15276TIP3   OH245768   6.556   1.986   2.082 -0.6499  0.1227  0.0139
15276TIP3    H145769   6.555   2.078   2.108  1.6708  0.2704 -0.2075
15276TIP3    H245770   6.648   1.960   2.092 -1.2533 -2.1491 -0.0216
15277TIP3   OH245771   7.058   2.248   1.395 -0.6278 -0.4221 -0.0940
15277TIP3    H145772   6.965   2.246   1.416 -0.2884  0.7214  1.7316
15277TIP3    H245773   7.095   2.176   1.446 -0.4547 -0.7306 -0.6398
15278TIP3   OH245774   3.453   2.459   3.352 -0.0124  0.5587  0.1598
15278TIP3    H145775   3.496   2.385   3.395  0.7382  1.1651  0.4815
15278TIP3    H245776   3.497   2.536   3.388  0.3863  1.1015 -1.4317
15279TIP3   OH245777   8.095   7.821   0.385  0.6245  0.6530  0.1781
15279TIP3    H145778   8.057   7.790   0.468  1.1944  0.5089  0.3894
15279TIP3    H245779   8.048   7.772   0.318 -1.2958  2.2435  0.2747
15280TIP3   OH245780   3.792   7.617   3.535 -0.0376 -0.4030  0.2497
15280TIP3    H145781   3.798   7.711   3.518 -1.9407 -0.4693 -1.0766
15280TIP3    H245782   3.743   7.582   3.461  0.2078 -2.3880  0.9628
15281TIP3   OH245783   2.971   2.032   6.111  0.6066  0.1872 -0.3096
15281TIP3    H145784   3.033   1.999   6.176  0.1398  0.0653  0.0838
15281TIP3    H245785   2.926   1.953   6.078  0.5556  0.2864 -0.4793
15282TIP3   OH245786   6.502   1.909   0.692  0.1624  0.2673  0.1482
15282TIP3    H145787   6.539   1.997   0.687 -1.9944  1.2254 -0.0009
15282TIP3    H245788   6.538   1.872   0.773  1.7668  0.9203 -0.2272
15283TIP3   OH245789   5.164   2.734   3.631  0.3662 -0.2655  0.4993
15283TIP3    H145790   5.075   2.703   3.650  0.8163 -1.5426  0.6255
15283TIP3    H245791   5.220   2.686   3.692  1.0655  1.3562  1.2060
15284TIP3   OH245792   5.393   2.034   0.031  0.1970  0.2035  0.7742
15284TIP3    H145793   5.370   1.988   0.112  0.2864 -0.9899  0.1455
15284TIP3    H245794   5.323   2.011  -0.030  1.1447 -0.5401 -0.0743
15285TIP3   OH245795   3.077   7.392   5.443 -0.5536 -0.9468  0.1418
15285TIP3    H145796   3.006   7.405   5.380 -0.2031  1.7529  0.1832
15285TIP3    H245797   3.035   7.357   5.521 -2.4959  2.9927  1.1417
15286TIP3   OH245798   0.971   1.909   0.389 -0.1039  0.4576  0.1441
15286TIP3    H145799   1.052   1.952   0.361  0.4572 -0.9980 -0.5750
15286TIP3    H245800   0.945   1.856   0.314 -0.8218 -0.3830  0.9672
15287TIP3   OH245801   2.878   6.306   3.763  0.0457  0.9962 -0.4858
15287TIP3    H145802   2.957   6.355   3.739  1.2290 -1.1804 -1.4124
15287TIP3    H245803   2.806   6.368   3.752  1.1718  1.9268 -3.8902
15288TIP3   OH245804   4.088   5.851   0.488  0.1898  0.6063 -0.3224
15288TIP3    H145805   4.101   5.819   0.577 -0.0053 -0.5913 -0.7165
15288TIP3    H245806   4.170   5.894   0.465  0.9046 -0.6857 -0.2274
15289TIP3   OH245807   6.878   6.148   4.259  0.3331 -0.0982 -0.4605
15289TIP3    H145808   6.905   6.221   4.315 -1.2924  3.1188 -3.4643
15289TIP3    H245809   6.959   6.115   4.221  1.0857  0.3532  0.7085
15290TIP3   OH245810   7.344   1.332   5.329  0.3434  0.2921 -0.9337
15290TIP3    H145811   7.306   1.245   5.342 -0.3720  0.6242 -0.7504
15290TIP3    H245812   7.369   1.333   5.236 -0.7504  0.3093 -1.2431
15291TIP3   OH245813   7.281   0.653   6.411 -0.2208  0.0415 -0.0371
15291TIP3    H145814   7.286   0.748   6.417 -1.5012  0.0665  1.2212
15291TIP3    H245815   7.372   0.623   6.421 -0.1005  1.0324  2.8475
15292TIP3   OH245816   5.984   4.034   4.156 -0.9979  0.3162 -0.3003
15292TIP3    H145817   5.968   4.104   4.094 -2.4515 -0.5049 -0.8921
15292TIP3    H245818   5.919   4.046   4.225 -0.1957  0.4884  0.4610
15293TIP3   OH245819   6.640   5.244   3.575  0.0586 -0.3097 -0.0227
15293TIP3    H145820   6.577   5.306   3.539  1.0694  1.0097  0.4137
15293TIP3    H245821   6.719   5.296   3.590  1.4938 -2.0322 -1.1675
15294TIP3   OH245822   5.677   4.538   1.869  0.1631  0.1618  0.2342
15294TIP3    H145823   5.755   4.530   1.924 -0.1133 -1.3672  0.4620
15294TIP3    H245824   5.693   4.616   1.816  2.5232 -0.9028 -0.7800
15295TIP3   OH245825   3.809   6.077   3.313  0.1165  0.4881 -0.2103
15295TIP3    H145826   3.871   6.050   3.380  0.6290  1.4536 -0.2708
15295TIP3    H245827   3.862   6.093   3.235 -0.7044 -2.6857 -1.5640
15296TIP3   OH245828   8.295   6.528   4.840  0.0753  0.5204  0.3857
15296TIP3    H145829   8.240   6.478   4.780 -0.0055 -1.6536  2.1217
15296TIP3    H245830   8.384   6.520   4.805 -0.1456  0.4399 -0.1592
15297TIP3   OH245831   2.074   4.521   0.850 -0.3964  0.4872  0.3262
15297TIP3    H145832   2.158   4.566   0.855 -0.0309 -0.2446  0.9780
15297TIP3    H245833   2.010   4.592   0.839  0.1273  1.2171  1.6356
15298TIP3   OH245834   0.705   3.821   3.168  0.3200  0.9575  0.1056
15298TIP3    H145835   0.719   3.774   3.086  2.3665 -0.8983  1.3838
15298TIP3    H245836   0.625   3.784   3.204 -0.2716  1.3692 -0.7645
15299TIP3   OH245837   5.274   5.914   4.923  0.0528  0.4122 -0.0001
15299TIP3    H145838   5.202   5.856   4.897  0.0139  0.5895 -0.2842
15299TIP3    H245839   5.231   5.992   4.958  0.0774 -0.4048  1.9690
15300TIP3   OH245840   1.163   3.695   0.139 -0.2546  0.6826 -0.1677
15300TIP3    H145841   1.240   3.746   0.113  0.4895  0.2735  1.1592
15300TIP3    H245842   1.185   3.661   0.225 -2.2296  1.1532  0.5661
15301TIP3   OH245843   7.889   3.237   3.385 -0.5289 -0.3093 -0.3676
15301TIP3    H145844   7.852   3.172   3.446 -0.4743 -0.2127 -0.2298
15301TIP3    H245845   7.815   3.293   3.362 -0.2632  0.5252  0.7302
15302TIP3   OH245846   5.757   3.758   2.410  0.1343 -0.2872 -0.0776
15302TIP3    H145847   5.723   3.712   2.487 -1.5727  1.5135  0.3218
15302TIP3    H245848   5.684   3.757   2.347  1.0367 -0.5383 -1.1564
15303TIP3   OH245849   0.984   7.554   6.008 -0.3826  0.7698 -0.4366
15303TIP3    H145850   0.998   7.648   6.003  0.2707  0.6705 -0.5468
15303TIP3    H245851   1.067   7.518   6.038 -0.7799  0.2709  0.1122
15304TIP3   OH245852   2.698   3.157   5.127 -0.1910 -0.3386 -0.0430
15304TIP3    H145853   2.791   3.141   5.140 -0.2443 -1.1048 -0.5844
15304TIP3    H245854   2.657   3.125   5.208  0.0826  0.8257  0.5858
15305TIP3   OH245855   3.549   0.523   3.072  0.6033 -0.4859 -0.1219
15305TIP3    H145856   3.547   0.444   3.017  1.1908 -0.5638 -0.0382
15305TIP3    H245857   3.642   0.542   3.083  0.5214 -0.8276  1.3619
15306TIP3   OH245858   6.927   5.127   1.999  0.2702  0.3863 -0.1960
15306TIP3    H145859   6.964   5.214   1.982 -1.1429  1.5461  2.0719
15306TIP3    H245860   6.968   5.099   2.081 -1.1378  0.0904  0.4381
15307TIP3   OH245861   7.705   0.481   0.664 -0.0935  0.4940 -0.2007
15307TIP3    H145862   7.759   0.452   0.738 -1.0019  2.3077  1.2640
15307TIP3    H245863   7.619   0.499   0.703 -0.7948  0.8574 -1.8352
15308TIP3   OH245864   5.616   4.584   1.212  0.3235  0.1097 -0.4767
15308TIP3    H145865   5.573   4.670   1.217  0.5762  0.2740 -1.0213
15308TIP3    H245866   5.705   4.599   1.244 -0.3335 -0.4781  1.7823
15309TIP3   OH245867   6.892   3.077   6.458  0.3229 -0.2317  0.3184
15309TIP3    H145868   6.903   2.982   6.456  1.2874 -0.1635  1.4340
15309TIP3    H245869   6.853   3.095   6.544  2.4448  0.5693  1.1662
15310TIP3   OH245870   1.503   1.677   6.576 -0.0481  0.1351 -0.4228
15310TIP3    H145871   1.535   1.722   6.498  0.1251  0.8570  0.0578
15310TIP3    H245872   1.408   1.674   6.564 -0.0764  0.7435 -0.4140
15311TIP3   OH245873   0.597   5.176   2.221 -0.0075  0.1157 -0.3223
15311TIP3    H145874   0.685   5.212   2.232  0.2516 -0.3992 -0.6786
15311TIP3    H245875   0.541   5.253   2.207 -0.3688  0.9178  4.0921
15312TIP3   OH245876   3.645   5.184   3.421 -1.0745 -0.0588 -0.3032
15312TIP3    H145877   3.586   5.143   3.358 -0.7039 -1.6256  0.3233
15312TIP3    H245878   3.668   5.114   3.482 -0.4885  1.1223  0.8870
15313TIP3   OH245879   8.062   4.608   1.639 -0.2007  0.3310  0.7351
15313TIP3    H145880   8.112   4.641   1.564 -0.7922 -3.0607 -1.3685
15313TIP3    H245881   7.989   4.670   1.647  0.2728  1.2024 -1.0389
15314TIP3   OH245882   3.104   3.069  -0.011 -0.3546 -0.4332 -0.4483
15314TIP3    H145883   3.109   3.044   0.081 -2.0764 -0.1498 -0.2439
15314TIP3    H245884   3.129   3.162  -0.012 -0.7725 -0.3141 -0.1910
15315TIP3   OH245885   6.309   1.183   0.807  0.4946  0.1001  0.4661
15315TIP3    H145886   6.314   1.098   0.762  1.2157  0.7068 -0.6438
15315TIP3    H245887   6.265   1.164   0.890  0.6217 -1.3534  0.2215
15316TIP3   OH245888   7.618   3.021   2.347 -0.3469 -0.1794  0.7387
15316TIP3    H145889   7.694   3.072   2.373 -0.5355  0.5449 -0.1276
15316TIP3    H245890   7.544   3.080   2.358 -0.5221 -0.1231 -0.6653
15317TIP3   OH245891   4.524   5.603   0.215 -0.1961  0.3016 -0.0344
15317TIP3    H145892   4.518   5.697   0.236 -0.7614  0.2086  0.2288
15317TIP3    H245893   4.455   5.562   0.267  1.1347 -0.5000  1.1687
15318TIP3   OH245894   0.341   0.852   5.513 -0.6528  0.4564 -0.8236
15318TIP3    H145895   0.411   0.797   5.549 -1.5584  0.7229  1.5270
15318TIP3    H245896   0.263   0.797   5.517 -1.1246  1.1255 -0.6410
15319TIP3   OH245897   6.032   0.863   0.223  0.7062  0.2622  0.2225
15319TIP3    H145898   6.047   0.937   0.164 -0.2226 -1.3630 -2.2131
15319TIP3    H245899   6.085   0.792   0.187 -1.5237 -1.3963 -0.0332
15320TIP3   OH245900   4.166   3.377   4.066  0.1086 -0.1208 -0.1474
15320TIP3    H145901   4.213   3.461   4.064  1.5565 -0.9144 -0.4942
15320TIP3    H245902   4.225   3.317   4.112 -0.6703 -1.0910 -0.3861
15321TIP3   OH245903   4.378   7.645   3.204 -0.5635  0.0456 -0.8562
15321TIP3    H145904   4.395   7.707   3.274 -0.8916 -0.9973  0.1953
15321TIP3    H245905   4.464   7.624   3.168 -0.2974 -0.0585 -0.1754
15322TIP3   OH245906   6.378   2.038   6.756 -0.6619  0.1772 -0.1659
15322TIP3    H145907   6.311   2.092   6.714 -1.4924  0.5843  1.6133
15322TIP3    H245908   6.341   1.949   6.755  0.2576 -0.2448 -2.1525
15323TIP3   OH245909   2.568   1.093   4.992  0.2984 -0.1779 -0.1903
15323TIP3    H145910   2.474   1.107   5.006  0.5415  0.3664  1.1071
15323TIP3    H245911   2.583   1.002   5.016  0.2342 -0.0260  0.4398
15324TIP3   OH245912   8.017   5.585   3.498 -0.2798  0.1009 -0.1196
15324TIP3    H145913   8.011   5.502   3.545 -0.8989  0.5595  0.6470
15324TIP3    H245914   7.984   5.650   3.560  2.1770  1.2443  0.0995
15325TIP3   OH245915   3.769   3.884   5.244 -0.4632  0.6094 -0.1617
15325TIP3    H145916   3.743   3.893   5.335 -0.8749 -0.5168 -0.1533
15325TIP3    H245917   3.694   3.915   5.194 -0.6162  0.3128 -0.1178
15326TIP3   OH245918   6.865   7.522   4.464 -0.2509  0.3449 -0.1406
15326TIP3    H145919   6.812   7.469   4.524 -0.6447  1.8498  0.8880
15326TIP3    H245920   6.807   7.540   4.390  0.7030 -2.8022 -1.8547
15327TIP3   OH245921   2.357   5.496   0.514 -0.0678  0.0996 -0.5076
15327TIP3    H145922   2.286   5.463   0.458 -0.8855  1.1944 -0.1622
15327TIP3    H245923   2.341   5.591   0.518  0.5316  0.1565  0.8124
15328TIP3   OH245924   5.016   4.307   3.005 -0.6005 -0.1855 -0.7213
15328TIP3    H145925   4.923   4.330   3.001 -0.0954  2.6352  0.7107
15328TIP3    H245926   5.048   4.354   3.082  1.7283 -2.3783 -0.2197
15329TIP3   OH245927   8.240   2.671   4.731 -0.0691  0.0812 -0.2371
15329TIP3    H145928   8.192   2.722   4.666  1.4411  0.0645 -1.4144
15329TIP3    H245929   8.257   2.734   4.802  1.4381  1.1836 -1.4988
15330TIP3   OH245930   5.179   0.617   0.659  0.0778 -0.2148  0.0070
15330TIP3    H145931   5.198   0.643   0.569 -2.2267 -0.0801 -0.5044
15330TIP3    H245932   5.264   0.589   0.694  1.3777  1.5025 -1.5752
15331TIP3   OH245933   3.656   0.384   5.953  0.4414  0.8006 -0.0213
15331TIP3    H145934   3.622   0.435   5.879  1.4185  1.1744 -0.2313
15331TIP3    H245935   3.674   0.298   5.916 -1.2534  0.2509  0.3438
15332TIP3   OH245936   1.850   0.340   5.218  0.5199 -0.0353  0.4289
15332TIP3    H145937   1.805   0.258   5.237 -0.4381  0.9421  2.7120
15332TIP3    H245938   1.787   0.408   5.240  2.2665  1.3442  1.4097
15333TIP3   OH245939   5.575   6.347   5.679 -0.3891 -0.4086 -0.7677
15333TIP3    H145940   5.573   6.264   5.631 -0.0474 -0.6116 -0.4329
15333TIP3    H245941   5.608   6.324   5.766  1.1275  0.2936 -1.1292
15334TIP3   OH245942   5.004   4.248   1.657  0.4905 -0.3332 -0.3548
15334TIP3    H145943   4.956   4.166   1.640  0.1212 -0.3342  0.6072
15334TIP3    H245944   5.031   4.241   1.749  2.1252 -0.2065 -0.8119
15335TIP3   OH245945   5.817   1.848   6.837 -0.3696 -0.1122  0.6945
15335TIP3    H145946   5.817   1.777   6.772 -0.6391  1.0352 -0.6174
15335TIP3    H245947   5.741   1.830   6.893 -0.3900 -0.8974  0.4219
15336TIP3   OH245948   5.790   5.289   4.440 -0.2422 -0.3724 -0.3265
15336TIP3    H145949   5.815   5.288   4.348 -0.8825  0.6871 -0.5220
15336TIP3    H245950   5.819   5.374   4.472  3.5024 -2.0499  1.5043
15337TIP3   OH245951   1.772   0.361   4.612  0.3261  0.6234 -0.1741
15337TIP3    H145952   1.745   0.287   4.558 -1.4704  0.5132  0.7899
15337TIP3    H245953   1.795   0.321   4.696 -0.7551  1.1328  0.3830
15338TIP3   OH245954   3.675   1.821   3.915  0.6055 -0.2092 -0.3420
15338TIP3    H145955   3.637   1.838   3.828 -0.8252 -2.5987 -0.2888
15338TIP3    H245956   3.643   1.733   3.937  2.4458 -0.3990  1.8259
15339TIP3   OH245957   5.166   0.641   5.126 -0.0303 -0.4076  0.1052
15339TIP3    H145958   5.099   0.630   5.058 -0.4031  1.1020  0.1961
15339TIP3    H245959   5.249   0.644   5.078 -0.0600 -1.5861 -0.0651
15340TIP3   OH245960   0.230   2.526   5.745  0.1643 -0.6287 -0.3857
15340TIP3    H145961   0.275   2.449   5.708  0.4343 -0.7952  0.2776
15340TIP3    H245962   0.223   2.507   5.838  1.5493  0.7872  0.0498
15341TIP3   OH245963   4.461   0.455   4.841 -0.1564 -0.9884  0.0802
15341TIP3    H145964   4.529   0.442   4.774  0.7478 -0.4417  0.8751
15341TIP3    H245965   4.412   0.531   4.810  0.4468 -0.5518  0.1894
15342TIP3   OH245966   8.081   2.391   5.706  0.2334 -0.1654  0.2445
15342TIP3    H145967   8.102   2.483   5.694  1.5598 -0.6054 -1.0305
15342TIP3    H245968   8.165   2.346   5.703 -0.2820 -1.3594  1.7918
15343TIP3   OH245969   6.798   7.700   5.718 -0.3057  0.1913 -0.1880
15343TIP3    H145970   6.828   7.622   5.672  2.2952  0.4696  0.8327
15343TIP3    H245971   6.736   7.741   5.658  0.8401 -0.8959 -2.2281
15344TIP3   OH245972   0.663   4.274   4.273 -0.9512  0.1075  0.1137
15344TIP3    H145973   0.620   4.348   4.230 -1.5512 -0.1105  0.3250
15344TIP3    H245974   0.607   4.255   4.349 -1.4453 -1.2805 -0.5620
15345TIP3   OH245975   3.361   2.224   6.107  0.1000  0.1358 -0.3057
15345TIP3    H145976   3.437   2.282   6.098  0.2921  0.2115  1.5251
15345TIP3    H245977   3.299   2.273   6.161 -0.9654 -0.2298 -1.1515
15346TIP3   OH245978   4.075   6.638   2.721 -0.3783 -0.5074  0.2657
15346TIP3    H145979   4.071   6.729   2.750 -1.1163 -0.6613  0.6647
15346TIP3    H245980   4.008   6.632   2.653  0.3529 -0.5100 -0.4696
15347TIP3   OH245981   4.684   1.351   1.451 -0.4437  0.1853  0.4767
15347TIP3    H145982   4.721   1.386   1.370 -0.5130  2.3897  1.3396
15347TIP3    H245983   4.598   1.318   1.425 -0.4511  0.8332 -0.3773
15348TIP3   OH245984   6.080   3.624   4.503  0.2921 -0.5461  0.1714
15348TIP3    H145985   6.103   3.686   4.572 -0.1576 -0.8811  0.6216
15348TIP3    H245986   6.012   3.569   4.541  0.8523 -1.4799 -0.1338
15349TIP3   OH245987   7.571   6.991   1.204  0.2763 -0.3396  0.1108
15349TIP3    H145988   7.481   6.990   1.236 -0.4276  0.8681 -1.6989
15349TIP3    H245989   7.568   6.942   1.122  1.2403 -0.1587 -0.0422
15350TIP3   OH245990   4.524   7.086   3.456 -0.4271 -0.2900  0.0628
15350TIP3    H145991   4.605   7.135   3.444  0.1074 -0.8352  1.2849
15350TIP3    H245992   4.468   7.144   3.507  0.2606 -0.9582  1.6377
15351TIP3   OH245993   5.539   1.804   2.980  0.2300  1.1048  0.0668
15351TIP3    H145994   5.579   1.891   2.976 -1.4586  1.9307  0.2809
15351TIP3    H245995   5.549   1.778   3.072  1.5055  0.6629 -0.1761
15352TIP3   OH245996   1.063   2.597   0.562  0.0862 -0.5197 -0.1754
15352TIP3    H145997   0.978   2.610   0.521  0.0007  2.9691  0.7252
15352TIP3    H245998   1.121   2.660   0.518  0.9892  0.4026  2.1344
15353TIP3   OH245999   7.523   7.125   0.751  0.6874  0.0826  0.3046
15353TIP3    H146000   7.609   7.121   0.709  0.1088  2.1082 -1.1965
15353TIP3    H246001   7.506   7.218   0.763 -1.0829 -0.3005  1.0877
15354TIP3   OH246002   3.498   3.610   1.815 -0.4090 -0.0899  0.7273
15354TIP3    H146003   3.494   3.521   1.848  1.2007 -0.5771 -0.2881
15354TIP3    H246004   3.574   3.611   1.757 -1.0116  1.6601 -0.1109
15355TIP3   OH246005   5.498   1.919   2.589 -0.1254 -0.3249  0.3394
15355TIP3    H146006   5.434   1.848   2.593  0.4473 -0.9366 -0.7452
15355TIP3    H246007   5.583   1.875   2.592  0.2508  0.4316  1.1830
15356TIP3   OH246008   0.186   2.794   0.406 -0.4419 -0.1907 -0.3704
15356TIP3    H146009   0.130   2.717   0.412 -0.8529  0.2063  1.5196
15356TIP3    H246010   0.270   2.766   0.442 -0.6626  0.2705  0.5498
15357TIP3   OH246011   0.283   3.762   1.567 -0.2750  0.0663  0.1678
15357TIP3    H146012   0.243   3.845   1.540  0.0827  0.2424  0.1839
15357TIP3    H246013   0.287   3.768   1.663 -0.3725 -0.0275  0.1779
15358TIP3   OH246014   0.508   7.705   5.860 -0.1941  0.2932  0.2273
15358TIP3    H146015   0.523   7.751   5.943 -0.6100 -0.2626  0.6174
15358TIP3    H246016   0.423   7.661   5.872  0.8694 -1.8225  0.4317
15359TIP3   OH246017   0.273   7.421   5.697  0.6316  0.2646 -0.4074
15359TIP3    H146018   0.297   7.388   5.784  1.9800  3.8016  0.7571
15359TIP3    H246019   0.178   7.431   5.701  0.7124  0.7302  0.8488
15360TIP3   OH246020   1.483   1.180   2.069 -0.1732 -0.2372 -0.1517
15360TIP3    H146021   1.571   1.191   2.107 -0.6340  0.7212  0.6755
15360TIP3    H246022   1.485   1.232   1.989 -0.6953  1.8039  1.0797
15361TIP3   OH246023   6.698   4.598   3.062  0.2599  0.3387  0.3751
15361TIP3    H146024   6.738   4.671   3.015  0.2728 -1.0606 -1.8902
15361TIP3    H246025   6.607   4.624   3.075 -0.2296  0.0738 -2.0730
15362TIP3   OH246026   2.021   6.590   3.895  0.1626  0.3656  0.0781
15362TIP3    H146027   1.961   6.566   3.966  0.6376  1.0021  0.7049
15362TIP3    H246028   2.083   6.650   3.935  0.7038  0.3965 -0.7793
15363TIP3   OH246029   3.405   5.177   0.974 -1.1173 -0.0848 -0.2653
15363TIP3    H146030   3.364   5.181   0.888 -0.1608 -2.4188 -0.8961
15363TIP3    H246031   3.498   5.190   0.956 -0.9840  0.0646  0.5019
15364TIP3   OH246032   0.355   7.745   3.970  0.4914 -0.0932 -0.4579
15364TIP3    H146033   0.357   7.834   3.936 -1.4477 -0.5101 -1.8456
15364TIP3    H246034   0.442   7.710   3.953  0.9173  1.1652 -0.9537
15365TIP3   OH246035   7.803   7.717   5.542 -0.2359  0.4667 -0.4489
15365TIP3    H146036   7.840   7.785   5.598 -0.2960 -0.1678  0.3769
15365TIP3    H246037   7.709   7.734   5.542 -0.3714 -0.1873  0.5697
15366TIP3   OH246038   0.934   1.814   2.544 -0.0471 -0.3454  0.4176
15366TIP3    H146039   0.993   1.859   2.603  2.0648 -0.6029 -1.3653
15366TIP3    H246040   0.870   1.881   2.519  1.0042  0.6985  0.4371
15367TIP3   OH246041   3.211   1.917   0.262  0.0871 -0.4985  0.0015
15367TIP3    H146042   3.217   1.841   0.204 -1.3874 -0.2722 -0.4726
15367TIP3    H246043   3.238   1.991   0.208 -1.5457 -0.2490 -0.5066
15368TIP3   OH246044   0.000   2.679   5.038  0.4890  0.2467  0.0637
15368TIP3    H146045   0.085   2.686   5.083  0.9463 -0.7379 -0.5925
15368TIP3    H246046  -0.013   2.584   5.027 -0.3049  0.4163 -0.5652
15369TIP3   OH246047   5.144   1.229   3.000  0.1026 -0.3301 -0.0103
15369TIP3    H146048   5.128   1.137   2.978 -0.4257 -0.2429 -0.0038
15369TIP3    H246049   5.057   1.269   2.997  0.4527  0.3787 -0.9697
15370TIP3   OH246050   4.115   3.448   2.816 -0.3194 -0.2783  0.2371
15370TIP3    H146051   4.044   3.424   2.875  0.4754  0.0446  1.3618
15370TIP3    H246052   4.181   3.380   2.829 -0.2153 -0.3172 -0.4456
15371TIP3   OH246053   2.959   3.900   5.603  0.2281 -0.2368 -0.0839
15371TIP3    H146054   2.978   3.983   5.646  1.3994 -1.0974  1.1238
15371TIP3    H246055   3.035   3.884   5.547  0.1777 -0.6576 -0.0381
   8.40884   7.92793   6.86579   0.00000   0.00000  -2.80295   0.00000  -2.80295  -3.96397
